 Gaussian 16, Revision A.03,
 Gaussian 16:  EM64L-G16RevA.03 25-Dec-2016

 -------------
 #p 6-31g* mp2
 -------------

 ------------------------------------------------------
 Input file generated by CHIRIPA (05-May-2021 14:53:11)
 ------------------------------------------------------
 Symbolic Z-matrix:
 Charge =  0 Multiplicity = 1

                         Standard orientation:
 ---------------------------------------------------------------------
 Center     Atomic      Atomic             Coordinates (Angstroms)
 Number     Number       Type             X           Y           Z
 ---------------------------------------------------------------------
      1          6           0        3.074492    0.950090    0.443423
      2          6           0        2.915835    2.281572   -0.291402
      3          6           0        1.846630    3.178074    0.333800
      4          1           0        2.109992    0.424105    0.448382
      5          1           0        3.328462    1.147144    1.494167
      6          1           0        2.663598    2.082046   -1.340774
      7          1           0        3.880872    2.804362   -0.294779
      8          1           0        2.095990    3.406302    1.375113
      9          1           0        0.871800    2.679882    0.323175
     10          1           0        1.749827    4.124572   -0.207154
     11          6           0        4.139725    0.042902   -0.169778
     12          6           0        4.298382   -1.288581    0.565047
     13          6           0        5.367587   -2.185083   -0.060155
     14          1           0        3.885755   -0.154152   -1.220522
     15          1           0        5.104225    0.568887   -0.174737
     16          1           0        3.333345   -1.811370    0.568424
     17          1           0        4.550619   -1.089055    1.614419
     18          1           0        6.342417   -1.686891   -0.049530
     19          1           0        5.118227   -2.413310   -1.101468
     20          1           0        5.464390   -3.131581    0.480799
     21          6           0       -5.130315    0.526759    0.320651
     22          6           0       -4.863147   -0.829306    0.535665
     23          6           0       -3.585666   -1.347021    0.302075
     24          6           0       -2.594512   -0.476312   -0.148226
     25          6           0       -2.829562    0.879438   -0.371798
     26          6           0       -4.114461    1.375306   -0.131597
     27          1           0       -6.125574    0.920446    0.504678
     28          1           0       -5.650132   -1.490638    0.886859
     29          1           0       -3.351358   -2.392721    0.460282
     30          1           0       -2.024621    1.514049   -0.722165
     31          1           0       -4.319068    2.428876   -0.299444
     32          7           0       -1.238175   -1.012830   -0.399017
     33          8           0       -0.382219   -0.224934   -0.795499
     34          8           0       -1.056715   -2.211088   -0.194357
 ---------------------------------------------------------------------

 SCF Done:  E(RHF) =  -669.536671624     A.U. after   15 cycles
 E2 =    -0.2091487945D+01 EUMP2 =    -0.67162815956873D+03

 The electronic state is 1-A.
 Alpha  occ. eigenvalues --  -20.61086 -20.61081 -15.86101 -11.31361 -11.27916
 Alpha  occ. eigenvalues --  -11.27913 -11.27643 -11.26911 -11.26900 -11.20571
 Alpha  occ. eigenvalues --  -11.20413 -11.20338 -11.20161 -11.20085 -11.19966
 Alpha  occ. eigenvalues --   -1.60137  -1.39695  -1.19523  -1.08940  -1.07231
 Alpha  occ. eigenvalues --   -1.04910  -1.02481  -0.95792  -0.94946  -0.86314
 Alpha  occ. eigenvalues --   -0.85978  -0.82628  -0.78544  -0.77690  -0.77032
 Alpha  occ. eigenvalues --   -0.72330  -0.71441  -0.70632  -0.65183  -0.64913
 Alpha  occ. eigenvalues --   -0.63819  -0.62259  -0.59864  -0.58328  -0.56566
 Alpha  occ. eigenvalues --   -0.55418  -0.54228  -0.53244  -0.53000  -0.51706
 Alpha  occ. eigenvalues --   -0.51400  -0.49163  -0.49082  -0.48809  -0.46881
 Alpha  occ. eigenvalues --   -0.45591  -0.45176  -0.44594  -0.44287  -0.42691
 Alpha  occ. eigenvalues --   -0.37498  -0.36507
 Alpha virt. eigenvalues --    0.04794   0.11139   0.16281   0.20962   0.23866
 Alpha virt. eigenvalues --    0.24838   0.26642   0.27527   0.28139   0.29045
 Alpha virt. eigenvalues --    0.29110   0.30579   0.31536   0.32502   0.32874

 Mulliken charges:
               1
     1  C   -0.308386
     2  C   -0.296150
     3  C   -0.477754
     4  H    0.175372
     5  H    0.141238
     6  H    0.154951
     7  H    0.146420
     8  H    0.151745
     9  H    0.156819
    10  H    0.153840
    11  C   -0.296641
    12  C   -0.301661
    13  C   -0.475053
    14  H    0.152690
    15  H    0.143049
    16  H    0.162687
    17  H    0.146965
    18  H    0.151179
    19  H    0.155810
    20  H    0.157530
    21  C   -0.170313
    22  C   -0.218622
    23  C   -0.170443
    24  C    0.157809
    25  C   -0.171862
    26  C   -0.218721
    27  H    0.226314
    28  H    0.224059
    29  H    0.275919
    30  H    0.277491
    31  H    0.224447
    32  N    0.489578
    33  O   -0.462086
    34  O   -0.458221
 Sum of Mulliken charges =  -0.00000

 Dipole moment (field-independent basis, Debye):
    X=             -5.1472    Y=              1.6950    Z=              0.8106  Tot=              5.4794
 Quadrupole moment (field-independent basis, Debye-Ang):
   XX=            -71.2260   YY=            -93.6093   ZZ=            -95.3566
   XY=             -0.5880   XZ=             -1.7953   YZ=             -2.2651

 Normal termination of Gaussian 16 at Thu May  6 07:14:54 2021.
