 Gaussian 16, Revision A.03,
 Gaussian 16:  EM64L-G16RevA.03 25-Dec-2016

 -------------
 #p 6-31g* mp2
 -------------

 ------------------------------------------------------
 Input file generated by CHIRIPA (05-May-2021 14:55:22)
 ------------------------------------------------------
 Symbolic Z-matrix:
 Charge =  0 Multiplicity = 1

                         Standard orientation:
 ---------------------------------------------------------------------
 Center     Atomic      Atomic             Coordinates (Angstroms)
 Number     Number       Type             X           Y           Z
 ---------------------------------------------------------------------
      1          6           0        3.919601   -1.455700   -1.083996
      2          6           0        4.094210   -0.098847   -0.792478
      3          6           0        3.179867    0.575757    0.022036
      4          6           0        2.097416   -0.140572    0.530429
      5          6           0        1.896094   -1.492839    0.258157
      6          6           0        2.823034   -2.147147   -0.558674
      7          1           0        4.634777   -1.971865   -1.717630
      8          1           0        4.944886    0.440676   -1.199062
      9          1           0        3.290906    1.625833    0.263756
     10          1           0        1.038268   -2.003936    0.678077
     11          1           0        2.684900   -3.200934   -0.783390
     12          7           0        1.122774    0.562858    1.393945
     13          8           0        0.177433   -0.090793    1.829500
     14          8           0        1.322646    1.754537    1.618864
     15          6           0       -3.463262    0.082260   -0.055648
     16          6           0       -3.995878   -1.291658   -0.463882
     17          6           0       -5.141814   -1.770334    0.428023
     18          1           0       -3.124624    0.041693    0.988681
     19          1           0       -4.284770    0.811203   -0.089763
     20          1           0       -3.173305   -2.017513   -0.430342
     21          1           0       -4.333111   -1.247867   -1.507420
     22          1           0       -5.980926   -1.068326    0.387083
     23          1           0       -4.814532   -1.842345    1.470281
     24          1           0       -5.507357   -2.754409    0.118453
     25          6           0       -2.317343    0.574395   -0.937917
     26          6           0       -1.784727    1.948312   -0.529683
     27          6           0       -0.638791    2.426988   -1.421588
     28          1           0       -1.495835   -0.154548   -0.903802
     29          1           0       -2.655980    0.614961   -1.982246
     30          1           0       -1.447494    1.904522    0.513855
     31          1           0       -2.607299    2.674168   -0.563223
     32          1           0       -0.966073    2.499000   -2.463846
     33          1           0        0.200321    1.724980   -1.380648
     34          1           0       -0.273248    3.411064   -1.112017
 ---------------------------------------------------------------------

 SCF Done:  E(RHF) =  -669.536629113     A.U. after   15 cycles
 E2 =    -0.2094247474D+01 EUMP2 =    -0.67163087658728D+03

 The electronic state is 1-A.
 Alpha  occ. eigenvalues --  -20.61111 -20.61103 -15.86084 -11.31375 -11.27922
 Alpha  occ. eigenvalues --  -11.27912 -11.27641 -11.26911 -11.26901 -11.20957
 Alpha  occ. eigenvalues --  -11.20507 -11.20501 -11.20413 -11.20393 -11.20291
 Alpha  occ. eigenvalues --   -1.60140  -1.39696  -1.19530  -1.08943  -1.07539
 Alpha  occ. eigenvalues --   -1.04912  -1.02717  -0.95791  -0.95194  -0.86318
 Alpha  occ. eigenvalues --   -0.86217  -0.82627  -0.78775  -0.77693  -0.77333
 Alpha  occ. eigenvalues --   -0.72316  -0.71520  -0.70630  -0.65183  -0.64911
 Alpha  occ. eigenvalues --   -0.64110  -0.62257  -0.60082  -0.58561  -0.56792
 Alpha  occ. eigenvalues --   -0.55417  -0.54513  -0.53252  -0.53000  -0.51909
 Alpha  occ. eigenvalues --   -0.51627  -0.49256  -0.49105  -0.49030  -0.47093
 Alpha  occ. eigenvalues --   -0.45778  -0.45135  -0.44841  -0.44706  -0.42941
 Alpha  occ. eigenvalues --   -0.37478  -0.36502
 Alpha virt. eigenvalues --    0.04775   0.11076   0.16235   0.21192   0.23528
 Alpha virt. eigenvalues --    0.24848   0.26746   0.27367   0.28309   0.28478
 Alpha virt. eigenvalues --    0.28776   0.31070   0.31773   0.32457   0.32597

 Mulliken charges:
               1
     1  C   -0.170217
     2  C   -0.218316
     3  C   -0.170691
     4  C    0.158850
     5  C   -0.171651
     6  C   -0.218396
     7  H    0.226455
     8  H    0.224394
     9  H    0.276720
    10  H    0.275954
    11  H    0.224315
    12  N    0.490244
    13  O   -0.460509
    14  O   -0.457214
    15  C   -0.301380
    16  C   -0.297821
    17  C   -0.475576
    18  H    0.164478
    19  H    0.146361
    20  H    0.147627
    21  H    0.148244
    22  H    0.154420
    23  H    0.157422
    24  H    0.156364
    25  C   -0.293287
    26  C   -0.313092
    27  C   -0.472535
    28  H    0.143086
    29  H    0.142955
    30  H    0.179005
    31  H    0.148145
    32  H    0.149024
    33  H    0.143208
    34  H    0.163417
 Sum of Mulliken charges =  -0.00000

 Dipole moment (field-independent basis, Debye):
    X=              3.6707    Y=             -2.4339    Z=             -2.7544  Tot=              5.1947
 Quadrupole moment (field-independent basis, Debye-Ang):
   XX=            -79.9319   YY=            -90.7419   ZZ=            -98.9319
   XY=             -4.2156   XZ=             -4.7193   YZ=             -0.9761

 Normal termination of Gaussian 16 at Thu May  6 10:58:46 2021.
