 Gaussian 16, Revision A.03,
 Gaussian 16:  EM64L-G16RevA.03 25-Dec-2016

 -------------
 #p 6-31g* mp2
 -------------

 ------------------------------------------------------
 Input file generated by CHIRIPA (05-May-2021 14:55:23)
 ------------------------------------------------------
 Symbolic Z-matrix:
 Charge =  0 Multiplicity = 1

                         Standard orientation:
 ---------------------------------------------------------------------
 Center     Atomic      Atomic             Coordinates (Angstroms)
 Number     Number       Type             X           Y           Z
 ---------------------------------------------------------------------
      1          6           0       -1.378997   -1.479972    2.147845
      2          6           0       -2.219212   -2.084064    1.206765
      3          6           0       -2.654575   -1.373647    0.084128
      4          6           0       -2.228427   -0.054956   -0.066673
      5          6           0       -1.391532    0.574661    0.853371
      6          6           0       -0.968562   -0.154873    1.968460
      7          1           0       -1.045610   -2.039266    3.017005
      8          1           0       -2.539554   -3.113011    1.343494
      9          1           0       -3.305246   -1.816836   -0.659935
     10          1           0       -1.088983    1.601863    0.689858
     11          1           0       -0.316062    0.316839    2.697690
     12          7           0       -2.682767    0.707250   -1.251163
     13          8           0       -2.293161    1.867754   -1.361042
     14          8           0       -3.419881    0.129730   -2.047260
     15          6           0        3.226108   -0.242629   -0.536670
     16          6           0        2.760663   -1.698945   -0.514530
     17          6           0        3.710419   -2.634548   -1.263133
     18          1           0        3.323165    0.088819   -1.579583
     19          1           0        4.229694   -0.178959   -0.093777
     20          1           0        1.757682   -1.759647   -0.956074
     21          1           0        2.664519   -2.026908    0.528453
     22          1           0        4.710806   -2.603605   -0.819435
     23          1           0        3.798818   -2.334827   -2.312397
     24          1           0        3.358579   -3.670531   -1.234717
     25          6           0        2.286972    0.704906    0.207594
     26          6           0        2.752416    2.161221    0.185453
     27          6           0        1.802661    3.096823    0.934056
     28          1           0        1.283386    0.641235   -0.235300
     29          1           0        2.189915    0.373457    1.250506
     30          1           0        2.848561    2.489183   -0.857531
     31          1           0        3.755398    2.221924    0.626996
     32          1           0        1.714262    2.797103    1.983319
     33          1           0        0.802274    3.065881    0.490358
     34          1           0        2.154500    4.132807    0.905639
 ---------------------------------------------------------------------

 SCF Done:  E(RHF) =  -669.534351745     A.U. after   15 cycles
 E2 =    -0.2094149555D+01 EUMP2 =    -0.67162850130032D+03

 The electronic state is 1-A.
 Alpha  occ. eigenvalues --  -20.60795 -20.60788 -15.85844 -11.31167 -11.27731
 Alpha  occ. eigenvalues --  -11.27690 -11.27466 -11.26743 -11.26708 -11.21904
 Alpha  occ. eigenvalues --  -11.21829 -11.21670 -11.21599 -11.21586 -11.21261
 Alpha  occ. eigenvalues --   -1.59869  -1.39424  -1.19343  -1.08749  -1.08712
 Alpha  occ. eigenvalues --   -1.04741  -1.03836  -0.96301  -0.95586  -0.87323
 Alpha  occ. eigenvalues --   -0.86141  -0.82423  -0.79906  -0.78574  -0.77436
 Alpha  occ. eigenvalues --   -0.72063  -0.71194  -0.70462  -0.65393  -0.64989
 Alpha  occ. eigenvalues --   -0.64704  -0.62133  -0.61206  -0.59649  -0.57928
 Alpha  occ. eigenvalues --   -0.55614  -0.55232  -0.53218  -0.52957  -0.52894
 Alpha  occ. eigenvalues --   -0.52601  -0.50247  -0.48823  -0.48817  -0.48214
 Alpha  occ. eigenvalues --   -0.46909  -0.46076  -0.45971  -0.44829  -0.44071
 Alpha  occ. eigenvalues --   -0.37319  -0.36228
 Alpha virt. eigenvalues --    0.05048   0.11190   0.16522   0.19955   0.22869
 Alpha virt. eigenvalues --    0.23822   0.25109   0.26145   0.27306   0.28298
 Alpha virt. eigenvalues --    0.29064   0.30205   0.31498   0.31604   0.32189

 Mulliken charges:
               1
     1  C   -0.171269
     2  C   -0.218525
     3  C   -0.170905
     4  C    0.157359
     5  C   -0.177321
     6  C   -0.216744
     7  H    0.225340
     8  H    0.223271
     9  H    0.275337
    10  H    0.284910
    11  H    0.224374
    12  N    0.487650
    13  O   -0.461997
    14  O   -0.460114
    15  C   -0.298614
    16  C   -0.299099
    17  C   -0.475889
    18  H    0.153219
    19  H    0.148877
    20  H    0.154601
    21  H    0.147389
    22  H    0.154820
    23  H    0.157492
    24  H    0.159429
    25  C   -0.302076
    26  C   -0.298949
    27  C   -0.483514
    28  H    0.156562
    29  H    0.141055
    30  H    0.157991
    31  H    0.152088
    32  H    0.147150
    33  H    0.159473
    34  H    0.166631
 Sum of Mulliken charges =  -0.00000

 Dipole moment (field-independent basis, Debye):
    X=              1.6520    Y=             -2.6462    Z=              4.0740  Tot=              5.1312
 Quadrupole moment (field-independent basis, Debye-Ang):
   XX=           -101.2868   YY=            -91.9650   ZZ=            -95.0088
   XY=              8.9355   XZ=             -8.0930   YZ=              0.6632

 Normal termination of Gaussian 16 at Thu May  6 12:36:20 2021.
