 Gaussian 16, Revision A.03,
 Gaussian 16:  EM64L-G16RevA.03 25-Dec-2016

 -------------
 #p 6-31g* mp2
 -------------

 ------------------------------------------------------
 Input file generated by CHIRIPA (05-May-2021 14:55:21)
 ------------------------------------------------------
 Symbolic Z-matrix:
 Charge =  0 Multiplicity = 1

                         Standard orientation:
 ---------------------------------------------------------------------
 Center     Atomic      Atomic             Coordinates (Angstroms)
 Number     Number       Type             X           Y           Z
 ---------------------------------------------------------------------
      1          6           0        1.405098   -0.197975    1.723466
      2          6           0        1.940051   -1.409342    1.272983
      3          6           0        3.041901   -1.422630    0.412577
      4          6           0        3.586271   -0.200528    0.020889
      5          6           0        3.075921    1.022808    0.452492
      6          6           0        1.973737    1.012101    1.312507
      7          1           0        0.549025   -0.196973    2.391698
      8          1           0        1.500489   -2.350627    1.590496
      9          1           0        3.476018   -2.345941    0.048631
     10          1           0        3.535713    1.945073    0.118671
     11          1           0        1.560379    1.954383    1.660765
     12          7           0        4.752926   -0.201894   -0.889777
     13          8           0        5.214267    0.888333   -1.220242
     14          8           0        5.183919   -1.293165   -1.255849
     15          6           0       -4.997174    0.132403   -0.595453
     16          6           0       -5.952905   -0.807002    0.140807
     17          6           0       -7.254550   -1.045282   -0.625180
     18          1           0       -5.500951    1.092462   -0.772774
     19          1           0       -4.769797   -0.288654   -1.584596
     20          1           0       -6.177319   -0.384979    1.128812
     21          1           0       -5.446727   -1.764868    0.316566
     22          1           0       -7.049350   -1.488732   -1.604897
     23          1           0       -7.784093   -0.101003   -0.788037
     24          1           0       -7.923014   -1.719613   -0.080852
     25          6           0       -3.691445    0.380372    0.157750
     26          6           0       -2.735714    1.319778   -0.578511
     27          6           0       -1.434069    1.558058    0.187477
     28          1           0       -3.918820    0.801430    1.146893
     29          1           0       -3.187666   -0.579685    0.335071
     30          1           0       -3.241891    2.277644   -0.754269
     31          1           0       -2.511299    0.897756   -1.566514
     32          1           0       -0.904525    0.613779    0.350334
     33          1           0       -1.639268    2.001508    1.167195
     34          1           0       -0.765604    2.232390   -0.356850
 ---------------------------------------------------------------------

 SCF Done:  E(RHF) =  -669.534464805     A.U. after   15 cycles
 E2 =    -0.2092410173D+01 EUMP2 =    -0.67162687497773D+03

 The electronic state is 1-A.
 Alpha  occ. eigenvalues --  -20.60749 -20.60743 -15.85802 -11.31164 -11.27742
 Alpha  occ. eigenvalues --  -11.27715 -11.27445 -11.26760 -11.26709 -11.22166
 Alpha  occ. eigenvalues --  -11.22032 -11.21979 -11.21833 -11.21773 -11.21420
 Alpha  occ. eigenvalues --   -1.59824  -1.39378  -1.19344  -1.08959  -1.08739
 Alpha  occ. eigenvalues --   -1.04744  -1.04053  -0.96533  -0.95570  -0.87562
 Alpha  occ. eigenvalues --   -0.86130  -0.82403  -0.80135  -0.78767  -0.77444
 Alpha  occ. eigenvalues --   -0.72021  -0.71148  -0.70459  -0.65582  -0.64992
 Alpha  occ. eigenvalues --   -0.64740  -0.62088  -0.61456  -0.59887  -0.58139
 Alpha  occ. eigenvalues --   -0.55873  -0.55233  -0.53448  -0.53104  -0.52816
 Alpha  occ. eigenvalues --   -0.52713  -0.50436  -0.48779  -0.48775  -0.48441
 Alpha  occ. eigenvalues --   -0.47148  -0.46313  -0.46224  -0.44785  -0.44311
 Alpha  occ. eigenvalues --   -0.37232  -0.36327
 Alpha virt. eigenvalues --    0.05052   0.11266   0.16460   0.20888   0.22440
 Alpha virt. eigenvalues --    0.23927   0.25989   0.26502   0.26928   0.27728
 Alpha virt. eigenvalues --    0.29117   0.30405   0.30946   0.31625   0.31855

 Mulliken charges:
               1
     1  C   -0.172794
     2  C   -0.220366
     3  C   -0.170897
     4  C    0.158589
     5  C   -0.172728
     6  C   -0.212351
     7  H    0.227627
     8  H    0.223242
     9  H    0.275452
    10  H    0.275403
    11  H    0.225370
    12  N    0.488087
    13  O   -0.460481
    14  O   -0.460614
    15  C   -0.298613
    16  C   -0.299820
    17  C   -0.475983
    18  H    0.151006
    19  H    0.151205
    20  H    0.151583
    21  H    0.151171
    22  H    0.156153
    23  H    0.155982
    24  H    0.160992
    25  C   -0.298419
    26  C   -0.299977
    27  C   -0.481601
    28  H    0.148058
    29  H    0.146818
    30  H    0.153437
    31  H    0.155459
    32  H    0.159667
    33  H    0.147715
    34  H    0.161629
 Sum of Mulliken charges =  -0.00000

 Dipole moment (field-independent basis, Debye):
    X=             -4.1842    Y=              0.0053    Z=              3.1637  Tot=              5.2457
 Quadrupole moment (field-independent basis, Debye-Ang):
   XX=           -125.6128   YY=            -89.2379   ZZ=            -95.3574
   XY=              0.4151   XZ=             11.0913   YZ=             -0.3434

 Normal termination of Gaussian 16 at Thu May  6 03:01:48 2021.
