 Gaussian 16, Revision A.03,
 Gaussian 16:  EM64L-G16RevA.03 25-Dec-2016

 -------------
 #p 6-31g* mp2
 -------------

 ------------------------------------------------------
 Input file generated by CHIRIPA (05-May-2021 14:57:23)
 ------------------------------------------------------
 Symbolic Z-matrix:
 Charge =  0 Multiplicity = 1

                         Standard orientation:
 ---------------------------------------------------------------------
 Center     Atomic      Atomic             Coordinates (Angstroms)
 Number     Number       Type             X           Y           Z
 ---------------------------------------------------------------------
      1          6           0       -1.351710   -2.285376    0.820809
      2          6           0       -2.054589   -2.213565   -0.386388
      3          6           0       -2.770130   -1.060895   -0.723880
      4          6           0       -2.761155    0.006015    0.173290
      5          6           0       -2.070635   -0.035092    1.383571
      6          6           0       -1.361958   -1.197828    1.700385
      7          1           0       -0.798527   -3.184708    1.074949
      8          1           0       -2.048405   -3.056630   -1.071405
      9          1           0       -3.322901   -0.978442   -1.651815
     10          1           0       -2.095496    0.821536    2.046134
     11          1           0       -0.816997   -1.250782    2.638606
     12          7           0       -3.515033    1.231623   -0.173052
     13          8           0       -3.491341    2.157879    0.634491
     14          8           0       -4.115339    1.242792   -1.245500
     15          6           0        2.924404    2.682146    0.089388
     16          6           0        3.862024    1.794195    0.626912
     17          6           0        3.712807    0.414684    0.455943
     18          6           0        2.609113   -0.044373   -0.261284
     19          6           0        1.657879    0.814997   -0.808942
     20          6           0        1.827258    2.190580   -0.625562
     21          1           0        3.048150    3.752258    0.227021
     22          1           0        4.715059    2.173113    1.182606
     23          1           0        4.423628   -0.295080    0.861390
     24          1           0        0.817842    0.407349   -1.358105
     25          1           0        1.097511    2.877833   -1.044131
     26          7           0        2.440472   -1.502721   -0.448851
     27          8           0        1.459409   -1.881888   -1.084764
     28          8           0        3.292547   -2.238994    0.043601
 ---------------------------------------------------------------------

 SCF Done:  E(RHF) =  -868.339882403     A.U. after   16 cycles
 E2 =    -0.2600631946D+01 EUMP2 =    -0.87094051434850D+03

 The electronic state is 1-A.
 Alpha  occ. eigenvalues --  -20.61344 -20.61319 -20.60717 -20.60700 -15.86349
 Alpha  occ. eigenvalues --  -15.85757 -11.31473 -11.30854 -11.28039 -11.27971
 Alpha  occ. eigenvalues --  -11.27693 -11.27443 -11.27361 -11.26990 -11.26938
 Alpha  occ. eigenvalues --  -11.26905 -11.26319 -11.26192  -1.60408  -1.59802
 Alpha  occ. eigenvalues --   -1.39964  -1.39359  -1.19623  -1.18989  -1.09062
 Alpha  occ. eigenvalues --   -1.08389  -1.04980  -1.04346  -0.95941  -0.95278
 Alpha  occ. eigenvalues --   -0.86385  -0.85736  -0.82777  -0.82127  -0.77853
 Alpha  occ. eigenvalues --   -0.77242  -0.72601  -0.71972  -0.71733  -0.71140
 Alpha  occ. eigenvalues --   -0.70715  -0.70002  -0.65272  -0.64965  -0.64613
 Alpha  occ. eigenvalues --   -0.64314  -0.62323  -0.61707  -0.55483  -0.54743
 Alpha  occ. eigenvalues --   -0.53342  -0.53080  -0.52662  -0.52415  -0.49359
 Alpha  occ. eigenvalues --   -0.49333  -0.48746  -0.48705  -0.45430  -0.44825
 Alpha  occ. eigenvalues --   -0.37604  -0.36813  -0.36606  -0.35906
 Alpha virt. eigenvalues --    0.04593   0.05316   0.11074   0.11732   0.16161
 Alpha virt. eigenvalues --    0.16933   0.21265   0.21973   0.27168   0.27796
 Alpha virt. eigenvalues --    0.28077   0.28892   0.30853   0.31604   0.32209

 Mulliken charges:
               1
     1  C   -0.158255
     2  C   -0.209314
     3  C   -0.176936
     4  C    0.152301
     5  C   -0.173421
     6  C   -0.225239
     7  H    0.233898
     8  H    0.228185
     9  H    0.273735
    10  H    0.271827
    11  H    0.221989
    12  N    0.487343
    13  O   -0.464346
    14  O   -0.461825
    15  C   -0.170357
    16  C   -0.219197
    17  C   -0.172411
    18  C    0.156147
    19  C   -0.169937
    20  C   -0.219682
    21  H    0.228221
    22  H    0.223954
    23  H    0.274406
    24  H    0.277265
    25  H    0.229908
    26  N    0.487390
    27  O   -0.463154
    28  O   -0.462496
 Sum of Mulliken charges =  -0.00000

 Dipole moment (field-independent basis, Debye):
    X=              3.3977    Y=              0.6292    Z=              1.8128  Tot=              3.9021
 Quadrupole moment (field-independent basis, Debye-Ang):
   XX=           -114.2436   YY=           -104.4997   ZZ=           -100.6323
   XY=             26.2781   XZ=              2.7289   YZ=             -0.6224

 Normal termination of Gaussian 16 at Thu May  6 12:56:15 2021.
