 Gaussian 16, Revision A.03,
 Gaussian 16:  EM64L-G16RevA.03 25-Dec-2016

 -------------
 #p 6-31g* mp2
 -------------

 ------------------------------------------------------
 Input file generated by CHIRIPA (05-May-2021 14:55:22)
 ------------------------------------------------------
 Symbolic Z-matrix:
 Charge =  0 Multiplicity = 1

                         Standard orientation:
 ---------------------------------------------------------------------
 Center     Atomic      Atomic             Coordinates (Angstroms)
 Number     Number       Type             X           Y           Z
 ---------------------------------------------------------------------
      1          6           0        2.855832    2.168580   -0.905635
      2          6           0        4.051195    1.449975   -1.011635
      3          6           0        4.130788    0.132395   -0.550987
      4          6           0        2.990590   -0.438088    0.012740
      5          6           0        1.785230    0.251898    0.132381
      6          6           0        1.728651    1.568306   -0.334971
      7          1           0        2.802942    3.191652   -1.266081
      8          1           0        4.928165    1.913605   -1.454372
      9          1           0        5.043500   -0.446845   -0.620668
     10          1           0        0.927745   -0.237153    0.578439
     11          1           0        0.798986    2.123981   -0.251353
     12          7           0        3.062669   -1.832331    0.503955
     13          8           0        2.044035   -2.312232    0.996618
     14          8           0        4.136434   -2.418837    0.387006
     15          6           0       -4.114502   -0.427257    0.191754
     16          6           0       -4.873586   -0.948370   -1.028991
     17          6           0       -5.471470   -2.337609   -0.804623
     18          1           0       -3.314493   -1.135306    0.447876
     19          1           0       -4.795266   -0.399614    1.053839
     20          1           0       -4.191956   -0.973713   -1.888848
     21          1           0       -5.671758   -0.238902   -1.282352
     22          1           0       -6.172782   -2.324016    0.035959
     23          1           0       -4.684571   -3.063003   -0.573982
     24          1           0       -6.009632   -2.690807   -1.689774
     25          6           0       -3.510998    0.960506   -0.017114
     26          6           0       -2.751914    1.481619    1.203631
     27          6           0       -2.154029    2.870858    0.979263
     28          1           0       -2.830233    0.932862   -0.879199
     29          1           0       -4.311006    1.668555   -0.273236
     30          1           0       -1.953741    0.772151    1.456993
     31          1           0       -3.433543    1.506962    2.063488
     32          1           0       -2.940928    3.596252    0.748622
     33          1           0       -1.452717    2.857267    0.138681
     34          1           0       -1.615867    3.224055    1.864414
 ---------------------------------------------------------------------

 SCF Done:  E(RHF) =  -669.535524650     A.U. after   15 cycles
 E2 =    -0.2091238606D+01 EUMP2 =    -0.67162676325595D+03

 The electronic state is 1-A.
 Alpha  occ. eigenvalues --  -20.60761 -20.60756 -15.85814 -11.31169 -11.27735
 Alpha  occ. eigenvalues --  -11.27732 -11.27469 -11.26751 -11.26708 -11.22318
 Alpha  occ. eigenvalues --  -11.22041 -11.21905 -11.21788 -11.21650 -11.21130
 Alpha  occ. eigenvalues --   -1.59837  -1.39391  -1.19338  -1.08878  -1.08734
 Alpha  occ. eigenvalues --   -1.04740  -1.03999  -0.96455  -0.95572  -0.87475
 Alpha  occ. eigenvalues --   -0.86138  -0.82405  -0.80075  -0.78632  -0.77457
 Alpha  occ. eigenvalues --   -0.72032  -0.71159  -0.70449  -0.65541  -0.64988
 Alpha  occ. eigenvalues --   -0.64753  -0.62167  -0.61332  -0.59843  -0.58036
 Alpha  occ. eigenvalues --   -0.55789  -0.55221  -0.53165  -0.53069  -0.52948
 Alpha  occ. eigenvalues --   -0.52748  -0.50384  -0.48790  -0.48788  -0.48375
 Alpha  occ. eigenvalues --   -0.47111  -0.46182  -0.46079  -0.44798  -0.44226
 Alpha  occ. eigenvalues --   -0.37319  -0.36342
 Alpha virt. eigenvalues --    0.05078   0.11309   0.16571   0.18712   0.22890
 Alpha virt. eigenvalues --    0.23797   0.25172   0.25747   0.27280   0.28557
 Alpha virt. eigenvalues --    0.28874   0.30134   0.31174   0.31512   0.32363

 Mulliken charges:
               1
     1  C   -0.172811
     2  C   -0.218489
     3  C   -0.171071
     4  C    0.159072
     5  C   -0.175468
     6  C   -0.225698
     7  H    0.226209
     8  H    0.223318
     9  H    0.275470
    10  H    0.276344
    11  H    0.234818
    12  N    0.488069
    13  O   -0.460785
    14  O   -0.460469
    15  C   -0.299571
    16  C   -0.299976
    17  C   -0.476454
    18  H    0.153192
    19  H    0.151032
    20  H    0.152194
    21  H    0.151483
    22  H    0.155500
    23  H    0.158379
    24  H    0.160892
    25  C   -0.298473
    26  C   -0.301673
    27  C   -0.480492
    28  H    0.146828
    29  H    0.151196
    30  H    0.150036
    31  H    0.157561
    32  H    0.160968
    33  H    0.145681
    34  H    0.163190
 Sum of Mulliken charges =  -0.00000

 Dipole moment (field-independent basis, Debye):
    X=             -0.4349    Y=              4.8858    Z=             -1.6872  Tot=              5.1872
 Quadrupole moment (field-independent basis, Debye-Ang):
   XX=            -90.4687   YY=           -100.4210   ZZ=            -95.0240
   XY=             13.8590   XZ=             -7.3237   YZ=              1.1258

 Normal termination of Gaussian 16 at Thu May  6 12:33:55 2021.
