 Gaussian 16, Revision A.03,
 Gaussian 16:  EM64L-G16RevA.03 25-Dec-2016

 -------------
 #p 6-31g* mp2
 -------------

 ------------------------------------------------------
 Input file generated by CHIRIPA (05-May-2021 14:51:08)
 ------------------------------------------------------
 Symbolic Z-matrix:
 Charge =  0 Multiplicity = 1

                         Standard orientation:
 ---------------------------------------------------------------------
 Center     Atomic      Atomic             Coordinates (Angstroms)
 Number     Number       Type             X           Y           Z
 ---------------------------------------------------------------------
      1          6           0        3.861610    0.608363    0.341929
      2          6           0        4.257303    1.398556   -0.905871
      3          6           0        5.090265    2.638813   -0.580706
      4          1           0        3.297162    1.263605    1.019426
      5          1           0        4.770807    0.309387    0.881717
      6          1           0        3.347676    1.694765   -1.443881
      7          1           0        4.820710    0.741303   -1.580562
      8          1           0        6.013857    2.358036   -0.064233
      9          1           0        4.532453    3.316915    0.073224
     10          1           0        5.362141    3.188771   -1.487067
     11          6           0        3.028561   -0.634376    0.033130
     12          6           0        2.632868   -1.424570    1.280930
     13          6           0        1.799906   -2.664826    0.955765
     14          1           0        2.119364   -0.335401   -0.506658
     15          1           0        3.593009   -1.289618   -0.644367
     16          1           0        2.069461   -0.767317    1.955621
     17          1           0        3.542495   -1.720778    1.818940
     18          1           0        2.357718   -3.342928    0.301835
     19          1           0        0.876314   -2.384049    0.439292
     20          1           0        1.528030   -3.214784    1.862126
     21          6           0       -4.033593    0.496474   -0.245412
     22          6           0       -3.928442    1.695382    0.697746
     23          6           0       -5.113143    2.653517    0.570256
     24          1           0       -4.105267    0.857513   -1.280525
     25          1           0       -4.967458   -0.043956   -0.037504
     26          1           0       -2.994383    2.232595    0.489056
     27          1           0       -3.856817    1.331442    1.730720
     28          1           0       -6.051669    2.138235    0.798849
     29          1           0       -5.184335    3.044508   -0.449871
     30          1           0       -5.017549    3.503267    1.253371
     31          6           0       -2.856578   -0.470461   -0.129646
     32          6           0       -2.961729   -1.669369   -1.072806
     33          6           0       -1.777028   -2.627503   -0.945315
     34          1           0       -1.922713    0.069970   -0.337555
     35          1           0       -2.784905   -0.831499    0.905466
     36          1           0       -3.033354   -1.305429   -2.105779
     37          1           0       -3.895788   -2.206581   -0.864114
     38          1           0       -1.705837   -3.018496    0.074812
     39          1           0       -0.838502   -2.112222   -1.173908
     40          1           0       -1.872622   -3.477254   -1.628430
 ---------------------------------------------------------------------

 SCF Done:  E(RHF) =  -470.732912031     A.U. after   11 cycles
 E2 =    -0.1582753157D+01 EUMP2 =    -0.47231566518789D+03

 The electronic state is 1-A.
 Alpha  occ. eigenvalues --  -11.21637 -11.21636 -11.21596 -11.21525 -11.21451
 Alpha  occ. eigenvalues --  -11.21390 -11.21384 -11.21325 -11.21098 -11.21096
 Alpha  occ. eigenvalues --  -11.21067 -11.20884  -1.08473  -1.08396  -1.03577
 Alpha  occ. eigenvalues --   -1.03472  -0.96044  -0.95906  -0.87086  -0.86900
 Alpha  occ. eigenvalues --   -0.79692  -0.79493  -0.78297  -0.78201  -0.65107
 Alpha  occ. eigenvalues --   -0.65025  -0.60987  -0.60874  -0.59389  -0.59297
 Alpha  occ. eigenvalues --   -0.57738  -0.57468  -0.55334  -0.55203  -0.52728
 Alpha  occ. eigenvalues --   -0.52650  -0.52590  -0.52179  -0.49991  -0.49842
 Alpha  occ. eigenvalues --   -0.48107  -0.47695  -0.46689  -0.46532  -0.45885
 Alpha  occ. eigenvalues --   -0.45761  -0.45721  -0.45553  -0.43823  -0.43741
 Alpha virt. eigenvalues --    0.21633   0.23129   0.23574   0.24952   0.25904
 Alpha virt. eigenvalues --    0.26627   0.27095   0.27545   0.27912   0.29186
 Alpha virt. eigenvalues --    0.30677   0.31415   0.31625   0.31840   0.32159

 Mulliken charges:
               1
     1  C   -0.298255
     2  C   -0.299570
     3  C   -0.475688
     4  H    0.149625
     5  H    0.149677
     6  H    0.151531
     7  H    0.151957
     8  H    0.155242
     9  H    0.155141
    10  H    0.160166
    11  C   -0.298187
    12  C   -0.299210
    13  C   -0.483804
    14  H    0.148154
    15  H    0.149690
    16  H    0.151585
    17  H    0.151382
    18  H    0.154271
    19  H    0.165812
    20  H    0.158926
    21  C   -0.298227
    22  C   -0.299658
    23  C   -0.475739
    24  H    0.149759
    25  H    0.149771
    26  H    0.151714
    27  H    0.152022
    28  H    0.155294
    29  H    0.155238
    30  H    0.160334
    31  C   -0.298403
    32  C   -0.299713
    33  C   -0.479492
    34  H    0.148503
    35  H    0.149909
    36  H    0.151990
    37  H    0.152157
    38  H    0.157554
    39  H    0.157485
    40  H    0.161056
 Sum of Mulliken charges =  -0.00000

 Dipole moment (field-independent basis, Debye):
    X=             -0.0550    Y=             -0.0182    Z=             -0.0157  Tot=              0.0600
 Quadrupole moment (field-independent basis, Debye-Ang):
   XX=            -84.8116   YY=            -85.6577   ZZ=            -84.2952
   XY=             -0.0640   XZ=             -0.5015   YZ=             -0.3649

 Normal termination of Gaussian 16 at Thu May  6 02:06:13 2021.
