 Gaussian 16, Revision A.03,
 Gaussian 16:  EM64L-G16RevA.03 25-Dec-2016

 -------------
 #p 6-31g* mp2
 -------------

 ------------------------------------------------------
 Input file generated by CHIRIPA (05-May-2021 14:53:12)
 ------------------------------------------------------
 Symbolic Z-matrix:
 Charge =  0 Multiplicity = 1

                         Standard orientation:
 ---------------------------------------------------------------------
 Center     Atomic      Atomic             Coordinates (Angstroms)
 Number     Number       Type             X           Y           Z
 ---------------------------------------------------------------------
      1          6           0        3.411787    1.317179    0.121017
      2          6           0        1.999298    1.846017    0.372394
      3          6           0        1.956037    3.366645    0.526057
      4          1           0        4.063689    1.621953    0.951126
      5          1           0        3.817012    1.789814   -0.784413
      6          1           0        1.596331    1.371488    1.276305
      7          1           0        1.350637    1.539786   -0.458316
      8          1           0        2.333014    3.856060   -0.377802
      9          1           0        2.580104    3.686806    1.366674
     10          1           0        0.936882    3.723239    0.705009
     11          6           0        3.471331   -0.201347   -0.034749
     12          6           0        4.883820   -0.730185   -0.286125
     13          6           0        4.927081   -2.250813   -0.439789
     14          1           0        3.066105   -0.673981    0.870681
     15          1           0        2.819428   -0.506120   -0.864858
     16          1           0        5.532480   -0.423953    0.544584
     17          1           0        5.286786   -0.255655   -1.190037
     18          1           0        4.303013   -2.570974   -1.280406
     19          1           0        4.550103   -2.740228    0.464071
     20          1           0        5.946236   -2.607406   -0.618741
     21          6           0       -4.172895    1.564256   -0.436969
     22          6           0       -2.785740    1.683421   -0.571580
     23          6           0       -1.953714    0.581860   -0.350577
     24          6           0       -2.545233   -0.629237    0.005288
     25          6           0       -3.923818   -0.779656    0.147297
     26          6           0       -4.736513    0.335265   -0.078592
     27          1           0       -4.811725    2.425165   -0.610547
     28          1           0       -2.345254    2.636635   -0.849791
     29          1           0       -0.876761    0.646149   -0.447825
     30          1           0       -4.333706   -1.742905    0.425795
     31          1           0       -5.813476    0.239789    0.026680
     32          7           0       -1.674637   -1.802483    0.241840
     33          8           0       -2.220426   -2.858452    0.554375
     34          8           0       -0.462958   -1.643887    0.110237
 ---------------------------------------------------------------------

 SCF Done:  E(RHF) =  -669.535639305     A.U. after   15 cycles
 E2 =    -0.2091729323D+01 EUMP2 =    -0.67162736862874D+03

 The electronic state is 1-A.
 Alpha  occ. eigenvalues --  -20.60758 -20.60753 -15.85806 -11.31148 -11.27733
 Alpha  occ. eigenvalues --  -11.27680 -11.27478 -11.26746 -11.26728 -11.21739
 Alpha  occ. eigenvalues --  -11.21342 -11.21184 -11.21063 -11.20730 -11.20410
 Alpha  occ. eigenvalues --   -1.59831  -1.39384  -1.19328  -1.08730  -1.08129
 Alpha  occ. eigenvalues --   -1.04730  -1.03298  -0.95720  -0.95566  -0.86739
 Alpha  occ. eigenvalues --   -0.86130  -0.82397  -0.79424  -0.77869  -0.77409
 Alpha  occ. eigenvalues --   -0.72022  -0.71154  -0.70444  -0.64982  -0.64822
 Alpha  occ. eigenvalues --   -0.64688  -0.62101  -0.60689  -0.59149  -0.57316
 Alpha  occ. eigenvalues --   -0.55240  -0.54992  -0.53062  -0.52847  -0.52473
 Alpha  occ. eigenvalues --   -0.52114  -0.49652  -0.48785  -0.48781  -0.47689
 Alpha  occ. eigenvalues --   -0.46451  -0.45386  -0.45279  -0.44785  -0.43510
 Alpha  occ. eigenvalues --   -0.37317  -0.36332
 Alpha virt. eigenvalues --    0.05077   0.11311   0.16568   0.20310   0.23214
 Alpha virt. eigenvalues --    0.24269   0.25657   0.27214   0.27310   0.28373
 Alpha virt. eigenvalues --    0.29511   0.30787   0.31562   0.31909   0.32341

 Mulliken charges:
               1
     1  C   -0.297776
     2  C   -0.304213
     3  C   -0.475093
     4  H    0.149462
     5  H    0.147363
     6  H    0.158857
     7  H    0.145052
     8  H    0.155013
     9  H    0.158552
    10  H    0.152647
    11  C   -0.299162
    12  C   -0.300207
    13  C   -0.475201
    14  H    0.158130
    15  H    0.156044
    16  H    0.149415
    17  H    0.148633
    18  H    0.157952
    19  H    0.158836
    20  H    0.156999
    21  C   -0.170490
    22  C   -0.222858
    23  C   -0.179473
    24  C    0.156944
    25  C   -0.169968
    26  C   -0.219207
    27  H    0.225484
    28  H    0.223643
    29  H    0.290256
    30  H    0.275446
    31  H    0.223282
    32  N    0.487125
    33  O   -0.460511
    34  O   -0.460978
 Sum of Mulliken charges =  -0.00000

 Dipole moment (field-independent basis, Debye):
    X=             -3.0216    Y=              3.9976    Z=             -0.7734  Tot=              5.0704
 Quadrupole moment (field-independent basis, Debye-Ang):
   XX=            -76.3512   YY=           -100.3260   ZZ=            -94.3882
   XY=             -6.1731   XZ=              1.5655   YZ=             -0.3489

 Normal termination of Gaussian 16 at Wed May  5 16:59:33 2021.
