 Gaussian 16, Revision A.03,
 Gaussian 16:  EM64L-G16RevA.03 25-Dec-2016

 -------------
 #p 6-31g* mp2
 -------------

 ------------------------------------------------------
 Input file generated by CHIRIPA (05-May-2021 14:55:25)
 ------------------------------------------------------
 Symbolic Z-matrix:
 Charge =  0 Multiplicity = 1

                         Standard orientation:
 ---------------------------------------------------------------------
 Center     Atomic      Atomic             Coordinates (Angstroms)
 Number     Number       Type             X           Y           Z
 ---------------------------------------------------------------------
      1          6           0        4.146255    2.264684   -0.639306
      2          6           0        4.162429    1.917807    0.715661
      3          6           0        3.610898    0.707100    1.145256
      4          6           0        3.048873   -0.136727    0.188505
      5          6           0        3.017493    0.180663   -1.168540
      6          6           0        3.574846    1.396535   -1.575431
      7          1           0        4.576958    3.207196   -0.964207
      8          1           0        4.605518    2.590068    1.444895
      9          1           0        3.609950    0.413666    2.187999
     10          1           0        2.568701   -0.510074   -1.872021
     11          1           0        3.560873    1.663315   -2.628369
     12          7           0        2.461910   -1.421182    0.631280
     13          8           0        1.972758   -2.147209   -0.231421
     14          8           0        2.502116   -1.677590    1.832644
     15          6           0       -3.293901   -0.292720   -0.057396
     16          6           0       -2.852627   -1.428614   -0.980979
     17          6           0       -1.384825   -1.810939   -0.788161
     18          1           0       -2.658232    0.585162   -0.236823
     19          1           0       -3.126081   -0.592044    0.986461
     20          1           0       -3.022517   -1.127776   -2.022732
     21          1           0       -3.489544   -2.303831   -0.799467
     22          1           0       -1.203586   -2.136597    0.241256
     23          1           0       -0.733906   -0.953859   -0.988960
     24          1           0       -1.090580   -2.624751   -1.458227
     25          6           0       -4.758864    0.100805   -0.238361
     26          6           0       -5.200138    1.236699    0.685223
     27          6           0       -6.667940    1.619024    0.492405
     28          1           0       -4.926684    0.400130   -1.282217
     29          1           0       -5.394533   -0.777076   -0.058933
     30          1           0       -4.563221    2.111917    0.503711
     31          1           0       -5.030248    0.935861    1.726976
     32          1           0       -7.318859    0.761944    0.693204
     33          1           0       -6.849179    1.944683   -0.537012
     34          1           0       -6.962185    2.432836    1.162471
 ---------------------------------------------------------------------

 SCF Done:  E(RHF) =  -669.535786041     A.U. after   15 cycles
 E2 =    -0.2091279728D+01 EUMP2 =    -0.67162706576860D+03

 The electronic state is 1-A.
 Alpha  occ. eigenvalues --  -20.60842 -20.60806 -15.85849 -11.31227 -11.27792
 Alpha  occ. eigenvalues --  -11.27789 -11.27539 -11.26814 -11.26804 -11.21308
 Alpha  occ. eigenvalues --  -11.20991 -11.20872 -11.20843 -11.20814 -11.19946
 Alpha  occ. eigenvalues --   -1.59882  -1.39436  -1.19397  -1.08792  -1.07939
 Alpha  occ. eigenvalues --   -1.04801  -1.02966  -0.95634  -0.95378  -0.86390
 Alpha  occ. eigenvalues --   -0.86199  -0.82458  -0.79041  -0.77747  -0.77495
 Alpha  occ. eigenvalues --   -0.72072  -0.71190  -0.70505  -0.65052  -0.64805
 Alpha  occ. eigenvalues --   -0.64580  -0.62148  -0.60371  -0.58795  -0.57002
 Alpha  occ. eigenvalues --   -0.55304  -0.54683  -0.53131  -0.52893  -0.52044
 Alpha  occ. eigenvalues --   -0.51814  -0.49367  -0.48834  -0.48814  -0.47365
 Alpha  occ. eigenvalues --   -0.46100  -0.45350  -0.45202  -0.44703  -0.43197
 Alpha  occ. eigenvalues --   -0.37377  -0.36405
 Alpha virt. eigenvalues --    0.05008   0.11218   0.16483   0.21338   0.23299
 Alpha virt. eigenvalues --    0.24782   0.26954   0.27272   0.27807   0.28022
 Alpha virt. eigenvalues --    0.28812   0.30827   0.31708   0.32204   0.32660

 Mulliken charges:
               1
     1  C   -0.170795
     2  C   -0.218491
     3  C   -0.170923
     4  C    0.158652
     5  C   -0.171749
     6  C   -0.218577
     7  H    0.225708
     8  H    0.223595
     9  H    0.275716
    10  H    0.276393
    11  H    0.223580
    12  N    0.488338
    13  O   -0.457024
    14  O   -0.460381
    15  C   -0.297474
    16  C   -0.302582
    17  C   -0.466601
    18  H    0.145851
    19  H    0.151006
    20  H    0.146609
    21  H    0.150709
    22  H    0.163557
    23  H    0.145563
    24  H    0.163116
    25  C   -0.297500
    26  C   -0.299122
    27  C   -0.475361
    28  H    0.147658
    29  H    0.149745
    30  H    0.150015
    31  H    0.152291
    32  H    0.155349
    33  H    0.154175
    34  H    0.158956
 Sum of Mulliken charges =  -0.00000

 Dipole moment (field-independent basis, Debye):
    X=              2.2709    Y=              4.4095    Z=             -1.5094  Tot=              5.1845
 Quadrupole moment (field-independent basis, Debye-Ang):
   XX=            -84.3445   YY=            -95.8702   ZZ=            -90.5143
   XY=             14.8469   XZ=             -3.4909   YZ=              1.6866

 Normal termination of Gaussian 16 at Thu May  6 09:35:43 2021.
