 Gaussian 16, Revision A.03,
 Gaussian 16:  EM64L-G16RevA.03 25-Dec-2016

 -------------
 #p 6-31g* mp2
 -------------

 ------------------------------------------------------
 Input file generated by CHIRIPA (05-May-2021 14:51:08)
 ------------------------------------------------------
 Symbolic Z-matrix:
 Charge =  0 Multiplicity = 1

                         Standard orientation:
 ---------------------------------------------------------------------
 Center     Atomic      Atomic             Coordinates (Angstroms)
 Number     Number       Type             X           Y           Z
 ---------------------------------------------------------------------
      1          6           0       -3.183152    0.628799    0.662137
      2          6           0       -1.693270    0.970147    0.620722
      3          6           0       -1.354495    2.235254    1.409727
      4          1           0       -3.758127    1.476003    0.263896
      5          1           0       -3.494634    0.503918    1.708454
      6          1           0       -1.384382    1.092986   -0.425278
      7          1           0       -1.121763    0.121957    1.018929
      8          1           0       -1.634999    2.119888    2.461682
      9          1           0       -1.899109    3.096434    1.009269
     10          1           0       -0.284365    2.460715    1.366723
     11          6           0       -3.537505   -0.633405   -0.122084
     12          6           0       -5.027388   -0.974754   -0.080669
     13          6           0       -5.366162   -2.239861   -0.869674
     14          1           0       -3.226023   -0.508525   -1.168401
     15          1           0       -2.962530   -1.480609    0.276156
     16          1           0       -5.598895   -0.126563   -0.478876
     17          1           0       -5.336276   -1.097592    0.965331
     18          1           0       -4.821548   -3.101040   -0.469216
     19          1           0       -5.085659   -2.124494   -1.921629
     20          1           0       -6.436292   -2.465322   -0.826670
     21          6           0        3.235879    0.628243   -0.689722
     22          6           0        1.849783    1.236867   -0.474558
     23          6           0        1.615820    2.488450   -1.321078
     24          1           0        4.000521    1.380801   -0.453238
     25          1           0        3.359048    0.381001   -1.753252
     26          1           0        1.728744    1.481613    0.588487
     27          1           0        1.088353    0.482713   -0.711398
     28          1           0        1.709593    2.255813   -2.386764
     29          1           0        2.353621    3.260388   -1.079494
     30          1           0        0.618887    2.907120   -1.151666
     31          6           0        3.484778   -0.623636    0.149669
     32          6           0        4.870875   -1.232262   -0.065495
     33          6           0        5.104838   -2.483844    0.781025
     34          1           0        3.361610   -0.376395    1.213199
     35          1           0        2.720136   -1.376194   -0.086815
     36          1           0        5.632304   -0.478106    0.171344
     37          1           0        4.991914   -1.477006   -1.128540
     38          1           0        4.367036   -3.255782    0.539441
     39          1           0        5.011065   -2.251207    1.846711
     40          1           0        6.101770   -2.902514    0.611612
 ---------------------------------------------------------------------

 SCF Done:  E(RHF) =  -470.732080072     A.U. after   11 cycles
 E2 =    -0.1584206119D+01 EUMP2 =    -0.47231628619127D+03

 The electronic state is 1-A.
 Alpha  occ. eigenvalues --  -11.21598 -11.21594 -11.21543 -11.21525 -11.21391
 Alpha  occ. eigenvalues --  -11.21385 -11.21326 -11.21322 -11.21073 -11.21069
 Alpha  occ. eigenvalues --  -11.21047 -11.21003  -1.08457  -1.08373  -1.03623
 Alpha  occ. eigenvalues --   -1.03412  -0.96058  -0.95878  -0.87005  -0.86961
 Alpha  occ. eigenvalues --   -0.79702  -0.79486  -0.78352  -0.78098  -0.65084
 Alpha  occ. eigenvalues --   -0.65019  -0.60998  -0.60888  -0.59801  -0.59028
 Alpha  occ. eigenvalues --   -0.57905  -0.57095  -0.55272  -0.55241  -0.52751
 Alpha  occ. eigenvalues --   -0.52574  -0.52441  -0.52291  -0.49916  -0.49905
 Alpha  occ. eigenvalues --   -0.48052  -0.47823  -0.46668  -0.46533  -0.45937
 Alpha  occ. eigenvalues --   -0.45743  -0.45665  -0.45459  -0.43771  -0.43733
 Alpha virt. eigenvalues --    0.21264   0.23141   0.23379   0.25327   0.26142
 Alpha virt. eigenvalues --    0.26282   0.26742   0.27356   0.28036   0.29174
 Alpha virt. eigenvalues --    0.29916   0.31132   0.31277   0.31824   0.32143

 Mulliken charges:
               1
     1  C   -0.298087
     2  C   -0.301238
     3  C   -0.481652
     4  H    0.149351
     5  H    0.149357
     6  H    0.154483
     7  H    0.152726
     8  H    0.154820
     9  H    0.154223
    10  H    0.166627
    11  C   -0.298269
    12  C   -0.299579
    13  C   -0.475700
    14  H    0.149128
    15  H    0.149437
    16  H    0.151967
    17  H    0.151985
    18  H    0.155113
    19  H    0.155087
    20  H    0.160270
    21  C   -0.297431
    22  C   -0.304185
    23  C   -0.480424
    24  H    0.149216
    25  H    0.149215
    26  H    0.152867
    27  H    0.156846
    28  H    0.155070
    29  H    0.155077
    30  H    0.164133
    31  C   -0.298342
    32  C   -0.299575
    33  C   -0.475701
    34  H    0.149293
    35  H    0.149535
    36  H    0.151953
    37  H    0.151939
    38  H    0.155111
    39  H    0.155108
    40  H    0.160247
 Sum of Mulliken charges =  -0.00000

 Dipole moment (field-independent basis, Debye):
    X=              0.0027    Y=             -0.0040    Z=             -0.0015  Tot=              0.0050
 Quadrupole moment (field-independent basis, Debye-Ang):
   XX=            -85.1067   YY=            -85.8162   ZZ=            -84.1010
   XY=              0.0792   XZ=              0.0790   YZ=             -0.0115

 Normal termination of Gaussian 16 at Thu May  6 16:32:39 2021.
