 Gaussian 16, Revision A.03,
 Gaussian 16:  EM64L-G16RevA.03 25-Dec-2016

 -------------
 #p 6-31g* mp2
 -------------

 ------------------------------------------------------
 Input file generated by CHIRIPA (05-May-2021 14:55:20)
 ------------------------------------------------------
 Symbolic Z-matrix:
 Charge =  0 Multiplicity = 1

                         Standard orientation:
 ---------------------------------------------------------------------
 Center     Atomic      Atomic             Coordinates (Angstroms)
 Number     Number       Type             X           Y           Z
 ---------------------------------------------------------------------
      1          6           0       -3.793948   -1.857968   -0.424492
      2          6           0       -2.733371   -1.630147   -1.307552
      3          6           0       -2.013807   -0.432476   -1.258998
      4          6           0       -2.383548    0.519860   -0.310506
      5          6           0       -3.435297    0.322383    0.582867
      6          6           0       -4.140914   -0.882696    0.516241
      7          1           0       -4.347506   -2.791225   -0.469229
      8          1           0       -2.461688   -2.385767   -2.039175
      9          1           0       -1.188394   -0.230069   -1.930670
     10          1           0       -3.682686    1.094482    1.301254
     11          1           0       -4.964116   -1.056895    1.203291
     12          7           0       -1.629160    1.791702   -0.249538
     13          8           0       -1.974691    2.614788    0.595313
     14          8           0       -0.706624    1.941403   -1.047757
     15          6           0        3.739217   -0.554488   -0.117599
     16          6           0        5.025920    0.253589    0.053844
     17          6           0        6.074849   -0.072384   -1.009775
     18          1           0        3.979159   -1.625975   -0.081726
     19          1           0        3.323011   -0.360632   -1.115890
     20          1           0        5.438836    0.059334    1.052033
     21          1           0        4.782861    1.323279    0.017751
     22          1           0        5.686422    0.138779   -2.011342
     23          1           0        6.346124   -1.132347   -0.971182
     24          1           0        6.986484    0.516492   -0.868326
     25          6           0        2.680957   -0.239741    0.938218
     26          6           0        1.394254   -1.047817    0.766776
     27          6           0        0.345326   -0.721844    1.830394
     28          1           0        3.097163   -0.433596    1.936511
     29          1           0        2.441016    0.831747    0.902345
     30          1           0        1.637313   -2.117507    0.802870
     31          1           0        0.981339   -0.853562   -0.231413
     32          1           0        0.074051    0.338119    1.791802
     33          1           0        0.733752   -0.933007    2.831961
     34          1           0       -0.566309   -1.310720    1.688946
 ---------------------------------------------------------------------

 SCF Done:  E(RHF) =  -669.535504116     A.U. after   15 cycles
 E2 =    -0.2093865208D+01 EUMP2 =    -0.67162936932481D+03

 The electronic state is 1-A.
 Alpha  occ. eigenvalues --  -20.60889 -20.60883 -15.85914 -11.31210 -11.27793
 Alpha  occ. eigenvalues --  -11.27783 -11.27550 -11.26821 -11.26811 -11.21331
 Alpha  occ. eigenvalues --  -11.21193 -11.20991 -11.20887 -11.20815 -11.20741
 Alpha  occ. eigenvalues --   -1.59955  -1.39510  -1.19409  -1.08817  -1.08039
 Alpha  occ. eigenvalues --   -1.04807  -1.03200  -0.95670  -0.95637  -0.86671
 Alpha  occ. eigenvalues --   -0.86207  -0.82492  -0.79272  -0.77856  -0.77541
 Alpha  occ. eigenvalues --   -0.72145  -0.71302  -0.70525  -0.65066  -0.64825
 Alpha  occ. eigenvalues --   -0.64638  -0.62162  -0.60591  -0.59048  -0.57284
 Alpha  occ. eigenvalues --   -0.55320  -0.54954  -0.53210  -0.52902  -0.52250
 Alpha  occ. eigenvalues --   -0.52014  -0.49594  -0.48906  -0.48898  -0.47584
 Alpha  occ. eigenvalues --   -0.46307  -0.45410  -0.45302  -0.44886  -0.43429
 Alpha  occ. eigenvalues --   -0.37353  -0.36388
 Alpha virt. eigenvalues --    0.04960   0.11170   0.16478   0.21155   0.23155
 Alpha virt. eigenvalues --    0.24421   0.26243   0.27291   0.27837   0.28171
 Alpha virt. eigenvalues --    0.28691   0.30611   0.31581   0.31900   0.31914

 Mulliken charges:
               1
     1  C   -0.171186
     2  C   -0.219020
     3  C   -0.170130
     4  C    0.161992
     5  C   -0.171048
     6  C   -0.218723
     7  H    0.225903
     8  H    0.223915
     9  H    0.275123
    10  H    0.275859
    11  H    0.223790
    12  N    0.489030
    13  O   -0.459710
    14  O   -0.461178
    15  C   -0.298229
    16  C   -0.300061
    17  C   -0.475620
    18  H    0.145842
    19  H    0.150726
    20  H    0.150641
    21  H    0.156094
    22  H    0.155434
    23  H    0.153076
    24  H    0.159825
    25  C   -0.299548
    26  C   -0.299657
    27  C   -0.483327
    28  H    0.147331
    29  H    0.160971
    30  H    0.147550
    31  H    0.150181
    32  H    0.159899
    33  H    0.155143
    34  H    0.159114
 Sum of Mulliken charges =  -0.00000

 Dipole moment (field-independent basis, Debye):
    X=             -2.7468    Y=             -4.3584    Z=             -0.2272  Tot=              5.1568
 Quadrupole moment (field-independent basis, Debye-Ang):
   XX=            -81.5476   YY=            -99.1667   ZZ=            -92.3653
   XY=              8.6527   XZ=             -0.3902   YZ=              2.2580

 Normal termination of Gaussian 16 at Thu May  6 14:06:21 2021.
