 Gaussian 16, Revision A.03,
 Gaussian 16:  EM64L-G16RevA.03 25-Dec-2016

 -------------
 #p 6-31g* mp2
 -------------

 ------------------------------------------------------
 Input file generated by CHIRIPA (05-May-2021 14:53:17)
 ------------------------------------------------------
 Symbolic Z-matrix:
 Charge =  0 Multiplicity = 1

                         Standard orientation:
 ---------------------------------------------------------------------
 Center     Atomic      Atomic             Coordinates (Angstroms)
 Number     Number       Type             X           Y           Z
 ---------------------------------------------------------------------
      1          6           0        3.727883    0.041945   -0.015562
      2          6           0        5.016126   -0.247971    0.755387
      3          6           0        5.927663    0.974729    0.864469
      4          1           0        3.983278    0.401604   -1.021725
      5          1           0        3.187816    0.859938    0.481037
      6          1           0        5.552919   -1.066105    0.258269
      7          1           0        4.757632   -0.607164    1.759766
      8          1           0        5.414540    1.793019    1.379937
      9          1           0        6.214345    1.331470   -0.130091
     10          1           0        6.842691    0.745096    1.419314
     11          6           0        2.806247   -1.170701   -0.133067
     12          6           0        1.518003   -0.880785   -0.904016
     13          6           0        0.606466   -2.103485   -1.013098
     14          1           0        3.346313   -1.988694   -0.629666
     15          1           0        2.550852   -1.530360    0.873096
     16          1           0        1.776497   -0.521592   -1.908395
     17          1           0        0.981210   -0.062651   -0.406898
     18          1           0        0.319784   -2.460226   -0.018538
     19          1           0        1.119590   -2.921775   -1.528566
     20          1           0       -0.308562   -1.873852   -1.567943
     21          6           0       -3.795211   -1.486944    1.109091
     22          6           0       -3.552275   -0.324505    1.848169
     23          6           0       -2.864659    0.749915    1.276021
     24          6           0       -2.432244    0.627299   -0.043552
     25          6           0       -2.658899   -0.517672   -0.805757
     26          6           0       -3.348535   -1.579655   -0.213183
     27          1           0       -4.330153   -2.316748    1.561482
     28          1           0       -3.898002   -0.249707    2.875264
     29          1           0       -2.663009    1.661481    1.825389
     30          1           0       -2.301964   -0.562756   -1.827511
     31          1           0       -3.535780   -2.481200   -0.789552
     32          7           0       -1.703226    1.758156   -0.660071
     33          8           0       -1.332650    1.625245   -1.824393
     34          8           0       -1.516201    2.756019    0.032696
 ---------------------------------------------------------------------

 SCF Done:  E(RHF) =  -669.534427549     A.U. after   15 cycles
 E2 =    -0.2093362609D+01 EUMP2 =    -0.67162779015827D+03

 The electronic state is 1-A.
 Alpha  occ. eigenvalues --  -20.60836 -20.60817 -15.85869 -11.31209 -11.27789
 Alpha  occ. eigenvalues --  -11.27786 -11.27525 -11.26786 -11.26772 -11.21294
 Alpha  occ. eigenvalues --  -11.21259 -11.21098 -11.21021 -11.20969 -11.20746
 Alpha  occ. eigenvalues --   -1.59898  -1.39451  -1.19394  -1.08787  -1.08114
 Alpha  occ. eigenvalues --   -1.04802  -1.03260  -0.95769  -0.95604  -0.86773
 Alpha  occ. eigenvalues --   -0.86187  -0.82461  -0.79309  -0.77901  -0.77514
 Alpha  occ. eigenvalues --   -0.72090  -0.71227  -0.70521  -0.65045  -0.64809
 Alpha  occ. eigenvalues --   -0.64743  -0.62198  -0.60662  -0.59115  -0.57349
 Alpha  occ. eigenvalues --   -0.55294  -0.55049  -0.53207  -0.52926  -0.52334
 Alpha  occ. eigenvalues --   -0.52105  -0.49666  -0.48851  -0.48848  -0.47629
 Alpha  occ. eigenvalues --   -0.46338  -0.45477  -0.45379  -0.44795  -0.43526
 Alpha  occ. eigenvalues --   -0.37365  -0.36321
 Alpha virt. eigenvalues --    0.05006   0.11214   0.16480   0.21019   0.23138
 Alpha virt. eigenvalues --    0.24354   0.26503   0.26913   0.27664   0.28007
 Alpha virt. eigenvalues --    0.28770   0.30756   0.31460   0.31650   0.32169

 Mulliken charges:
               1
     1  C   -0.298846
     2  C   -0.299410
     3  C   -0.475658
     4  H    0.151988
     5  H    0.153479
     6  H    0.150501
     7  H    0.150089
     8  H    0.156514
     9  H    0.155983
    10  H    0.158624
    11  C   -0.298910
    12  C   -0.297564
    13  C   -0.474679
    14  H    0.147750
    15  H    0.146692
    16  H    0.158810
    17  H    0.152446
    18  H    0.152932
    19  H    0.153586
    20  H    0.151645
    21  C   -0.170888
    22  C   -0.218768
    23  C   -0.171686
    24  C    0.157143
    25  C   -0.168272
    26  C   -0.217125
    27  H    0.225778
    28  H    0.223387
    29  H    0.275517
    30  H    0.275862
    31  H    0.223963
    32  N    0.488804
    33  O   -0.459358
    34  O   -0.460331
 Sum of Mulliken charges =  -0.00000

 Dipole moment (field-independent basis, Debye):
    X=             -2.6020    Y=             -3.8840    Z=              2.1360  Tot=              5.1398
 Quadrupole moment (field-independent basis, Debye-Ang):
   XX=            -83.4417   YY=            -99.7510   ZZ=            -90.7675
   XY=              7.5648   XZ=             -6.4248   YZ=              4.1015

 Normal termination of Gaussian 16 at Thu May  6 10:42:38 2021.
