 Gaussian 16, Revision A.03,
 Gaussian 16:  EM64L-G16RevA.03 25-Dec-2016

 -------------
 #p 6-31g* mp2
 -------------

 ------------------------------------------------------
 Input file generated by CHIRIPA (05-May-2021 14:51:14)
 ------------------------------------------------------
 Symbolic Z-matrix:
 Charge =  0 Multiplicity = 1

                         Standard orientation:
 ---------------------------------------------------------------------
 Center     Atomic      Atomic             Coordinates (Angstroms)
 Number     Number       Type             X           Y           Z
 ---------------------------------------------------------------------
      1          6           0       -2.237439   -0.930087    0.418267
      2          6           0       -1.628268   -0.783576    1.813054
      3          6           0       -0.422245   -1.697934    2.030427
      4          1           0       -2.535842   -1.975999    0.263445
      5          1           0       -1.468494   -0.709639   -0.335073
      6          1           0       -2.398503   -1.002887    2.563559
      7          1           0       -1.331456    0.262148    1.964646
      8          1           0        0.365826   -1.475422    1.303768
      9          1           0       -0.707284   -2.747645    1.906084
     10          1           0       -0.002425   -1.576965    3.033910
     11          6           0       -3.444013   -0.022425    0.185766
     12          6           0       -4.053184   -0.168937   -1.209021
     13          6           0       -5.259206    0.745422   -1.426394
     14          1           0       -4.212957   -0.242873    0.939107
     15          1           0       -3.145610    1.023486    0.340588
     16          1           0       -4.349996   -1.214661   -1.360612
     17          1           0       -3.282949    0.050374   -1.959525
     18          1           0       -4.974168    1.795133   -1.302051
     19          1           0       -6.047278    0.522910   -0.699735
     20          1           0       -5.679027    0.624453   -2.429876
     21          6           0        2.277334    0.959420   -0.121532
     22          6           0        2.767463    2.374907    0.185314
     23          6           0        1.628741    3.329884    0.544654
     24          1           0        1.555587    0.999436   -0.948831
     25          1           0        1.732631    0.570532    0.749939
     26          1           0        3.312271    2.760485   -0.685966
     27          1           0        3.488272    2.331493    1.011853
     28          1           0        1.089422    2.971424    1.427401
     29          1           0        0.912421    3.402853   -0.280065
     30          1           0        2.001541    4.336066    0.760243
     31          6           0        3.404118   -0.006907   -0.482502
     32          6           0        2.913988   -1.422395   -0.789347
     33          6           0        4.052710   -2.377372   -1.148687
     34          1           0        3.948820    0.381980   -1.353972
     35          1           0        4.125864   -0.046924    0.344798
     36          1           0        2.193180   -1.378981   -1.615886
     37          1           0        2.369180   -1.807973    0.081933
     38          1           0        4.769031   -2.450341   -0.323968
     39          1           0        4.592029   -2.018912   -2.031434
     40          1           0        3.679910   -3.383553   -1.364276
 ---------------------------------------------------------------------

 SCF Done:  E(RHF) =  -470.733007938     A.U. after   11 cycles
 E2 =    -0.1583714986D+01 EUMP2 =    -0.47231672292412D+03

 The electronic state is 1-A.
 Alpha  occ. eigenvalues --  -11.21651 -11.21617 -11.21585 -11.21582 -11.21450
 Alpha  occ. eigenvalues --  -11.21389 -11.21371 -11.21311 -11.21129 -11.21081
 Alpha  occ. eigenvalues --  -11.21057 -11.21023  -1.08485  -1.08397  -1.03569
 Alpha  occ. eigenvalues --   -1.03510  -0.96021  -0.95959  -0.87036  -0.86980
 Alpha  occ. eigenvalues --   -0.79665  -0.79555  -0.78335  -0.78179  -0.65192
 Alpha  occ. eigenvalues --   -0.64970  -0.60985  -0.60899  -0.59399  -0.59318
 Alpha  occ. eigenvalues --   -0.57629  -0.57571  -0.55364  -0.55208  -0.52722
 Alpha  occ. eigenvalues --   -0.52657  -0.52457  -0.52375  -0.49961  -0.49949
 Alpha  occ. eigenvalues --   -0.48032  -0.47864  -0.46780  -0.46574  -0.45957
 Alpha  occ. eigenvalues --   -0.45768  -0.45694  -0.45344  -0.43821  -0.43763
 Alpha virt. eigenvalues --    0.20715   0.23222   0.23867   0.23908   0.25729
 Alpha virt. eigenvalues --    0.25976   0.26794   0.28098   0.28286   0.29531
 Alpha virt. eigenvalues --    0.30300   0.31449   0.31772   0.31866   0.32247

 Mulliken charges:
               1
     1  C   -0.298887
     2  C   -0.299361
     3  C   -0.486614
     4  H    0.149412
     5  H    0.150764
     6  H    0.151827
     7  H    0.151944
     8  H    0.165840
     9  H    0.155189
    10  H    0.159176
    11  C   -0.298456
    12  C   -0.299566
    13  C   -0.475701
    14  H    0.149374
    15  H    0.150004
    16  H    0.151872
    17  H    0.151672
    18  H    0.155220
    19  H    0.155180
    20  H    0.160123
    21  C   -0.304309
    22  C   -0.299392
    23  C   -0.475987
    24  H    0.148999
    25  H    0.155340
    26  H    0.152220
    27  H    0.152297
    28  H    0.155106
    29  H    0.154874
    30  H    0.160663
    31  C   -0.297953
    32  C   -0.306597
    33  C   -0.475168
    34  H    0.149697
    35  H    0.149777
    36  H    0.151509
    37  H    0.158883
    38  H    0.155310
    39  H    0.155138
    40  H    0.160581
 Sum of Mulliken charges =  -0.00000

 Dipole moment (field-independent basis, Debye):
    X=              0.0331    Y=              0.0001    Z=             -0.0066  Tot=              0.0337
 Quadrupole moment (field-independent basis, Debye-Ang):
   XX=            -85.6509   YY=            -85.1785   ZZ=            -83.9372
   XY=              1.5270   XZ=             -0.1488   YZ=             -0.5131

 Normal termination of Gaussian 16 at Thu May  6 02:27:12 2021.
