 Gaussian 16, Revision A.03,
 Gaussian 16:  EM64L-G16RevA.03 25-Dec-2016

 -------------
 #p 6-31g* mp2
 -------------

 ------------------------------------------------------
 Input file generated by CHIRIPA (05-May-2021 14:55:21)
 ------------------------------------------------------
 Symbolic Z-matrix:
 Charge =  0 Multiplicity = 1

                         Standard orientation:
 ---------------------------------------------------------------------
 Center     Atomic      Atomic             Coordinates (Angstroms)
 Number     Number       Type             X           Y           Z
 ---------------------------------------------------------------------
      1          6           0       -1.757283    2.222514   -0.021269
      2          6           0       -1.451961    1.366039    1.041629
      3          6           0       -1.994000    0.078412    1.094135
      4          6           0       -2.841485   -0.321857    0.062221
      5          6           0       -3.164697    0.508220   -1.010064
      6          6           0       -2.611171    1.791630   -1.041924
      7          1           0       -1.331752    3.221136   -0.054038
      8          1           0       -0.789123    1.697984    1.835671
      9          1           0       -1.774407   -0.605157    1.905264
     10          1           0       -3.828629    0.149028   -1.786977
     11          1           0       -2.850046    2.454629   -1.868613
     12          7           0       -3.421398   -1.682779    0.106878
     13          8           0       -4.165346   -2.011530   -0.814588
     14          8           0       -3.121004   -2.394948    1.062501
     15          6           0        3.574101   -0.599541   -0.305016
     16          6           0        4.905101   -1.251649    0.070724
     17          6           0        5.008776   -2.700759   -0.405854
     18          1           0        2.751039   -1.187711    0.123432
     19          1           0        3.450346   -0.637386   -1.396184
     20          1           0        5.026945   -1.211346    1.160745
     21          1           0        5.725098   -0.661750   -0.358507
     22          1           0        4.912953   -2.755868   -1.495066
     23          1           0        4.210834   -3.308587    0.032819
     24          1           0        5.968089   -3.147545   -0.126642
     25          6           0        3.455424    0.849297    0.164571
     26          6           0        2.124424    1.501405   -0.211169
     27          6           0        2.020749    2.950515    0.265409
     28          1           0        3.579178    0.887143    1.255738
     29          1           0        4.278486    1.437468   -0.263877
     30          1           0        1.304427    0.911506    0.218062
     31          1           0        2.002579    1.461103   -1.301190
     32          1           0        2.818691    3.558344   -0.173263
     33          1           0        2.116572    3.005625    1.354621
     34          1           0        1.061435    3.397302   -0.013804
 ---------------------------------------------------------------------

 SCF Done:  E(RHF) =  -669.534470239     A.U. after   15 cycles
 E2 =    -0.2093191457D+01 EUMP2 =    -0.67162766169604D+03

 The electronic state is 1-A.
 Alpha  occ. eigenvalues --  -20.60791 -20.60786 -15.85845 -11.31223 -11.27792
 Alpha  occ. eigenvalues --  -11.27784 -11.27510 -11.26804 -11.26792 -11.22148
 Alpha  occ. eigenvalues --  -11.22037 -11.21842 -11.21820 -11.21666 -11.21184
 Alpha  occ. eigenvalues --   -1.59866  -1.39419  -1.19400  -1.08877  -1.08761
 Alpha  occ. eigenvalues --   -1.04812  -1.03986  -0.96474  -0.95616  -0.87482
 Alpha  occ. eigenvalues --   -0.86199  -0.82459  -0.80046  -0.78615  -0.77500
 Alpha  occ. eigenvalues --   -0.72063  -0.71189  -0.70534  -0.65520  -0.65051
 Alpha  occ. eigenvalues --   -0.64798  -0.62180  -0.61359  -0.59901  -0.58073
 Alpha  occ. eigenvalues --   -0.55753  -0.55332  -0.53235  -0.53040  -0.52891
 Alpha  occ. eigenvalues --   -0.52836  -0.50389  -0.48825  -0.48817  -0.48350
 Alpha  occ. eigenvalues --   -0.47068  -0.46163  -0.46072  -0.44822  -0.44232
 Alpha  occ. eigenvalues --   -0.37330  -0.36364
 Alpha virt. eigenvalues --    0.05001   0.11187   0.16381   0.19948   0.22795
 Alpha virt. eigenvalues --    0.24184   0.25810   0.26379   0.27084   0.27215
 Alpha virt. eigenvalues --    0.28843   0.30149   0.31112   0.31731   0.32521

 Mulliken charges:
               1
     1  C   -0.169673
     2  C   -0.217837
     3  C   -0.172834
     4  C    0.159073
     5  C   -0.170649
     6  C   -0.219138
     7  H    0.227728
     8  H    0.226062
     9  H    0.275515
    10  H    0.275738
    11  H    0.223699
    12  N    0.488096
    13  O   -0.460238
    14  O   -0.460509
    15  C   -0.298706
    16  C   -0.299951
    17  C   -0.476185
    18  H    0.151250
    19  H    0.150764
    20  H    0.151741
    21  H    0.151849
    22  H    0.155826
    23  H    0.157221
    24  H    0.160932
    25  C   -0.298425
    26  C   -0.303903
    27  C   -0.478741
    28  H    0.148086
    29  H    0.150207
    30  H    0.156790
    31  H    0.153743
    32  H    0.160423
    33  H    0.152978
    34  H    0.149068
 Sum of Mulliken charges =  -0.00000

 Dipole moment (field-independent basis, Debye):
    X=              2.0794    Y=              4.7161    Z=             -0.2028  Tot=              5.1581
 Quadrupole moment (field-independent basis, Debye-Ang):
   XX=           -105.5150   YY=            -99.5486   ZZ=            -90.5753
   XY=            -14.7051   XZ=              2.5912   YZ=             -1.1832

 Normal termination of Gaussian 16 at Thu May  6 09:19:05 2021.
