 Gaussian 16, Revision A.03,
 Gaussian 16:  EM64L-G16RevA.03 25-Dec-2016

 -------------
 #p 6-31g* mp2
 -------------

 ------------------------------------------------------
 Input file generated by CHIRIPA (05-May-2021 14:53:17)
 ------------------------------------------------------
 Symbolic Z-matrix:
 Charge =  0 Multiplicity = 1

                         Standard orientation:
 ---------------------------------------------------------------------
 Center     Atomic      Atomic             Coordinates (Angstroms)
 Number     Number       Type             X           Y           Z
 ---------------------------------------------------------------------
      1          6           0        4.759137   -0.505086    0.011184
      2          6           0        6.266012   -0.696280   -0.164189
      3          6           0        6.656896   -2.161054   -0.362793
      4          1           0        4.418583   -1.096885    0.871848
      5          1           0        4.240493   -0.907732   -0.869883
      6          1           0        6.781745   -0.292143    0.716328
      7          1           0        6.603051   -0.103806   -1.024419
      8          1           0        6.168768   -2.572868   -1.252029
      9          1           0        6.348477   -2.762275    0.498608
     10          1           0        7.738430   -2.274782   -0.486122
     11          6           0        4.352760    0.953940    0.210757
     12          6           0        2.845885    1.145134    0.386130
     13          6           0        2.455001    2.609908    0.584735
     14          1           0        4.871404    1.356586    1.091824
     15          1           0        4.693314    1.545739   -0.649907
     16          1           0        2.508846    0.552660    1.246360
     17          1           0        2.330152    0.740998   -0.494386
     18          1           0        2.763420    3.211130   -0.276666
     19          1           0        2.943130    3.021722    1.473971
     20          1           0        1.373467    2.723636    0.708063
     21          6           0       -1.117342    0.377306   -0.398436
     22          6           0       -1.493628   -0.873398    0.102233
     23          6           0       -2.843715   -1.190482    0.279067
     24          6           0       -3.795418   -0.228761   -0.056558
     25          6           0       -3.452120    1.026027   -0.557500
     26          6           0       -2.096064    1.321363   -0.726126
     27          1           0       -0.066243    0.615177   -0.532617
     28          1           0       -0.735706   -1.608521    0.357566
     29          1           0       -3.162911   -2.151076    0.664802
     30          1           0       -4.230481    1.738237   -0.803123
     31          1           0       -1.806758    2.293480   -1.115147
     32          7           0       -5.227854   -0.552931    0.126304
     33          8           0       -6.047034    0.311735   -0.176901
     34          8           0       -5.504295   -1.665544    0.569374
 ---------------------------------------------------------------------

 SCF Done:  E(RHF) =  -669.535593474     A.U. after   15 cycles
 E2 =    -0.2091315610D+01 EUMP2 =    -0.67162690908343D+03

 The electronic state is 1-A.
 Alpha  occ. eigenvalues --  -20.60716 -20.60711 -15.85770 -11.31122 -11.27693
 Alpha  occ. eigenvalues --  -11.27689 -11.27370 -11.26697 -11.26683 -11.22902
 Alpha  occ. eigenvalues --  -11.22351 -11.22273 -11.22230 -11.22197 -11.21637
 Alpha  occ. eigenvalues --   -1.59792  -1.39346  -1.19291  -1.09367  -1.08682
 Alpha  occ. eigenvalues --   -1.04695  -1.04461  -0.96876  -0.95520  -0.87888
 Alpha  occ. eigenvalues --   -0.86089  -0.82362  -0.80566  -0.79154  -0.77410
 Alpha  occ. eigenvalues --   -0.71987  -0.71115  -0.70408  -0.65989  -0.64940
 Alpha  occ. eigenvalues --   -0.64701  -0.62045  -0.61851  -0.60301  -0.58515
 Alpha  occ. eigenvalues --   -0.56145  -0.55131  -0.53583  -0.53298  -0.53013
 Alpha  occ. eigenvalues --   -0.52783  -0.50806  -0.48862  -0.48743  -0.48738
 Alpha  occ. eigenvalues --   -0.47588  -0.46685  -0.46585  -0.44754  -0.44699
 Alpha  occ. eigenvalues --   -0.37260  -0.36305
 Alpha virt. eigenvalues --    0.05113   0.11335   0.16566   0.19648   0.22341
 Alpha virt. eigenvalues --    0.23848   0.25417   0.26079   0.26384   0.27611
 Alpha virt. eigenvalues --    0.29062   0.30070   0.30786   0.30984   0.32035

 Mulliken charges:
               1
     1  C   -0.299263
     2  C   -0.300338
     3  C   -0.476264
     4  H    0.149816
     5  H    0.148488
     6  H    0.153607
     7  H    0.153241
     8  H    0.155501
     9  H    0.155742
    10  H    0.162604
    11  C   -0.297321
    12  C   -0.306252
    13  C   -0.478645
    14  H    0.153500
    15  H    0.152193
    16  H    0.154112
    17  H    0.143194
    18  H    0.157981
    19  H    0.162170
    20  H    0.156852
    21  C   -0.178973
    22  C   -0.222251
    23  C   -0.170776
    24  C    0.158164
    25  C   -0.170594
    26  C   -0.222001
    27  H    0.240750
    28  H    0.223703
    29  H    0.275322
    30  H    0.275311
    31  H    0.223686
    32  N    0.488006
    33  O   -0.460625
    34  O   -0.460639
 Sum of Mulliken charges =  -0.00000

 Dipole moment (field-independent basis, Debye):
    X=              5.3410    Y=              1.1764    Z=             -0.5949  Tot=              5.5013
 Quadrupole moment (field-independent basis, Debye-Ang):
   XX=           -132.4819   YY=            -92.1012   ZZ=            -93.8320
   XY=             -6.2498   XZ=              2.9968   YZ=             -1.9231

 Normal termination of Gaussian 16 at Thu May  6 05:56:43 2021.
