 Gaussian 16, Revision A.03,
 Gaussian 16:  EM64L-G16RevA.03 25-Dec-2016

 -------------
 #p 6-31g* mp2
 -------------

 ------------------------------------------------------
 Input file generated by CHIRIPA (05-May-2021 14:53:11)
 ------------------------------------------------------
 Symbolic Z-matrix:
 Charge =  0 Multiplicity = 1

                         Standard orientation:
 ---------------------------------------------------------------------
 Center     Atomic      Atomic             Coordinates (Angstroms)
 Number     Number       Type             X           Y           Z
 ---------------------------------------------------------------------
      1          6           0        4.634100    0.131776    0.407399
      2          6           0        5.439843    0.130233   -0.892124
      3          6           0        6.858477    0.670268   -0.708732
      4          1           0        4.589883    1.155836    0.802737
      5          1           0        5.162539   -0.470894    1.159020
      6          1           0        4.909349    0.731590   -1.641498
      7          1           0        5.481984   -0.893910   -1.284516
      8          1           0        7.409601    0.066038    0.019120
      9          1           0        6.833712    1.700774   -0.339890
     10          1           0        7.416701    0.660187   -1.650085
     11          6           0        3.213774   -0.405298    0.240205
     12          6           0        2.408031   -0.403754    1.539728
     13          6           0        0.989397   -0.943789    1.356336
     14          1           0        2.685335    0.197373   -0.511417
     15          1           0        3.257991   -1.429357   -0.155134
     16          1           0        2.365890    0.620389    1.932119
     17          1           0        2.938525   -1.005111    2.289101
     18          1           0        1.014162   -1.974296    0.987494
     19          1           0        0.438273   -0.339559    0.628483
     20          1           0        0.431173   -0.933708    2.297688
     21          6           0       -2.905758   -2.389538   -0.582295
     22          6           0       -1.860481   -1.559862   -1.001284
     23          6           0       -1.938236   -0.175295   -0.823867
     24          6           0       -3.081027    0.348185   -0.221132
     25          6           0       -4.139065   -0.452178    0.206961
     26          6           0       -4.039715   -1.834028    0.019429
     27          1           0       -2.836969   -3.464048   -0.724045
     28          1           0       -0.978633   -1.988504   -1.468889
     29          1           0       -1.143667    0.490189   -1.138843
     30          1           0       -5.005464    0.004341    0.669951
     31          1           0       -4.853027   -2.475937    0.345805
     32          7           0       -3.174773    1.812526   -0.027955
     33          8           0       -4.192269    2.249038    0.505707
     34          8           0       -2.228979    2.496037   -0.413862
 ---------------------------------------------------------------------

 SCF Done:  E(RHF) =  -669.534358465     A.U. after   15 cycles
 E2 =    -0.2092467782D+01 EUMP2 =    -0.67162682624643D+03

 The electronic state is 1-A.
 Alpha  occ. eigenvalues --  -20.60767 -20.60761 -15.85820 -11.31170 -11.27737
 Alpha  occ. eigenvalues --  -11.27725 -11.27465 -11.26747 -11.26729 -11.21786
 Alpha  occ. eigenvalues --  -11.21751 -11.21663 -11.21531 -11.21350 -11.21167
 Alpha  occ. eigenvalues --   -1.59842  -1.39396  -1.19345  -1.08737  -1.08633
 Alpha  occ. eigenvalues --   -1.04760  -1.03718  -0.96189  -0.95577  -0.87209
 Alpha  occ. eigenvalues --   -0.86147  -0.82416  -0.79794  -0.78460  -0.77458
 Alpha  occ. eigenvalues --   -0.72040  -0.71165  -0.70466  -0.65271  -0.64997
 Alpha  occ. eigenvalues --   -0.64750  -0.62137  -0.61104  -0.59545  -0.57805
 Alpha  occ. eigenvalues --   -0.55518  -0.55240  -0.53291  -0.52843  -0.52820
 Alpha  occ. eigenvalues --   -0.52450  -0.50115  -0.48796  -0.48794  -0.48106
 Alpha  occ. eigenvalues --   -0.46816  -0.45999  -0.45915  -0.44802  -0.43977
 Alpha  occ. eigenvalues --   -0.37318  -0.36247
 Alpha virt. eigenvalues --    0.05056   0.11231   0.16528   0.20699   0.22795
 Alpha virt. eigenvalues --    0.24049   0.25922   0.26605   0.27512   0.28101
 Alpha virt. eigenvalues --    0.29134   0.30258   0.31444   0.31714   0.32006

 Mulliken charges:
               1
     1  C   -0.298448
     2  C   -0.299902
     3  C   -0.475911
     4  H    0.152571
     5  H    0.149855
     6  H    0.152474
     7  H    0.150401
     8  H    0.155148
     9  H    0.156675
    10  H    0.160495
    11  C   -0.298242
    12  C   -0.300394
    13  C   -0.475777
    14  H    0.147387
    15  H    0.146040
    16  H    0.156951
    17  H    0.151945
    18  H    0.147802
    19  H    0.154669
    20  H    0.163609
    21  C   -0.171794
    22  C   -0.212005
    23  C   -0.171837
    24  C    0.158218
    25  C   -0.171611
    26  C   -0.218250
    27  H    0.225435
    28  H    0.224457
    29  H    0.274569
    30  H    0.275414
    31  H    0.223282
    32  N    0.488258
    33  O   -0.460322
    34  O   -0.461165
 Sum of Mulliken charges =  -0.00000

 Dipole moment (field-independent basis, Debye):
    X=              0.3451    Y=             -5.1300    Z=             -0.6348  Tot=              5.1807
 Quadrupole moment (field-independent basis, Debye-Ang):
   XX=            -93.7119   YY=            -98.2332   ZZ=            -94.1863
   XY=             16.3595   XZ=              0.0119   YZ=              0.5326

 Normal termination of Gaussian 16 at Wed May  5 21:41:41 2021.
