 Gaussian 16, Revision A.03,
 Gaussian 16:  EM64L-G16RevA.03 25-Dec-2016

 -------------
 #p 6-31g* mp2
 -------------

 ------------------------------------------------------
 Input file generated by CHIRIPA (05-May-2021 14:51:08)
 ------------------------------------------------------
 Symbolic Z-matrix:
 Charge =  0 Multiplicity = 1

                         Standard orientation:
 ---------------------------------------------------------------------
 Center     Atomic      Atomic             Coordinates (Angstroms)
 Number     Number       Type             X           Y           Z
 ---------------------------------------------------------------------
      1          6           0       -2.108356   -1.497576    0.193977
      2          6           0       -0.805051   -1.825748   -0.535190
      3          6           0       -0.165025   -3.125295   -0.045966
      4          1           0       -1.910082   -1.427081    1.272245
      5          1           0       -2.814721   -2.328491    0.059724
      6          1           0       -0.101849   -0.993852   -0.400758
      7          1           0       -1.006415   -1.895282   -1.611867
      8          1           0       -0.845491   -3.969861   -0.195216
      9          1           0        0.064214   -3.063310    1.022775
     10          1           0        0.765386   -3.340670   -0.580577
     11          6           0       -2.760137   -0.201274   -0.284052
     12          6           0       -4.063442    0.126898    0.445115
     13          6           0       -4.703468    1.426444   -0.044109
     14          1           0       -2.053771    0.629640   -0.149799
     15          1           0       -2.958411   -0.271770   -1.362321
     16          1           0       -3.862078    0.196431    1.521792
     17          1           0       -4.766644   -0.704998    0.310682
     18          1           0       -4.932707    1.364459   -1.112850
     19          1           0       -4.023002    2.271010    0.105141
     20          1           0       -5.633879    1.641820    0.490502
     21          6           0        2.270351    1.485909   -0.344140
     22          6           0        1.671569    2.591466    0.526025
     23          6           0        1.349022    3.858407   -0.266829
     24          1           0        3.183653    1.861262   -0.825735
     25          1           0        1.567106    1.244235   -1.153113
     26          1           0        2.375132    2.830016    1.333927
     27          1           0        0.759690    2.213374    1.005754
     28          1           0        0.629148    3.641949   -1.062774
     29          1           0        2.253769    4.262094   -0.732736
     30          1           0        0.922032    4.635628    0.374630
     31          6           0        2.598142    0.212942    0.434216
     32          6           0        3.196925   -0.892615   -0.435950
     33          6           0        3.519471   -2.159557    0.356904
     34          1           0        3.301386    0.454615    1.243188
     35          1           0        1.684840   -0.162412    0.915810
     36          1           0        4.108803   -0.514524   -0.915679
     37          1           0        2.493360   -1.131166   -1.243853
     38          1           0        2.614723   -2.563244    0.822811
     39          1           0        4.239345   -1.943099    1.152850
     40          1           0        3.946460   -2.936778   -0.284554
 ---------------------------------------------------------------------

 SCF Done:  E(RHF) =  -470.731912120     A.U. after   11 cycles
 E2 =    -0.1585345086D+01 EUMP2 =    -0.47231725720512D+03

 The electronic state is 1-A.
 Alpha  occ. eigenvalues --  -11.21648 -11.21646 -11.21645 -11.21572 -11.21470
 Alpha  occ. eigenvalues --  -11.21421 -11.21410 -11.21357 -11.21114 -11.21101
 Alpha  occ. eigenvalues --  -11.21099 -11.20949  -1.08539  -1.08408  -1.03653
 Alpha  occ. eigenvalues --   -1.03471  -0.96088  -0.95936  -0.87128  -0.86928
 Alpha  occ. eigenvalues --   -0.79685  -0.79571  -0.78312  -0.78265  -0.65515
 Alpha  occ. eigenvalues --   -0.64803  -0.61329  -0.60702  -0.59357  -0.59303
 Alpha  occ. eigenvalues --   -0.57628  -0.57580  -0.55470  -0.55182  -0.52751
 Alpha  occ. eigenvalues --   -0.52652  -0.52454  -0.52375  -0.50226  -0.49685
 Alpha  occ. eigenvalues --   -0.47968  -0.47879  -0.46700  -0.46585  -0.46036
 Alpha  occ. eigenvalues --   -0.45814  -0.45729  -0.45497  -0.43818  -0.43788
 Alpha virt. eigenvalues --    0.19435   0.22204   0.23497   0.25202   0.26048
 Alpha virt. eigenvalues --    0.26253   0.26822   0.27819   0.28489   0.29863
 Alpha virt. eigenvalues --    0.30373   0.31292   0.31787   0.32060   0.32180

 Mulliken charges:
               1
     1  C   -0.298255
     2  C   -0.309069
     3  C   -0.480512
     4  H    0.149518
     5  H    0.150080
     6  H    0.161163
     7  H    0.152073
     8  H    0.156048
     9  H    0.154607
    10  H    0.166073
    11  C   -0.299045
    12  C   -0.299668
    13  C   -0.475828
    14  H    0.149299
    15  H    0.149872
    16  H    0.152055
    17  H    0.152170
    18  H    0.155229
    19  H    0.155378
    20  H    0.160460
    21  C   -0.300361
    22  C   -0.299996
    23  C   -0.475873
    24  H    0.150270
    25  H    0.150774
    26  H    0.152274
    27  H    0.151097
    28  H    0.155516
    29  H    0.155452
    30  H    0.160259
    31  C   -0.301927
    32  C   -0.301867
    33  C   -0.481417
    34  H    0.150728
    35  H    0.150833
    36  H    0.152202
    37  H    0.153878
    38  H    0.163126
    39  H    0.154423
    40  H    0.158959
 Sum of Mulliken charges =  -0.00000

 Dipole moment (field-independent basis, Debye):
    X=             -0.0186    Y=             -0.0181    Z=             -0.0095  Tot=              0.0276
 Quadrupole moment (field-independent basis, Debye-Ang):
   XX=            -84.1431   YY=            -86.0968   ZZ=            -84.5048
   XY=              1.4661   XZ=              0.2718   YZ=              1.0894

 Normal termination of Gaussian 16 at Wed May  5 21:17:36 2021.
