 Gaussian 16, Revision A.03,
 Gaussian 16:  EM64L-G16RevA.03 25-Dec-2016

 -------------
 #p 6-31g* mp2
 -------------

 ------------------------------------------------------
 Input file generated by CHIRIPA (05-May-2021 14:51:14)
 ------------------------------------------------------
 Symbolic Z-matrix:
 Charge =  0 Multiplicity = 1

                         Standard orientation:
 ---------------------------------------------------------------------
 Center     Atomic      Atomic             Coordinates (Angstroms)
 Number     Number       Type             X           Y           Z
 ---------------------------------------------------------------------
      1          6           0        4.136743   -0.632290    0.286914
      2          6           0        4.941969   -1.684356   -0.476468
      3          6           0        5.046399   -3.010527    0.277295
      4          1           0        4.603128   -0.462846    1.267077
      5          1           0        3.129000   -1.023588    0.483727
      6          1           0        5.947449   -1.290650   -0.672993
      7          1           0        4.473723   -1.851176   -1.455004
      8          1           0        4.051412   -3.428910    0.460481
      9          1           0        5.533512   -2.865200    1.246935
     10          1           0        5.626071   -3.748141   -0.286413
     11          6           0        4.023465    0.698957   -0.453813
     12          6           0        3.218239    1.751023    0.309570
     13          6           0        3.113809    3.077194   -0.444193
     14          1           0        5.031208    1.090255   -0.650625
     15          1           0        3.557080    0.529513   -1.433975
     16          1           0        3.686485    1.917843    1.288106
     17          1           0        2.212759    1.357317    0.506094
     18          1           0        2.626697    2.931867   -1.413834
     19          1           0        4.108796    3.495577   -0.627379
     20          1           0        2.534138    3.814808    0.119515
     21          6           0       -4.615158   -0.382550   -0.335117
     22          6           0       -6.013471   -0.301487    0.278180
     23          6           0       -7.072999   -1.004700   -0.570753
     24          1           0       -4.636048    0.061456   -1.339790
     25          1           0       -4.340266   -1.438385   -0.465656
     26          1           0       -6.285082    0.753872    0.408802
     27          1           0       -5.989206   -0.745563    1.281585
     28          1           0       -6.828922   -2.065182   -0.690763
     29          1           0       -7.126479   -0.557228   -1.568505
     30          1           0       -8.065044   -0.934492   -0.113832
     31          6           0       -3.545050    0.315882    0.502016
     32          6           0       -2.146737    0.234820   -0.111281
     33          6           0       -1.087209    0.938032    0.737651
     34          1           0       -3.819942    1.371718    0.632554
     35          1           0       -3.524161   -0.128123    1.506688
     36          1           0       -2.171002    0.678897   -1.114687
     37          1           0       -1.875127   -0.820539   -0.241904
     38          1           0       -1.033729    0.490561    1.735403
     39          1           0       -1.331286    1.998516    0.857661
     40          1           0       -0.095164    0.867826    0.280730
 ---------------------------------------------------------------------

 SCF Done:  E(RHF) =  -470.733311655     A.U. after   11 cycles
 E2 =    -0.1582378698D+01 EUMP2 =    -0.47231569035207D+03

 The electronic state is 1-A.
 Alpha  occ. eigenvalues --  -11.21644 -11.21618 -11.21590 -11.21542 -11.21431
 Alpha  occ. eigenvalues --  -11.21385 -11.21371 -11.21326 -11.21111 -11.21085
 Alpha  occ. eigenvalues --  -11.21063 -11.21037  -1.08458  -1.08409  -1.03565
 Alpha  occ. eigenvalues --   -1.03501  -0.96014  -0.95953  -0.87035  -0.86967
 Alpha  occ. eigenvalues --   -0.79653  -0.79541  -0.78271  -0.78218  -0.65086
 Alpha  occ. eigenvalues --   -0.65054  -0.60956  -0.60943  -0.59434  -0.59263
 Alpha  occ. eigenvalues --   -0.57641  -0.57543  -0.55295  -0.55244  -0.52752
 Alpha  occ. eigenvalues --   -0.52635  -0.52442  -0.52369  -0.49948  -0.49895
 Alpha  occ. eigenvalues --   -0.47991  -0.47842  -0.46653  -0.46595  -0.45811
 Alpha  occ. eigenvalues --   -0.45763  -0.45735  -0.45693  -0.43792  -0.43725
 Alpha virt. eigenvalues --    0.21458   0.23005   0.23808   0.24821   0.26098
 Alpha virt. eigenvalues --    0.26632   0.27197   0.27475   0.28019   0.28689
 Alpha virt. eigenvalues --    0.30516   0.31360   0.31693   0.31774   0.32066

 Mulliken charges:
               1
     1  C   -0.298344
     2  C   -0.299629
     3  C   -0.475684
     4  H    0.149764
     5  H    0.149310
     6  H    0.151949
     7  H    0.151879
     8  H    0.155113
     9  H    0.155182
    10  H    0.160200
    11  C   -0.297875
    12  C   -0.308293
    13  C   -0.475174
    14  H    0.149517
    15  H    0.149170
    16  H    0.152110
    17  H    0.159922
    18  H    0.154691
    19  H    0.155036
    20  H    0.160514
    21  C   -0.298240
    22  C   -0.299653
    23  C   -0.475718
    24  H    0.149682
    25  H    0.149509
    26  H    0.151991
    27  H    0.151990
    28  H    0.155192
    29  H    0.155201
    30  H    0.160324
    31  C   -0.298723
    32  C   -0.299109
    33  C   -0.482039
    34  H    0.149684
    35  H    0.149757
    36  H    0.151998
    37  H    0.151691
    38  H    0.155556
    39  H    0.155801
    40  H    0.165745
 Sum of Mulliken charges =  -0.00000

 Dipole moment (field-independent basis, Debye):
    X=             -0.0225    Y=              0.0054    Z=              0.0107  Tot=              0.0255
 Quadrupole moment (field-independent basis, Debye-Ang):
   XX=            -84.8532   YY=            -85.1775   ZZ=            -84.7546
   XY=             -0.1262   XZ=              0.0011   YZ=             -0.0953

 Normal termination of Gaussian 16 at Thu May  6 02:25:52 2021.
