 Gaussian 16, Revision A.03,
 Gaussian 16:  EM64L-G16RevA.03 25-Dec-2016

 -------------
 #p 6-31g* mp2
 -------------

 ------------------------------------------------------
 Input file generated by CHIRIPA (05-May-2021 14:51:07)
 ------------------------------------------------------
 Symbolic Z-matrix:
 Charge =  0 Multiplicity = 1

                         Standard orientation:
 ---------------------------------------------------------------------
 Center     Atomic      Atomic             Coordinates (Angstroms)
 Number     Number       Type             X           Y           Z
 ---------------------------------------------------------------------
      1          6           0       -4.627566   -0.166775    0.372021
      2          6           0       -5.861299   -0.507794   -0.464396
      3          6           0       -7.170412   -0.269656    0.288802
      4          1           0       -4.637974   -0.768228    1.291309
      5          1           0       -4.685098    0.884719    0.685780
      6          1           0       -5.800774   -1.557951   -0.777643
      7          1           0       -5.847852    0.094402   -1.381890
      8          1           0       -7.257333    0.779905    0.587913
      9          1           0       -7.209988   -0.881837    1.195593
     10          1           0       -8.039480   -0.519840   -0.327631
     11          6           0       -3.311158   -0.399626   -0.367290
     12          6           0       -2.077425   -0.058607    0.469127
     13          6           0       -0.768312   -0.296745   -0.284071
     14          1           0       -3.253626   -1.451120   -0.681049
     15          1           0       -3.300750    0.201827   -1.286578
     16          1           0       -2.090872   -0.660803    1.386621
     17          1           0       -2.137950    0.991550    0.782374
     18          1           0       -0.728736    0.315435   -1.190862
     19          1           0       -0.681391   -1.346306   -0.583182
     20          1           0        0.100756   -0.046561    0.332362
     21          6           0        4.611312   -0.066071    0.219763
     22          6           0        4.705502   -1.518003   -0.250349
     23          6           0        5.995331   -2.203300    0.201872
     24          1           0        5.477654    0.492590   -0.160097
     25          1           0        4.677574   -0.037959    1.316219
     26          1           0        4.637693   -1.543485   -1.345506
     27          1           0        3.838736   -2.073228    0.130515
     28          1           0        6.066781   -2.207424    1.294336
     29          1           0        6.870279   -1.674671   -0.190072
     30          1           0        6.041924   -3.240274   -0.145077
     31          6           0        3.327411    0.632472   -0.224494
     32          6           0        3.233222    2.084404    0.245618
     33          6           0        1.943393    2.769701   -0.206603
     34          1           0        3.261151    0.604360   -1.320950
     35          1           0        2.461070    0.073811    0.155366
     36          1           0        4.099989    2.639629   -0.135247
     37          1           0        3.301031    2.109886    1.340775
     38          1           0        1.068446    2.241073    0.185341
     39          1           0        1.871942    2.773825   -1.299068
     40          1           0        1.896800    3.806676    0.140346
 ---------------------------------------------------------------------

 SCF Done:  E(RHF) =  -470.732580706     A.U. after   11 cycles
 E2 =    -0.1583174288D+01 EUMP2 =    -0.47231575499408D+03

 The electronic state is 1-A.
 Alpha  occ. eigenvalues --  -11.21619 -11.21603 -11.21565 -11.21557 -11.21411
 Alpha  occ. eigenvalues --  -11.21351 -11.21351 -11.21282 -11.21072 -11.21054
 Alpha  occ. eigenvalues --  -11.21045 -11.20988  -1.08441  -1.08383  -1.03557
 Alpha  occ. eigenvalues --   -1.03473  -0.95999  -0.95928  -0.87017  -0.86948
 Alpha  occ. eigenvalues --   -0.79659  -0.79503  -0.78262  -0.78181  -0.65076
 Alpha  occ. eigenvalues --   -0.65033  -0.60999  -0.60874  -0.59480  -0.59185
 Alpha  occ. eigenvalues --   -0.57615  -0.57534  -0.55347  -0.55153  -0.52760
 Alpha  occ. eigenvalues --   -0.52608  -0.52417  -0.52361  -0.49984  -0.49822
 Alpha  occ. eigenvalues --   -0.47962  -0.47826  -0.46640  -0.46556  -0.45800
 Alpha  occ. eigenvalues --   -0.45737  -0.45708  -0.45666  -0.43749  -0.43669
 Alpha virt. eigenvalues --    0.21442   0.23042   0.23583   0.25037   0.26125
 Alpha virt. eigenvalues --    0.26576   0.27102   0.27462   0.27710   0.29345
 Alpha virt. eigenvalues --    0.30653   0.31343   0.31445   0.31828   0.32087

 Mulliken charges:
               1
     1  C   -0.298244
     2  C   -0.299645
     3  C   -0.475706
     4  H    0.149572
     5  H    0.149627
     6  H    0.151913
     7  H    0.152013
     8  H    0.155220
     9  H    0.155148
    10  H    0.160268
    11  C   -0.298684
    12  C   -0.300629
    13  C   -0.481108
    14  H    0.149605
    15  H    0.149940
    16  H    0.151694
    17  H    0.152334
    18  H    0.156969
    19  H    0.155170
    20  H    0.164975
    21  C   -0.297702
    22  C   -0.299584
    23  C   -0.475673
    24  H    0.149484
    25  H    0.149075
    26  H    0.152000
    27  H    0.151989
    28  H    0.155046
    29  H    0.155116
    30  H    0.160123
    31  C   -0.304229
    32  C   -0.299662
    33  C   -0.479878
    34  H    0.149622
    35  H    0.155843
    36  H    0.151733
    37  H    0.151162
    38  H    0.160990
    39  H    0.154702
    40  H    0.159414
 Sum of Mulliken charges =  -0.00000

 Dipole moment (field-independent basis, Debye):
    X=             -0.0283    Y=             -0.0130    Z=             -0.0142  Tot=              0.0342
 Quadrupole moment (field-independent basis, Debye-Ang):
   XX=            -86.5820   YY=            -84.2698   ZZ=            -84.1512
   XY=              0.7390   XZ=             -0.2044   YZ=             -0.5137

 Normal termination of Gaussian 16 at Wed May  5 22:53:02 2021.
