 Gaussian 16, Revision A.03,
 Gaussian 16:  EM64L-G16RevA.03 25-Dec-2016

 -------------
 #p 6-31g* mp2
 -------------

 ------------------------------------------------------
 Input file generated by CHIRIPA (05-May-2021 14:57:25)
 ------------------------------------------------------
 Symbolic Z-matrix:
 Charge =  0 Multiplicity = 1

                         Standard orientation:
 ---------------------------------------------------------------------
 Center     Atomic      Atomic             Coordinates (Angstroms)
 Number     Number       Type             X           Y           Z
 ---------------------------------------------------------------------
      1          6           0        3.371389   -1.191360    0.560650
      2          6           0        3.142136   -0.791069   -0.759854
      3          6           0        2.325102    0.309123   -1.036587
      4          6           0        1.750726    0.989170    0.036222
      5          6           0        1.960031    0.614808    1.362621
      6          6           0        2.780647   -0.488384    1.615813
      7          1           0        4.007472   -2.047181    0.766480
      8          1           0        3.599602   -1.335128   -1.581297
      9          1           0        2.130764    0.640597   -2.049393
     10          1           0        1.490173    1.176982    2.160500
     11          1           0        2.956921   -0.796993    2.642328
     12          7           0        0.883873    2.155482   -0.244282
     13          8           0        0.389526    2.737864    0.718573
     14          8           0        0.715195    2.465172   -1.421685
     15          6           0       -3.872817    0.622902    0.575291
     16          6           0       -3.145770   -0.061346    1.554948
     17          6           0       -2.047349   -0.850940    1.202018
     18          6           0       -1.702250   -0.934214   -0.146040
     19          6           0       -2.406742   -0.264534   -1.145295
     20          6           0       -3.501636    0.519307   -0.769334
     21          1           0       -4.724726    1.234044    0.858401
     22          1           0       -3.431747    0.017263    2.599975
     23          1           0       -1.466949   -1.391298    1.939967
     24          1           0       -2.097577   -0.362330   -2.178867
     25          1           0       -4.064432    1.049589   -1.532294
     26          7           0       -0.541267   -1.767077   -0.531863
     27          8           0       -0.257572   -1.824033   -1.726396
     28          8           0        0.063032   -2.347148    0.367569
 ---------------------------------------------------------------------

 SCF Done:  E(RHF) =  -868.339017777     A.U. after   16 cycles
 E2 =    -0.2604622773D+01 EUMP2 =    -0.87094364055011D+03

 The electronic state is 1-A.
 Alpha  occ. eigenvalues --  -20.60817 -20.60757 -20.60301 -20.60295 -15.85792
 Alpha  occ. eigenvalues --  -15.85342 -11.30887 -11.30300 -11.27468 -11.27384
 Alpha  occ. eigenvalues --  -11.27090 -11.26892 -11.26773 -11.26459 -11.26395
 Alpha  occ. eigenvalues --  -11.26316 -11.25767 -11.25641  -1.59848  -1.59387
 Alpha  occ. eigenvalues --   -1.39415  -1.38949  -1.19024  -1.18435  -1.08476
 Alpha  occ. eigenvalues --   -1.07884  -1.04381  -1.03766  -0.95361  -0.94802
 Alpha  occ. eigenvalues --   -0.85803  -0.85202  -0.82214  -0.81655  -0.77295
 Alpha  occ. eigenvalues --   -0.76758  -0.72065  -0.71574  -0.71345  -0.70584
 Alpha  occ. eigenvalues --   -0.70136  -0.69548  -0.64686  -0.64395  -0.64085
 Alpha  occ. eigenvalues --   -0.63791  -0.61751  -0.61155  -0.54902  -0.54291
 Alpha  occ. eigenvalues --   -0.52733  -0.52486  -0.52055  -0.51883  -0.48827
 Alpha  occ. eigenvalues --   -0.48745  -0.48341  -0.48290  -0.44948  -0.44429
 Alpha  occ. eigenvalues --   -0.37120  -0.36209  -0.35919  -0.35202
 Alpha virt. eigenvalues --    0.05008   0.05950   0.11564   0.12462   0.16731
 Alpha virt. eigenvalues --    0.17427   0.21770   0.22374   0.27653   0.28264
 Alpha virt. eigenvalues --    0.28601   0.29253   0.31315   0.31875   0.32712

 Mulliken charges:
               1
     1  C   -0.156952
     2  C   -0.207090
     3  C   -0.164927
     4  C    0.143588
     5  C   -0.173968
     6  C   -0.210837
     7  H    0.224391
     8  H    0.224331
     9  H    0.274251
    10  H    0.268109
    11  H    0.218247
    12  N    0.489119
    13  O   -0.465850
    14  O   -0.464367
    15  C   -0.166538
    16  C   -0.215233
    17  C   -0.170884
    18  C    0.152429
    19  C   -0.167023
    20  C   -0.213991
    21  H    0.226441
    22  H    0.221891
    23  H    0.270207
    24  H    0.276116
    25  H    0.225531
    26  N    0.489756
    27  O   -0.464481
    28  O   -0.462266
 Sum of Mulliken charges =  -0.00000

 Dipole moment (field-independent basis, Debye):
    X=             -1.0532    Y=             -1.3771    Z=              2.2060  Tot=              2.8057
 Quadrupole moment (field-independent basis, Debye-Ang):
   XX=            -80.1300   YY=           -119.9209   ZZ=            -95.9240
   XY=             -6.9813   XZ=             -0.0880   YZ=             -1.5711

 Normal termination of Gaussian 16 at Fri May  7 09:36:08 2021.
