 Gaussian 16, Revision A.03,
 Gaussian 16:  EM64L-G16RevA.03 25-Dec-2016

 -------------
 #p 6-31g* mp2
 -------------

 ------------------------------------------------------
 Input file generated by CHIRIPA (05-May-2021 14:51:09)
 ------------------------------------------------------
 Symbolic Z-matrix:
 Charge =  0 Multiplicity = 1

                         Standard orientation:
 ---------------------------------------------------------------------
 Center     Atomic      Atomic             Coordinates (Angstroms)
 Number     Number       Type             X           Y           Z
 ---------------------------------------------------------------------
      1          6           0        3.448458   -0.474767   -0.391611
      2          6           0        2.348107   -1.533203   -0.308393
      3          6           0        2.820257   -2.913940   -0.764939
      4          1           0        3.813851   -0.415413   -1.425976
      5          1           0        4.301434   -0.793501    0.223398
      6          1           0        1.496911   -1.211907   -0.922274
      7          1           0        1.985159   -1.589908    0.725855
      8          1           0        3.654799   -3.259687   -0.146393
      9          1           0        3.163777   -2.879538   -1.803886
     10          1           0        2.017920   -3.655247   -0.697272
     11          6           0        2.991751    0.910824    0.061473
     12          6           0        4.092102    1.969260   -0.021745
     13          6           0        3.619953    3.349997    0.434801
     14          1           0        2.138776    1.229558   -0.553536
     15          1           0        2.626359    0.851470    1.095838
     16          1           0        4.455050    2.025966   -1.055993
     17          1           0        4.943299    1.647965    0.592136
     18          1           0        3.276433    3.315595    1.473748
     19          1           0        2.785410    3.695744   -0.183745
     20          1           0        4.422290    4.091304    0.367134
     21          6           0       -2.918556   -0.919435    0.142052
     22          6           0       -1.608001   -1.041862    0.920154
     23          6           0       -1.017009   -2.450921    0.864717
     24          1           0       -3.644758   -1.639246    0.543855
     25          1           0       -2.743255   -1.203598   -0.904808
     26          1           0       -1.785416   -0.756223    1.964927
     27          1           0       -0.884896   -0.321542    0.516578
     28          1           0       -0.811762   -2.742130   -0.170499
     29          1           0       -1.717398   -3.179282    1.286081
     30          1           0       -0.080549   -2.515923    1.427459
     31          6           0       -3.521654    0.483378    0.188086
     32          6           0       -4.832209    0.605804   -0.590016
     33          6           0       -5.423200    2.014864   -0.534579
     34          1           0       -3.696955    0.767541    1.234946
     35          1           0       -2.795451    1.203189   -0.213717
     36          1           0       -5.555313   -0.114515   -0.186440
     37          1           0       -4.654793    0.320166   -1.634789
     38          1           0       -4.722811    2.743225   -0.955943
     39          1           0       -5.628447    2.306074    0.500637
     40          1           0       -6.359660    2.079865   -1.097321
 ---------------------------------------------------------------------

 SCF Done:  E(RHF) =  -470.732573003     A.U. after   11 cycles
 E2 =    -0.1583637379D+01 EUMP2 =    -0.47231621038238D+03

 The electronic state is 1-A.
 Alpha  occ. eigenvalues --  -11.21611 -11.21592 -11.21550 -11.21543 -11.21407
 Alpha  occ. eigenvalues --  -11.21384 -11.21339 -11.21324 -11.21079 -11.21064
 Alpha  occ. eigenvalues --  -11.21040 -11.20981  -1.08448  -1.08386  -1.03583
 Alpha  occ. eigenvalues --   -1.03440  -0.96024  -0.95900  -0.86996  -0.86963
 Alpha  occ. eigenvalues --   -0.79630  -0.79524  -0.78264  -0.78202  -0.65084
 Alpha  occ. eigenvalues --   -0.65022  -0.60979  -0.60904  -0.59537  -0.59137
 Alpha  occ. eigenvalues --   -0.57682  -0.57460  -0.55268  -0.55205  -0.52722
 Alpha  occ. eigenvalues --   -0.52585  -0.52453  -0.52325  -0.49914  -0.49882
 Alpha  occ. eigenvalues --   -0.47963  -0.47813  -0.46609  -0.46588  -0.45863
 Alpha  occ. eigenvalues --   -0.45744  -0.45686  -0.45595  -0.43789  -0.43713
 Alpha virt. eigenvalues --    0.21124   0.23166   0.23439   0.24861   0.25660
 Alpha virt. eigenvalues --    0.26177   0.26704   0.27367   0.28560   0.29321
 Alpha virt. eigenvalues --    0.29522   0.31016   0.31510   0.31957   0.32420

 Mulliken charges:
               1
     1  C   -0.298102
     2  C   -0.301128
     3  C   -0.478142
     4  H    0.149250
     5  H    0.149329
     6  H    0.152789
     7  H    0.154850
     8  H    0.154895
     9  H    0.154851
    10  H    0.162484
    11  C   -0.298588
    12  C   -0.299581
    13  C   -0.475692
    14  H    0.148845
    15  H    0.149857
    16  H    0.151953
    17  H    0.152050
    18  H    0.155300
    19  H    0.155035
    20  H    0.160292
    21  C   -0.298253
    22  C   -0.302669
    23  C   -0.476530
    24  H    0.149627
    25  H    0.149071
    26  H    0.151362
    27  H    0.154734
    28  H    0.155648
    29  H    0.154013
    30  H    0.162683
    31  C   -0.298184
    32  C   -0.299622
    33  C   -0.475675
    34  H    0.149545
    35  H    0.149469
    36  H    0.151945
    37  H    0.151776
    38  H    0.155105
    39  H    0.155207
    40  H    0.160197
 Sum of Mulliken charges =  -0.00000

 Dipole moment (field-independent basis, Debye):
    X=              0.0168    Y=             -0.0078    Z=              0.0087  Tot=              0.0204
 Quadrupole moment (field-independent basis, Debye-Ang):
   XX=            -84.9124   YY=            -86.7604   ZZ=            -83.2381
   XY=              0.7574   XZ=             -0.1006   YZ=             -0.6897

 Normal termination of Gaussian 16 at Wed May  5 22:58:51 2021.
