 Gaussian 16, Revision A.03,
 Gaussian 16:  EM64L-G16RevA.03 25-Dec-2016

 -------------
 #p 6-31g* mp2
 -------------

 ------------------------------------------------------
 Input file generated by CHIRIPA (05-May-2021 14:57:25)
 ------------------------------------------------------
 Symbolic Z-matrix:
 Charge =  0 Multiplicity = 1

                         Standard orientation:
 ---------------------------------------------------------------------
 Center     Atomic      Atomic             Coordinates (Angstroms)
 Number     Number       Type             X           Y           Z
 ---------------------------------------------------------------------
      1          6           0        2.392044    2.740420    0.191488
      2          6           0        2.929885    2.043501   -0.895504
      3          6           0        2.955792    0.645697   -0.900143
      4          6           0        2.432975   -0.026251    0.203687
      5          6           0        1.890366    0.639642    1.301617
      6          6           0        1.874913    2.037505    1.284652
      7          1           0        2.375979    3.826290    0.186700
      8          1           0        3.332197    2.586768   -1.745828
      9          1           0        3.366219    0.081049   -1.728479
     10          1           0        1.496714    0.070425    2.134953
     11          1           0        1.456594    2.576109    2.130206
     12          7           0        2.454869   -1.506074    0.210211
     13          8           0        1.988025   -2.074708    1.194767
     14          8           0        2.938458   -2.069306   -0.769354
     15          6           0       -3.650140    1.983985   -0.033878
     16          6           0       -2.425194    1.912462   -0.705379
     17          6           0       -1.740001    0.697917   -0.805061
     18          6           0       -2.311348   -0.430488   -0.218924
     19          6           0       -3.530076   -0.391358    0.456694
     20          6           0       -4.197706    0.833876    0.543996
     21          1           0       -4.175593    2.931625    0.038749
     22          1           0       -1.997562    2.804036   -1.155125
     23          1           0       -0.790175    0.614193   -1.319104
     24          1           0       -3.931224   -1.297158    0.894900
     25          1           0       -5.148856    0.886450    1.066102
     26          7           0       -1.595260   -1.721930   -0.317900
     27          8           0       -2.119840   -2.701673    0.207034
     28          8           0       -0.522969   -1.729965   -0.918538
 ---------------------------------------------------------------------

 SCF Done:  E(RHF) =  -868.336503420     A.U. after   16 cycles
 E2 =    -0.2603321679D+01 EUMP2 =    -0.87093982509915D+03

 The electronic state is 1-A.
 Alpha  occ. eigenvalues --  -20.60533 -20.60475 -20.59759 -20.59739 -15.85569
 Alpha  occ. eigenvalues --  -15.84841 -11.31150 -11.30814 -11.27754 -11.27740
 Alpha  occ. eigenvalues --  -11.27558 -11.27431 -11.27425 -11.27321 -11.26838
 Alpha  occ. eigenvalues --  -11.26804 -11.26628 -11.26617  -1.59558  -1.58775
 Alpha  occ. eigenvalues --   -1.39121  -1.38341  -1.19354  -1.19045  -1.08709
 Alpha  occ. eigenvalues --   -1.08320  -1.04787  -1.04536  -0.95504  -0.95057
 Alpha  occ. eigenvalues --   -0.86178  -0.85897  -0.82345  -0.81904  -0.77358
 Alpha  occ. eigenvalues --   -0.76827  -0.71916  -0.71099  -0.70983  -0.70468
 Alpha  occ. eigenvalues --   -0.70145  -0.69804  -0.64998  -0.64796  -0.64679
 Alpha  occ. eigenvalues --   -0.64539  -0.62132  -0.61864  -0.55293  -0.55030
 Alpha  occ. eigenvalues --   -0.53186  -0.52973  -0.52682  -0.52624  -0.48528
 Alpha  occ. eigenvalues --   -0.48516  -0.47855  -0.47783  -0.44558  -0.43557
 Alpha  occ. eigenvalues --   -0.37373  -0.37044  -0.36515  -0.36061
 Alpha virt. eigenvalues --    0.05147   0.05792   0.11126   0.11572   0.16621
 Alpha virt. eigenvalues --    0.17121   0.21304   0.21570   0.27163   0.27452
 Alpha virt. eigenvalues --    0.28160   0.28504   0.30715   0.31112   0.32310

 Mulliken charges:
               1
     1  C   -0.177027
     2  C   -0.221711
     3  C   -0.174031
     4  C    0.166160
     5  C   -0.174750
     6  C   -0.218942
     7  H    0.221478
     8  H    0.221416
     9  H    0.277606
    10  H    0.276026
    11  H    0.220873
    12  N    0.499285
    13  O   -0.458491
    14  O   -0.457906
    15  C   -0.172091
    16  C   -0.219805
    17  C   -0.170699
    18  C    0.157233
    19  C   -0.170918
    20  C   -0.219094
    21  H    0.223913
    22  H    0.220096
    23  H    0.276075
    24  H    0.276984
    25  H    0.223209
    26  N    0.491516
    27  O   -0.454031
    28  O   -0.462373
 Sum of Mulliken charges =  -0.00000

 Dipole moment (field-independent basis, Debye):
    X=             -2.6212    Y=              9.2645    Z=              0.3221  Tot=              9.6336
 Quadrupole moment (field-independent basis, Debye-Ang):
   XX=            -91.0916   YY=           -109.3987   ZZ=           -100.4853
   XY=              4.7971   XZ=             -4.9809   YZ=             -1.4134

 Normal termination of Gaussian 16 at Thu May  6 06:44:46 2021.
