 Gaussian 16, Revision A.03,
 Gaussian 16:  EM64L-G16RevA.03 25-Dec-2016

 -------------
 #p 6-31g* mp2
 -------------

 ------------------------------------------------------
 Input file generated by CHIRIPA (05-May-2021 14:51:13)
 ------------------------------------------------------
 Symbolic Z-matrix:
 Charge =  0 Multiplicity = 1

                         Standard orientation:
 ---------------------------------------------------------------------
 Center     Atomic      Atomic             Coordinates (Angstroms)
 Number     Number       Type             X           Y           Z
 ---------------------------------------------------------------------
      1          6           0       -2.188030    1.593278    0.391427
      2          6           0       -1.000587    2.455474   -0.038205
      3          6           0       -0.818045    3.691557    0.843028
      4          1           0       -3.102618    2.201432    0.366491
      5          1           0       -2.047674    1.282542    1.436002
      6          1           0       -1.142468    2.763346   -1.082092
      7          1           0       -0.088749    1.845145   -0.012427
      8          1           0       -0.651430    3.400486    1.885198
      9          1           0       -1.711136    4.323904    0.809455
     10          1           0        0.036305    4.293573    0.518185
     11          6           0       -2.383465    0.353848   -0.479979
     12          6           0       -3.570907   -0.508348   -0.050347
     13          6           0       -3.753449   -1.744431   -0.931580
     14          1           0       -2.523821    0.664584   -1.524554
     15          1           0       -1.468876   -0.254305   -0.455043
     16          1           0       -4.482746    0.101981   -0.076125
     17          1           0       -3.429027   -0.816219    0.993540
     18          1           0       -2.860358   -2.376777   -0.898007
     19          1           0       -3.920064   -1.453359   -1.973750
     20          1           0       -4.607799   -2.346447   -0.606737
     21          6           0        2.863619   -0.507631    0.224283
     22          6           0        3.237656    0.457360   -0.901271
     23          6           0        4.395335    1.382985   -0.526047
     24          1           0        2.597747    0.069668    1.120377
     25          1           0        3.743995   -1.109153    0.489808
     26          1           0        2.356463    1.055924   -1.165539
     27          1           0        3.502484   -0.122298   -1.794847
     28          1           0        5.290243    0.801294   -0.282376
     29          1           0        4.137711    1.986211    0.350508
     30          1           0        4.646181    2.064378   -1.344973
     31          6           0        1.707875   -1.439496   -0.135732
     32          6           0        1.333838   -2.404487    0.989823
     33          6           0        0.176160   -3.330112    0.614599
     34          1           0        0.827498   -0.837973   -0.401256
     35          1           0        1.973748   -2.016795   -1.031825
     36          1           0        1.069011   -1.824828    1.883399
     37          1           0        2.215031   -3.003051    1.254091
     38          1           0        0.433783   -3.933338   -0.261957
     39          1           0       -0.718748   -2.748421    0.370927
     40          1           0       -0.074688   -4.011504    1.433525
 ---------------------------------------------------------------------

 SCF Done:  E(RHF) =  -470.732746208     A.U. after   11 cycles
 E2 =    -0.1585042340D+01 EUMP2 =    -0.47231778854850D+03

 The electronic state is 1-A.
 Alpha  occ. eigenvalues --  -11.21680 -11.21662 -11.21632 -11.21612 -11.21458
 Alpha  occ. eigenvalues --  -11.21439 -11.21394 -11.21380 -11.21134 -11.21132
 Alpha  occ. eigenvalues --  -11.21079 -11.21062  -1.08525  -1.08442  -1.03606
 Alpha  occ. eigenvalues --   -1.03545  -0.96050  -0.95996  -0.87071  -0.87008
 Alpha  occ. eigenvalues --   -0.79699  -0.79580  -0.78457  -0.78150  -0.65442
 Alpha  occ. eigenvalues --   -0.64821  -0.61199  -0.60778  -0.59431  -0.59342
 Alpha  occ. eigenvalues --   -0.57714  -0.57563  -0.55476  -0.55164  -0.52724
 Alpha  occ. eigenvalues --   -0.52702  -0.52545  -0.52347  -0.50107  -0.49810
 Alpha  occ. eigenvalues --   -0.48145  -0.47823  -0.46887  -0.46590  -0.46374
 Alpha  occ. eigenvalues --   -0.45802  -0.45791  -0.44979  -0.43831  -0.43818
 Alpha virt. eigenvalues --    0.19343   0.21375   0.24149   0.24856   0.25083
 Alpha virt. eigenvalues --    0.26644   0.27023   0.27353   0.28368   0.29758
 Alpha virt. eigenvalues --    0.31280   0.31572   0.31725   0.31781   0.31865

 Mulliken charges:
               1
     1  C   -0.297455
     2  C   -0.305811
     3  C   -0.475635
     4  H    0.150232
     5  H    0.149167
     6  H    0.152387
     7  H    0.156353
     8  H    0.155077
     9  H    0.155661
    10  H    0.160536
    11  C   -0.309803
    12  C   -0.299045
    13  C   -0.480525
    14  H    0.149980
    15  H    0.159033
    16  H    0.152319
    17  H    0.151862
    18  H    0.159730
    19  H    0.155337
    20  H    0.160594
    21  C   -0.297462
    22  C   -0.303313
    23  C   -0.475625
    24  H    0.149271
    25  H    0.149860
    26  H    0.155267
    27  H    0.152167
    28  H    0.155181
    29  H    0.155229
    30  H    0.160371
    31  C   -0.309241
    32  C   -0.298891
    33  C   -0.483548
    34  H    0.158587
    35  H    0.150179
    36  H    0.151334
    37  H    0.152501
    38  H    0.155782
    39  H    0.161454
    40  H    0.160903
 Sum of Mulliken charges =  -0.00000

 Dipole moment (field-independent basis, Debye):
    X=             -0.0041    Y=             -0.0009    Z=             -0.0141  Tot=              0.0147
 Quadrupole moment (field-independent basis, Debye-Ang):
   XX=            -84.6926   YY=            -85.3698   ZZ=            -84.5674
   XY=             -1.6623   XZ=             -0.1149   YZ=             -0.6763

 Normal termination of Gaussian 16 at Thu May  6 02:24:31 2021.
