 Gaussian 16, Revision A.03,
 Gaussian 16:  EM64L-G16RevA.03 25-Dec-2016

 -------------
 #p 6-31g* mp2
 -------------

 ------------------------------------------------------
 Input file generated by CHIRIPA (05-May-2021 14:53:17)
 ------------------------------------------------------
 Symbolic Z-matrix:
 Charge =  0 Multiplicity = 1

                         Standard orientation:
 ---------------------------------------------------------------------
 Center     Atomic      Atomic             Coordinates (Angstroms)
 Number     Number       Type             X           Y           Z
 ---------------------------------------------------------------------
      1          6           0        3.149557    0.944957    0.432913
      2          6           0        2.928517    2.227057   -0.370420
      3          6           0        2.334547    3.356983    0.471163
      4          1           0        2.192368    0.619619    0.862900
      5          1           0        3.815222    1.161427    1.279923
      6          1           0        2.264575    2.007925   -1.216456
      7          1           0        3.886309    2.549275   -0.798702
      8          1           0        2.997211    3.604190    1.306847
      9          1           0        1.366262    3.059764    0.886718
     10          1           0        2.184809    4.263950   -0.122849
     11          6           0        3.742875   -0.193805   -0.394687
     12          6           0        3.963916   -1.475906    0.408646
     13          6           0        4.557885   -2.605832   -0.432937
     14          1           0        3.077210   -0.410276   -1.241697
     15          1           0        4.700065    0.131532   -0.824674
     16          1           0        3.006123   -1.798124    0.836928
     17          1           0        4.627857   -1.256774    1.254683
     18          1           0        5.526170   -2.308613   -0.848492
     19          1           0        3.895221   -2.853039   -1.268620
     20          1           0        4.707623   -3.512798    0.161075
     21          6           0       -0.265699   -0.978408    0.074765
     22          6           0       -0.609224    0.343417   -0.227379
     23          6           0       -1.950531    0.734174   -0.279826
     24          6           0       -2.926957   -0.227196   -0.023603
     25          6           0       -2.616514   -1.551820    0.280186
     26          6           0       -1.268672   -1.920148    0.327139
     27          1           0        0.778800   -1.273245    0.113374
     28          1           0        0.167584    1.076919   -0.423816
     29          1           0       -2.244554    1.750730   -0.511305
     30          1           0       -3.413156   -2.260507    0.471350
     31          1           0       -1.004829   -2.947402    0.562043
     32          7           0       -4.350398    0.174608   -0.076219
     33          8           0       -5.191819   -0.691360    0.153444
     34          8           0       -4.597716    1.347903   -0.346126
 ---------------------------------------------------------------------

 SCF Done:  E(RHF) =  -669.533889256     A.U. after   15 cycles
 E2 =    -0.2094548489D+01 EUMP2 =    -0.67162843774442D+03

 The electronic state is 1-A.
 Alpha  occ. eigenvalues --  -20.60739 -20.60734 -15.85792 -11.31159 -11.27729
 Alpha  occ. eigenvalues --  -11.27718 -11.27418 -11.26734 -11.26677 -11.22896
 Alpha  occ. eigenvalues --  -11.22845 -11.22683 -11.22624 -11.22121 -11.22115
 Alpha  occ. eigenvalues --   -1.59815  -1.39368  -1.19329  -1.09750  -1.08714
 Alpha  occ. eigenvalues --   -1.04802  -1.04677  -0.97153  -0.95561  -0.88162
 Alpha  occ. eigenvalues --   -0.86138  -0.82397  -0.80796  -0.79527  -0.77450
 Alpha  occ. eigenvalues --   -0.72013  -0.71137  -0.70550  -0.66631  -0.64972
 Alpha  occ. eigenvalues --   -0.64559  -0.62496  -0.61698  -0.60504  -0.58748
 Alpha  occ. eigenvalues --   -0.56502  -0.55185  -0.53796  -0.53547  -0.53065
 Alpha  occ. eigenvalues --   -0.52800  -0.51096  -0.49084  -0.48766  -0.48752
 Alpha  occ. eigenvalues --   -0.47886  -0.47021  -0.46993  -0.44988  -0.44773
 Alpha  occ. eigenvalues --   -0.37289  -0.36328
 Alpha virt. eigenvalues --    0.05070   0.11183   0.16497   0.18430   0.21798
 Alpha virt. eigenvalues --    0.23725   0.25457   0.26050   0.26567   0.28012
 Alpha virt. eigenvalues --    0.29760   0.30439   0.30653   0.30925   0.32516

 Mulliken charges:
               1
     1  C   -0.306305
     2  C   -0.307866
     3  C   -0.478853
     4  H    0.145923
     5  H    0.157174
     6  H    0.146930
     7  H    0.160576
     8  H    0.161024
     9  H    0.153281
    10  H    0.165406
    11  C   -0.303463
    12  C   -0.304007
    13  C   -0.476519
    14  H    0.147029
    15  H    0.157347
    16  H    0.143925
    17  H    0.158693
    18  H    0.159835
    19  H    0.155008
    20  H    0.163481
    21  C   -0.181458
    22  C   -0.230080
    23  C   -0.173555
    24  C    0.158520
    25  C   -0.170642
    26  C   -0.221630
    27  H    0.239482
    28  H    0.238528
    29  H    0.276056
    30  H    0.275506
    31  H    0.223585
    32  N    0.487984
    33  O   -0.460555
    34  O   -0.460360
 Sum of Mulliken charges =  -0.00000

 Dipole moment (field-independent basis, Debye):
    X=              5.3355    Y=             -1.3368    Z=              0.2063  Tot=              5.5043
 Quadrupole moment (field-independent basis, Debye-Ang):
   XX=           -122.0939   YY=            -89.9613   ZZ=            -95.4948
   XY=              5.3704   XZ=             -0.5247   YZ=             -1.5198

 Normal termination of Gaussian 16 at Wed May  5 18:45:44 2021.
