 Gaussian 16, Revision A.03,
 Gaussian 16:  EM64L-G16RevA.03 25-Dec-2016

 -------------
 #p 6-31g* mp2
 -------------

 ------------------------------------------------------
 Input file generated by CHIRIPA (05-May-2021 14:51:08)
 ------------------------------------------------------
 Symbolic Z-matrix:
 Charge =  0 Multiplicity = 1

                         Standard orientation:
 ---------------------------------------------------------------------
 Center     Atomic      Atomic             Coordinates (Angstroms)
 Number     Number       Type             X           Y           Z
 ---------------------------------------------------------------------
      1          6           0        4.160087    0.160064    0.202338
      2          6           0        4.331936    1.610928   -0.248712
      3          6           0        5.669353    2.210780    0.186361
      4          1           0        4.247436    0.110076    1.296329
      5          1           0        4.983337   -0.443141   -0.204845
      6          1           0        3.507846    2.210951    0.158059
      7          1           0        4.243977    1.657496   -1.341740
      8          1           0        6.502985    1.636986   -0.231273
      9          1           0        5.762671    2.193586    1.277048
     10          1           0        5.771228    3.248402   -0.146539
     11          6           0        2.827950   -0.453487   -0.225089
     12          6           0        2.656100   -1.904351    0.225961
     13          6           0        1.318683   -2.504204   -0.209112
     14          1           0        2.004699    0.149718    0.182094
     15          1           0        2.740600   -0.403499   -1.319080
     16          1           0        2.744059   -1.950919    1.318989
     17          1           0        3.480191   -2.504374   -0.180810
     18          1           0        1.225365   -2.487009   -1.299799
     19          1           0        0.485051   -1.930409    0.208522
     20          1           0        1.216808   -3.541825    0.123788
     21          6           0       -3.488339   -0.545389    0.334481
     22          6           0       -2.672773   -1.573971   -0.449643
     23          6           0       -2.670944   -2.953661    0.209330
     24          1           0       -3.084647   -0.466226    1.353162
     25          1           0       -4.521364   -0.906209    0.434803
     26          1           0       -1.641932   -1.210676   -0.549650
     27          1           0       -3.078333   -1.650554   -1.466635
     28          1           0       -3.691337   -3.341049    0.294935
     29          1           0       -2.246776   -2.898671    1.217129
     30          1           0       -2.082102   -3.673431   -0.367781
     31          6           0       -3.499697    0.838812   -0.311730
     32          6           0       -4.315263    1.867394    0.472395
     33          6           0       -4.317093    3.247085   -0.186579
     34          1           0       -2.466672    1.199631   -0.412052
     35          1           0       -3.903389    0.759649   -1.330411
     36          1           0       -3.909703    1.943977    1.489386
     37          1           0       -5.346104    1.504099    0.572402
     38          1           0       -4.741261    3.192095   -1.194378
     39          1           0       -3.296699    3.634472   -0.272183
     40          1           0       -4.905935    3.966853    0.390532
 ---------------------------------------------------------------------

 SCF Done:  E(RHF) =  -470.733055194     A.U. after   11 cycles
 E2 =    -0.1582823020D+01 EUMP2 =    -0.47231587821427D+03

 The electronic state is 1-A.
 Alpha  occ. eigenvalues --  -11.21624 -11.21617 -11.21590 -11.21509 -11.21434
 Alpha  occ. eigenvalues --  -11.21378 -11.21374 -11.21316 -11.21088 -11.21063
 Alpha  occ. eigenvalues --  -11.21058 -11.20990  -1.08457  -1.08396  -1.03568
 Alpha  occ. eigenvalues --   -1.03473  -0.96030  -0.95911  -0.87026  -0.86946
 Alpha  occ. eigenvalues --   -0.79640  -0.79531  -0.78284  -0.78195  -0.65130
 Alpha  occ. eigenvalues --   -0.65003  -0.61093  -0.60779  -0.59375  -0.59303
 Alpha  occ. eigenvalues --   -0.57663  -0.57497  -0.55410  -0.55111  -0.52742
 Alpha  occ. eigenvalues --   -0.52580  -0.52417  -0.52352  -0.49942  -0.49886
 Alpha  occ. eigenvalues --   -0.48039  -0.47791  -0.46722  -0.46503  -0.45879
 Alpha  occ. eigenvalues --   -0.45755  -0.45732  -0.45530  -0.43825  -0.43720
 Alpha virt. eigenvalues --    0.21498   0.23061   0.23599   0.24859   0.26181
 Alpha virt. eigenvalues --    0.26766   0.27214   0.27329   0.27996   0.29091
 Alpha virt. eigenvalues --    0.30196   0.31247   0.31661   0.31731   0.32455

 Mulliken charges:
               1
     1  C   -0.298251
     2  C   -0.299647
     3  C   -0.475725
     4  H    0.149652
     5  H    0.149714
     6  H    0.151750
     7  H    0.152041
     8  H    0.155258
     9  H    0.155186
    10  H    0.160328
    11  C   -0.298192
    12  C   -0.300101
    13  C   -0.480218
    14  H    0.148512
    15  H    0.149827
    16  H    0.151795
    17  H    0.151967
    18  H    0.155095
    19  H    0.161184
    20  H    0.160768
    21  C   -0.298025
    22  C   -0.305317
    23  C   -0.475490
    24  H    0.148806
    25  H    0.149478
    26  H    0.156989
    27  H    0.151777
    28  H    0.154494
    29  H    0.154444
    30  H    0.162219
    31  C   -0.298199
    32  C   -0.299586
    33  C   -0.475679
    34  H    0.149240
    35  H    0.149748
    36  H    0.151696
    37  H    0.151966
    38  H    0.155218
    39  H    0.155099
    40  H    0.160179
 Sum of Mulliken charges =  -0.00000

 Dipole moment (field-independent basis, Debye):
    X=              0.0219    Y=             -0.0195    Z=             -0.0120  Tot=              0.0317
 Quadrupole moment (field-independent basis, Debye-Ang):
   XX=            -84.8537   YY=            -86.0339   ZZ=            -83.9177
   XY=             -0.3493   XZ=             -0.1583   YZ=              0.6759

 Normal termination of Gaussian 16 at Thu May  6 14:52:22 2021.
