 Gaussian 16, Revision A.03,
 Gaussian 16:  EM64L-G16RevA.03 25-Dec-2016

 -------------
 #p 6-31g* mp2
 -------------

 ------------------------------------------------------
 Input file generated by CHIRIPA (05-May-2021 14:57:23)
 ------------------------------------------------------
 Symbolic Z-matrix:
 Charge =  0 Multiplicity = 1

                         Standard orientation:
 ---------------------------------------------------------------------
 Center     Atomic      Atomic             Coordinates (Angstroms)
 Number     Number       Type             X           Y           Z
 ---------------------------------------------------------------------
      1          6           0       -2.062930    2.285418    0.750087
      2          6           0       -1.679262    1.036581    1.249814
      3          6           0       -2.411214   -0.111099    0.931028
      4          6           0       -3.526438    0.027154    0.106132
      5          6           0       -3.933973    1.257403   -0.407376
      6          6           0       -3.187079    2.391656   -0.075458
      7          1           0       -1.488528    3.171748    1.002828
      8          1           0       -0.806676    0.951078    1.891163
      9          1           0       -2.136495   -1.090257    1.304120
     10          1           0       -4.808482    1.311057   -1.044379
     11          1           0       -3.487379    3.360224   -0.464997
     12          7           0       -4.309232   -1.180736   -0.238303
     13          8           0       -5.287800   -1.032273   -0.967001
     14          8           0       -3.929395   -2.253071    0.226947
     15          6           0        5.850989    0.331111    0.025023
     16          6           0        5.383370   -0.919639    0.441530
     17          6           0        4.025998   -1.239314    0.342049
     18          6           0        3.160222   -0.280110   -0.181067
     19          6           0        3.595584    0.974654   -0.604526
     20          6           0        4.957179    1.272606   -0.495758
     21          1           0        6.907068    0.571005    0.105909
     22          1           0        6.075225   -1.652774    0.846368
     23          1           0        3.637036   -2.200005    0.657009
     24          1           0        2.881788    1.684848   -1.003948
     25          1           0        5.317513    2.244751   -0.820007
     26          7           0        1.720998   -0.607037   -0.291299
     27          8           0        0.978612    0.255441   -0.755661
     28          8           0        1.362570   -1.719570    0.088750
 ---------------------------------------------------------------------

 SCF Done:  E(RHF) =  -868.337894567     A.U. after   16 cycles
 E2 =    -0.2600078823D+01 EUMP2 =    -0.87093797338994D+03

 The electronic state is 1-A.
 Alpha  occ. eigenvalues --  -20.61400 -20.61392 -20.59613 -20.59588 -15.86419
 Alpha  occ. eigenvalues --  -15.84650 -11.31713 -11.29841 -11.28287 -11.28246
 Alpha  occ. eigenvalues --  -11.27979 -11.27266 -11.27235 -11.26470 -11.26309
 Alpha  occ. eigenvalues --  -11.26208 -11.25518 -11.25395  -1.60474  -1.58679
 Alpha  occ. eigenvalues --   -1.40025  -1.38237  -1.19875  -1.18010  -1.09283
 Alpha  occ. eigenvalues --   -1.07468  -1.05261  -1.03398  -0.96129  -0.94326
 Alpha  occ. eigenvalues --   -0.86662  -0.84837  -0.82959  -0.81170  -0.78025
 Alpha  occ. eigenvalues --   -0.76221  -0.72633  -0.71809  -0.70972  -0.70884
 Alpha  occ. eigenvalues --   -0.69990  -0.69194  -0.65523  -0.65256  -0.63698
 Alpha  occ. eigenvalues --   -0.63468  -0.62608  -0.60777  -0.55756  -0.54002
 Alpha  occ. eigenvalues --   -0.53602  -0.53347  -0.51745  -0.51546  -0.49405
 Alpha  occ. eigenvalues --   -0.49362  -0.47642  -0.47624  -0.45443  -0.43681
 Alpha  occ. eigenvalues --   -0.37853  -0.36864  -0.35998  -0.34889
 Alpha virt. eigenvalues --    0.04475   0.06329   0.10791   0.12700   0.16010
 Alpha virt. eigenvalues --    0.17851   0.20968   0.22537   0.26880   0.27833
 Alpha virt. eigenvalues --    0.28412   0.29455   0.30558   0.31985   0.32057

 Mulliken charges:
               1
     1  C   -0.170032
     2  C   -0.199913
     3  C   -0.161123
     4  C    0.157033
     5  C   -0.172363
     6  C   -0.218833
     7  H    0.217677
     8  H    0.216478
     9  H    0.278881
    10  H    0.270865
    11  H    0.217015
    12  N    0.488231
    13  O   -0.465756
    14  O   -0.459947
    15  C   -0.170398
    16  C   -0.218419
    17  C   -0.171022
    18  C    0.157157
    19  C   -0.172158
    20  C   -0.218428
    21  H    0.227275
    22  H    0.225462
    23  H    0.277269
    24  H    0.274063
    25  H    0.224183
    26  N    0.485702
    27  O   -0.459473
    28  O   -0.459428
 Sum of Mulliken charges =  -0.00000

 Dipole moment (field-independent basis, Debye):
    X=              8.2506    Y=              5.2244    Z=              1.6126  Tot=              9.8978
 Quadrupole moment (field-independent basis, Debye-Ang):
   XX=            -91.8590   YY=           -100.5560   ZZ=           -103.9147
   XY=            -15.3102   XZ=             -1.4012   YZ=             -3.7801

 Normal termination of Gaussian 16 at Fri May  7 03:23:54 2021.
