 Gaussian 16, Revision A.03,
 Gaussian 16:  EM64L-G16RevA.03 25-Dec-2016

 -------------
 #p 6-31g* mp2
 -------------

 ------------------------------------------------------
 Input file generated by CHIRIPA (05-May-2021 14:57:23)
 ------------------------------------------------------
 Symbolic Z-matrix:
 Charge =  0 Multiplicity = 1

                         Standard orientation:
 ---------------------------------------------------------------------
 Center     Atomic      Atomic             Coordinates (Angstroms)
 Number     Number       Type             X           Y           Z
 ---------------------------------------------------------------------
      1          6           0        4.806068    0.638529   -0.813053
      2          6           0        4.459815    0.974978    0.499743
      3          6           0        3.346308    0.392017    1.111958
      4          6           0        2.597988   -0.527685    0.378845
      5          6           0        2.917399   -0.883458   -0.930618
      6          6           0        4.035114   -0.287982   -1.522792
      7          1           0        5.672701    1.096248   -1.280852
      8          1           0        5.056716    1.694204    1.053339
      9          1           0        3.055688    0.634344    2.126963
     10          1           0        2.303081   -1.603734   -1.457148
     11          1           0        4.301654   -0.551174   -2.542464
     12          7           0        1.416941   -1.151464    1.016361
     13          8           0        0.773962   -1.958923    0.349109
     14          8           0        1.156578   -0.821112    2.171227
     15          6           0       -0.607190    1.645287   -0.590532
     16          6           0       -0.886987    0.502719   -1.347350
     17          6           0       -2.094676   -0.181458   -1.180209
     18          6           0       -3.003920    0.306894   -0.243151
     19          6           0       -2.754210    1.442434    0.525928
     20          6           0       -1.540049    2.110678    0.342047
     21          1           0        0.333487    2.170583   -0.726874
     22          1           0       -0.164382    0.139008   -2.072334
     23          1           0       -2.336926   -1.068492   -1.752837
     24          1           0       -3.494213    1.780955    1.240924
     25          1           0       -1.325443    2.997749    0.931193
     26          7           0       -4.285873   -0.408979   -0.057346
     27          8           0       -5.070308    0.041560    0.774708
     28          8           0       -4.481957   -1.407064   -0.747283
 ---------------------------------------------------------------------

 SCF Done:  E(RHF) =  -868.337241974     A.U. after   16 cycles
 E2 =    -0.2602809332D+01 EUMP2 =    -0.87094005130642D+03

 The electronic state is 1-A.
 Alpha  occ. eigenvalues --  -20.61359 -20.61354 -20.60044 -20.60037 -15.86391
 Alpha  occ. eigenvalues --  -15.85096 -11.31992 -11.30444 -11.28575 -11.28528
 Alpha  occ. eigenvalues --  -11.28275 -11.27606 -11.27578 -11.27031 -11.27010
 Alpha  occ. eigenvalues --  -11.26866 -11.26123 -11.26113  -1.60405  -1.59112
 Alpha  occ. eigenvalues --   -1.39964  -1.38668  -1.20164  -1.18635  -1.09499
 Alpha  occ. eigenvalues --   -1.08072  -1.05587  -1.04046  -0.96304  -0.94897
 Alpha  occ. eigenvalues --   -0.86963  -0.85480  -0.83134  -0.81732  -0.78165
 Alpha  occ. eigenvalues --   -0.76755  -0.72625  -0.71750  -0.71328  -0.71228
 Alpha  occ. eigenvalues --   -0.70417  -0.69814  -0.65794  -0.65562  -0.64322
 Alpha  occ. eigenvalues --   -0.64120  -0.62919  -0.61415  -0.56034  -0.54657
 Alpha  occ. eigenvalues --   -0.53903  -0.53656  -0.52349  -0.52189  -0.49389
 Alpha  occ. eigenvalues --   -0.49372  -0.48086  -0.48072  -0.45342  -0.44077
 Alpha  occ. eigenvalues --   -0.38166  -0.37221  -0.36633  -0.35531
 Alpha virt. eigenvalues --    0.04277   0.05868   0.10318   0.12060   0.15832
 Alpha virt. eigenvalues --    0.17279   0.20484   0.21874   0.26078   0.27144
 Alpha virt. eigenvalues --    0.28261   0.28768   0.30227   0.30981   0.32481

 Mulliken charges:
               1
     1  C   -0.172051
     2  C   -0.219045
     3  C   -0.174312
     4  C    0.159366
     5  C   -0.178356
     6  C   -0.219223
     7  H    0.228015
     8  H    0.225749
     9  H    0.277396
    10  H    0.274347
    11  H    0.225390
    12  N    0.490749
    13  O   -0.458412
    14  O   -0.457036
    15  C   -0.179763
    16  C   -0.214189
    17  C   -0.158084
    18  C    0.159893
    19  C   -0.168667
    20  C   -0.213916
    21  H    0.220715
    22  H    0.215735
    23  H    0.275561
    24  H    0.274219
    25  H    0.219918
    26  N    0.488571
    27  O   -0.462182
    28  O   -0.460390
 Sum of Mulliken charges =  -0.00000

 Dipole moment (field-independent basis, Debye):
    X=              8.7218    Y=              4.5462    Z=             -2.7682  Tot=             10.2177
 Quadrupole moment (field-independent basis, Debye-Ang):
   XX=           -110.7138   YY=           -103.2133   ZZ=           -100.9020
   XY=             -2.8298   XZ=             -3.6630   YZ=              6.5345

 Normal termination of Gaussian 16 at Wed May  5 22:40:54 2021.
