 Gaussian 16, Revision A.03,
 Gaussian 16:  EM64L-G16RevA.03 25-Dec-2016

 -------------
 #p 6-31g* mp2
 -------------

 ------------------------------------------------------
 Input file generated by CHIRIPA (05-May-2021 14:57:24)
 ------------------------------------------------------
 Symbolic Z-matrix:
 Charge =  0 Multiplicity = 1

                         Standard orientation:
 ---------------------------------------------------------------------
 Center     Atomic      Atomic             Coordinates (Angstroms)
 Number     Number       Type             X           Y           Z
 ---------------------------------------------------------------------
      1          6           0        2.298879    2.536319    0.207612
      2          6           0        2.334005    1.787171    1.388316
      3          6           0        2.660239    0.428067    1.357404
      4          6           0        2.947107   -0.152343    0.122850
      5          6           0        2.920519    0.567367   -1.070716
      6          6           0        2.591732    1.925104   -1.015979
      7          1           0        2.044460    3.591573    0.240879
      8          1           0        2.107026    2.259207    2.340003
      9          1           0        2.694854   -0.175446    2.256288
     10          1           0        3.151568    0.068985   -2.004338
     11          1           0        2.565230    2.504435   -1.934521
     12          7           0        3.293828   -1.590442    0.077513
     13          8           0        3.542519   -2.078285   -1.022850
     14          8           0        3.310332   -2.202550    1.143200
     15          6           0       -5.348282   -0.388515    0.349543
     16          6           0       -4.810660    0.897951    0.237790
     17          6           0       -3.449973    1.078218   -0.027884
     18          6           0       -2.652302   -0.055299   -0.176714
     19          6           0       -3.158289   -1.349944   -0.071069
     20          6           0       -4.521837   -1.506386    0.195030
     21          1           0       -6.406408   -0.519296    0.556090
     22          1           0       -5.450108    1.767931    0.357314
     23          1           0       -3.007594    2.062768   -0.119426
     24          1           0       -2.495774   -2.197932   -0.195202
     25          1           0       -4.936618   -2.506666    0.281291
     26          7           0       -1.210288    0.122930   -0.458196
     27          8           0       -0.528715   -0.891953   -0.585105
     28          8           0       -0.788917    1.274134   -0.546581
 ---------------------------------------------------------------------

 SCF Done:  E(RHF) =  -868.337788356     A.U. after   16 cycles
 E2 =    -0.2601859298D+01 EUMP2 =    -0.87093964765365D+03

 The electronic state is 1-A.
 Alpha  occ. eigenvalues --  -20.61102 -20.61053 -20.59276 -20.59256 -15.86108
 Alpha  occ. eigenvalues --  -15.84315 -11.31411 -11.29400 -11.28009 -11.27926
 Alpha  occ. eigenvalues --  -11.27699 -11.26993 -11.26937 -11.26055 -11.25945
 Alpha  occ. eigenvalues --  -11.25753 -11.25070 -11.24949  -1.60141  -1.58333
 Alpha  occ. eigenvalues --   -1.39700  -1.37904  -1.19577  -1.17553  -1.08984
 Alpha  occ. eigenvalues --   -1.07022  -1.04968  -1.02992  -0.95832  -0.93921
 Alpha  occ. eigenvalues --   -0.86369  -0.84430  -0.82668  -0.80807  -0.77721
 Alpha  occ. eigenvalues --   -0.75868  -0.72350  -0.71461  -0.70682  -0.70575
 Alpha  occ. eigenvalues --   -0.69604  -0.68801  -0.65231  -0.64970  -0.63288
 Alpha  occ. eigenvalues --   -0.63098  -0.62314  -0.60415  -0.55481  -0.53583
 Alpha  occ. eigenvalues --   -0.53306  -0.53058  -0.51518  -0.51175  -0.49100
 Alpha  occ. eigenvalues --   -0.48739  -0.47325  -0.47298  -0.45128  -0.43385
 Alpha  occ. eigenvalues --   -0.37557  -0.36569  -0.35394  -0.34523
 Alpha virt. eigenvalues --    0.04787   0.06744   0.11086   0.13114   0.16300
 Alpha virt. eigenvalues --    0.18296   0.21242   0.22875   0.27153   0.28135
 Alpha virt. eigenvalues --    0.28723   0.29761   0.30798   0.32319   0.32363

 Mulliken charges:
               1
     1  C   -0.156493
     2  C   -0.218128
     3  C   -0.173110
     4  C    0.172410
     5  C   -0.163017
     6  C   -0.205766
     7  H    0.217003
     8  H    0.213644
     9  H    0.267924
    10  H    0.269924
    11  H    0.215840
    12  N    0.489717
    13  O   -0.464230
    14  O   -0.468235
    15  C   -0.170558
    16  C   -0.218574
    17  C   -0.171567
    18  C    0.157928
    19  C   -0.170538
    20  C   -0.218607
    21  H    0.226377
    22  H    0.223006
    23  H    0.272324
    24  H    0.279527
    25  H    0.225435
    26  N    0.489001
    27  O   -0.457310
    28  O   -0.463926
 Sum of Mulliken charges =  -0.00000

 Dipole moment (field-independent basis, Debye):
    X=             -6.6403    Y=              4.3685    Z=              0.9682  Tot=              8.0072
 Quadrupole moment (field-independent basis, Debye-Ang):
   XX=            -87.2183   YY=           -102.3675   ZZ=           -101.5242
   XY=             16.8422   XZ=             -2.5856   YZ=              0.3261

 Normal termination of Gaussian 16 at Thu May  6 12:59:13 2021.
