 Gaussian 16, Revision A.03,
 Gaussian 16:  EM64L-G16RevA.03 25-Dec-2016

 -------------
 #p 6-31g* mp2
 -------------

 ------------------------------------------------------
 Input file generated by CHIRIPA (05-May-2021 14:51:11)
 ------------------------------------------------------
 Symbolic Z-matrix:
 Charge =  0 Multiplicity = 1

                         Standard orientation:
 ---------------------------------------------------------------------
 Center     Atomic      Atomic             Coordinates (Angstroms)
 Number     Number       Type             X           Y           Z
 ---------------------------------------------------------------------
      1          6           0        3.463599   -0.690467   -0.209238
      2          6           0        2.141682   -1.404257   -0.493889
      3          6           0        2.312615   -2.911887   -0.682642
      4          1           0        4.161389   -0.881136   -1.036087
      5          1           0        3.920011   -1.124258    0.691266
      6          1           0        1.687225   -0.968313   -1.392798
      7          1           0        1.446892   -1.211709    0.333643
      8          1           0        2.743415   -3.366180    0.215484
      9          1           0        2.985113   -3.121401   -1.520766
     10          1           0        1.355301   -3.402238   -0.885037
     11          6           0        3.309057    0.817294   -0.018185
     12          6           0        4.630974    1.531083    0.266466
     13          6           0        4.460040    3.038713    0.455218
     14          1           0        2.852645    1.251085   -0.918690
     15          1           0        2.611267    1.007962    0.808664
     16          1           0        5.325763    1.338536   -0.561066
     17          1           0        5.085431    1.095140    1.165375
     18          1           0        3.787543    3.248227    1.293342
     19          1           0        4.029241    3.493006   -0.442908
     20          1           0        5.417355    3.529065    0.657614
     21          6           0       -2.864324   -0.584082   -0.085907
     22          6           0       -2.701883   -1.704709    0.941612
     23          6           0       -1.654065   -2.738575    0.528103
     24          1           0       -3.140982   -1.021199   -1.055100
     25          1           0       -1.895338   -0.087076   -0.232354
     26          1           0       -3.671194   -2.198555    1.087104
     27          1           0       -2.425767   -1.264857    1.908518
     28          1           0       -0.674883   -2.265422    0.401882
     29          1           0       -1.927387   -3.204425   -0.424199
     30          1           0       -1.554173   -3.530545    1.276878
     31          6           0       -3.908332    0.457256    0.313330
     32          6           0       -4.070772    1.577882   -0.714188
     33          6           0       -5.118591    2.611749   -0.300680
     34          1           0       -4.877317   -0.039750    0.459778
     35          1           0       -3.631674    0.894373    1.282523
     36          1           0       -4.346889    1.138031   -1.681094
     37          1           0       -3.101462    2.071729   -0.859680
     38          1           0       -4.845268    3.077599    0.651623
     39          1           0       -6.097772    2.138595   -0.174458
     40          1           0       -5.218482    3.403719   -1.049455
 ---------------------------------------------------------------------

 SCF Done:  E(RHF) =  -470.733010491     A.U. after   11 cycles
 E2 =    -0.1583033893D+01 EUMP2 =    -0.47231604438391D+03

 The electronic state is 1-A.
 Alpha  occ. eigenvalues --  -11.21631 -11.21625 -11.21587 -11.21576 -11.21432
 Alpha  occ. eigenvalues --  -11.21383 -11.21373 -11.21322 -11.21093 -11.21060
 Alpha  occ. eigenvalues --  -11.21029 -11.20993  -1.08460  -1.08405  -1.03574
 Alpha  occ. eigenvalues --   -1.03484  -0.96030  -0.95918  -0.87024  -0.86956
 Alpha  occ. eigenvalues --   -0.79649  -0.79547  -0.78299  -0.78196  -0.65126
 Alpha  occ. eigenvalues --   -0.65011  -0.61076  -0.60813  -0.59403  -0.59302
 Alpha  occ. eigenvalues --   -0.57767  -0.57423  -0.55352  -0.55148  -0.52756
 Alpha  occ. eigenvalues --   -0.52622  -0.52487  -0.52240  -0.49970  -0.49861
 Alpha  occ. eigenvalues --   -0.47964  -0.47862  -0.46767  -0.46494  -0.45884
 Alpha  occ. eigenvalues --   -0.45751  -0.45734  -0.45549  -0.43817  -0.43744
 Alpha virt. eigenvalues --    0.21663   0.23102   0.23449   0.24829   0.26159
 Alpha virt. eigenvalues --    0.26672   0.26814   0.27331   0.28162   0.29073
 Alpha virt. eigenvalues --    0.30481   0.31098   0.31455   0.31798   0.32249

 Mulliken charges:
               1
     1  C   -0.297567
     2  C   -0.303439
     3  C   -0.478746
     4  H    0.149928
     5  H    0.149697
     6  H    0.152485
     7  H    0.152835
     8  H    0.155119
     9  H    0.155208
    10  H    0.164802
    11  C   -0.298427
    12  C   -0.299655
    13  C   -0.475728
    14  H    0.149529
    15  H    0.149237
    16  H    0.152098
    17  H    0.152020
    18  H    0.155071
    19  H    0.155203
    20  H    0.160381
    21  C   -0.298791
    22  C   -0.299392
    23  C   -0.485355
    24  H    0.149502
    25  H    0.150187
    26  H    0.151753
    27  H    0.151299
    28  H    0.166593
    29  H    0.154415
    30  H    0.159934
    31  C   -0.298221
    32  C   -0.299670
    33  C   -0.475683
    34  H    0.149481
    35  H    0.149495
    36  H    0.151859
    37  H    0.152052
    38  H    0.155151
    39  H    0.155140
    40  H    0.160201
 Sum of Mulliken charges =  -0.00000

 Dipole moment (field-independent basis, Debye):
    X=              0.0302    Y=             -0.0054    Z=             -0.0127  Tot=              0.0332
 Quadrupole moment (field-independent basis, Debye-Ang):
   XX=            -84.8441   YY=            -86.3879   ZZ=            -83.5886
   XY=              0.9247   XZ=              0.3300   YZ=             -0.1581

 Normal termination of Gaussian 16 at Thu May  6 02:15:52 2021.
