 Gaussian 16, Revision A.03,
 Gaussian 16:  EM64L-G16RevA.03 25-Dec-2016

 -------------
 #p 6-31g* mp2
 -------------

 ------------------------------------------------------
 Input file generated by CHIRIPA (05-May-2021 14:57:26)
 ------------------------------------------------------
 Symbolic Z-matrix:
 Charge =  0 Multiplicity = 1

                         Standard orientation:
 ---------------------------------------------------------------------
 Center     Atomic      Atomic             Coordinates (Angstroms)
 Number     Number       Type             X           Y           Z
 ---------------------------------------------------------------------
      1          6           0        2.665213    2.527406    0.020161
      2          6           0        3.323617    1.912927    1.090414
      3          6           0        3.542340    0.532091    1.091002
      4          6           0        3.087301   -0.207139    0.000236
      5          6           0        2.428160    0.375938   -1.080895
      6          6           0        2.220369    1.758306   -1.060173
      7          1           0        2.499550    3.600668    0.027982
      8          1           0        3.670182    2.507718    1.930747
      9          1           0        4.049269    0.030666    1.906486
     10          1           0        2.094215   -0.243336   -1.904545
     11          1           0        1.708752    2.232823   -1.892714
     12          7           0        3.313066   -1.669779   -0.010422
     13          8           0        2.902443   -2.298790   -0.983238
     14          8           0        3.896369   -2.159491    0.954243
     15          6           0       -5.497350   -0.240365    0.576137
     16          6           0       -5.099055   -0.153890   -0.761923
     17          6           0       -3.745847   -0.039213   -1.093925
     18          6           0       -2.813500   -0.013964   -0.057884
     19          6           0       -3.178947   -0.098192    1.284742
     20          6           0       -4.537717   -0.212289    1.593405
     21          1           0       -6.550715   -0.329222    0.824979
     22          1           0       -5.842122   -0.175442   -1.554029
     23          1           0       -3.409807    0.029435   -2.121438
     24          1           0       -2.415065   -0.074054    2.052414
     25          1           0       -4.844135   -0.279268    2.633437
     26          7           0       -1.377976    0.107132   -0.397006
     27          8           0       -0.576127    0.127136    0.534271
     28          8           0       -1.081842    0.179749   -1.587664
 ---------------------------------------------------------------------

 SCF Done:  E(RHF) =  -868.338965071     A.U. after   16 cycles
 E2 =    -0.2600840251D+01 EUMP2 =    -0.87093980532239D+03

 The electronic state is 1-A.
 Alpha  occ. eigenvalues --  -20.61301 -20.61272 -20.59355 -20.59337 -15.86303
 Alpha  occ. eigenvalues --  -15.84390 -11.31500 -11.29396 -11.28053 -11.28037
 Alpha  occ. eigenvalues --  -11.27761 -11.27027 -11.27014 -11.26119 -11.25889
 Alpha  occ. eigenvalues --  -11.25847 -11.25124 -11.24894  -1.60340  -1.58425
 Alpha  occ. eigenvalues --   -1.39900  -1.37990  -1.19655  -1.17596  -1.09085
 Alpha  occ. eigenvalues --   -1.07103  -1.05032  -1.02976  -0.95949  -0.93981
 Alpha  occ. eigenvalues --   -0.86439  -0.84440  -0.82788  -0.80835  -0.77853
 Alpha  occ. eigenvalues --   -0.75887  -0.72540  -0.71637  -0.70764  -0.70642
 Alpha  occ. eigenvalues --   -0.69721  -0.68838  -0.65312  -0.65037  -0.63309
 Alpha  occ. eigenvalues --   -0.63067  -0.62381  -0.60368  -0.55551  -0.53633
 Alpha  occ. eigenvalues --   -0.53369  -0.53124  -0.51512  -0.51138  -0.49300
 Alpha  occ. eigenvalues --   -0.49050  -0.47396  -0.47362  -0.45339  -0.43475
 Alpha  occ. eigenvalues --   -0.37628  -0.36626  -0.35612  -0.34426
 Alpha virt. eigenvalues --    0.04661   0.06660   0.11031   0.13111   0.16201
 Alpha virt. eigenvalues --    0.18171   0.21184   0.22934   0.27103   0.28058
 Alpha virt. eigenvalues --    0.28866   0.29796   0.30763   0.32278   0.32394

 Mulliken charges:
               1
     1  C   -0.170618
     2  C   -0.219206
     3  C   -0.171448
     4  C    0.160857
     5  C   -0.147197
     6  C   -0.212717
     7  H    0.217107
     8  H    0.214712
     9  H    0.268580
    10  H    0.277578
    11  H    0.220951
    12  N    0.488193
    13  O   -0.462955
    14  O   -0.468024
    15  C   -0.170108
    16  C   -0.218532
    17  C   -0.170496
    18  C    0.158879
    19  C   -0.170261
    20  C   -0.218543
    21  H    0.226804
    22  H    0.224358
    23  H    0.275091
    24  H    0.276494
    25  H    0.224691
    26  N    0.489770
    27  O   -0.455933
    28  O   -0.468028
 Sum of Mulliken charges =  -0.00000

 Dipole moment (field-independent basis, Debye):
    X=             -6.3581    Y=              4.6410    Z=              1.1176  Tot=              7.9507
 Quadrupole moment (field-independent basis, Debye-Ang):
   XX=            -82.2442   YY=           -109.3039   ZZ=            -96.5838
   XY=             17.4688   XZ=             -0.0750   YZ=              0.0736

 Normal termination of Gaussian 16 at Thu May  6 00:25:41 2021.
