 Gaussian 16, Revision A.03,
 Gaussian 16:  EM64L-G16RevA.03 25-Dec-2016

 -------------
 #p 6-31g* mp2
 -------------

 ------------------------------------------------------
 Input file generated by CHIRIPA (05-May-2021 14:53:14)
 ------------------------------------------------------
 Symbolic Z-matrix:
 Charge =  0 Multiplicity = 1

                         Standard orientation:
 ---------------------------------------------------------------------
 Center     Atomic      Atomic             Coordinates (Angstroms)
 Number     Number       Type             X           Y           Z
 ---------------------------------------------------------------------
      1          6           0        1.835280    1.295533   -0.575745
      2          6           0        1.683505    2.687210    0.039222
      3          6           0        0.839567    3.625924   -0.823551
      4          1           0        2.290330    1.389183   -1.571287
      5          1           0        0.838532    0.858663   -0.727514
      6          1           0        2.680295    3.120764    0.191065
      7          1           0        1.228939    2.590219    1.033495
      8          1           0       -0.166819    3.218723   -0.964884
      9          1           0        1.292783    3.752282   -1.812100
     10          1           0        0.743992    4.615184   -0.365194
     11          6           0        2.676394    0.345658    0.275133
     12          6           0        2.828168   -1.046019   -0.339835
     13          6           0        3.672107   -1.984733    0.522938
     14          1           0        3.673141    0.782528    0.426902
     15          1           0        2.221343    0.252008    1.270675
     16          1           0        3.282734   -0.949028   -1.334108
     17          1           0        1.831378   -1.479573   -0.491678
     18          1           0        3.218890   -2.111091    1.511487
     19          1           0        4.678493   -1.577532    0.664271
     20          1           0        3.767681   -2.973993    0.064581
     21          6           0       -0.823936   -2.898634   -0.506076
     22          6           0       -0.522569   -2.334604    0.737937
     23          6           0       -1.036977   -1.084351    1.094024
     24          6           0       -1.853097   -0.422839    0.177705
     25          6           0       -2.171560   -0.958514   -1.069261
     26          6           0       -1.646020   -2.210003   -1.404122
     27          1           0       -0.420008   -3.870340   -0.774449
     28          1           0        0.115600   -2.867131    1.437366
     29          1           0       -0.819732   -0.624507    2.050458
     30          1           0       -2.810587   -0.403702   -1.745461
     31          1           0       -1.881750   -2.645604   -2.370935
     32          7           0       -2.403570    0.901403    0.543442
     33          8           0       -3.120152    1.463962   -0.281587
     34          8           0       -2.108025    1.351708    1.648212
 ---------------------------------------------------------------------

 SCF Done:  E(RHF) =  -669.534763758     A.U. after   15 cycles
 E2 =    -0.2096115685D+01 EUMP2 =    -0.67163087944248D+03

 The electronic state is 1-A.
 Alpha  occ. eigenvalues --  -20.60976 -20.60969 -15.86017 -11.31385 -11.27939
 Alpha  occ. eigenvalues --  -11.27926 -11.27662 -11.26956 -11.26936 -11.21665
 Alpha  occ. eigenvalues --  -11.21517 -11.21418 -11.21194 -11.21122 -11.20446
 Alpha  occ. eigenvalues --   -1.60042  -1.39594  -1.19569  -1.08960  -1.08345
 Alpha  occ. eigenvalues --   -1.04959  -1.03413  -0.95894  -0.95777  -0.86901
 Alpha  occ. eigenvalues --   -0.86352  -0.82609  -0.79502  -0.78123  -0.77659
 Alpha  occ. eigenvalues --   -0.72228  -0.71376  -0.70645  -0.65206  -0.65077
 Alpha  occ. eigenvalues --   -0.64904  -0.62292  -0.60828  -0.59315  -0.57472
 Alpha  occ. eigenvalues --   -0.55441  -0.55210  -0.53337  -0.53029  -0.52552
 Alpha  occ. eigenvalues --   -0.52314  -0.49860  -0.48991  -0.48985  -0.47807
 Alpha  occ. eigenvalues --   -0.46558  -0.45648  -0.45511  -0.44962  -0.43663
 Alpha  occ. eigenvalues --   -0.37454  -0.36496
 Alpha virt. eigenvalues --    0.04831   0.11027   0.16261   0.20377   0.22982
 Alpha virt. eigenvalues --    0.24032   0.25951   0.26990   0.27285   0.28460
 Alpha virt. eigenvalues --    0.28953   0.30098   0.31433   0.32011   0.32329

 Mulliken charges:
               1
     1  C   -0.301315
     2  C   -0.302581
     3  C   -0.476424
     4  H    0.148228
     5  H    0.149252
     6  H    0.149278
     7  H    0.159212
     8  H    0.162246
     9  H    0.150657
    10  H    0.162656
    11  C   -0.296019
    12  C   -0.308582
    13  C   -0.475550
    14  H    0.150304
    15  H    0.144488
    16  H    0.151215
    17  H    0.159205
    18  H    0.148046
    19  H    0.158779
    20  H    0.155893
    21  C   -0.170882
    22  C   -0.219163
    23  C   -0.170238
    24  C    0.159646
    25  C   -0.172283
    26  C   -0.216637
    27  H    0.227417
    28  H    0.226685
    29  H    0.276092
    30  H    0.276625
    31  H    0.224748
    32  N    0.488347
    33  O   -0.459696
    34  O   -0.459650
 Sum of Mulliken charges =  -0.00000

 Dipole moment (field-independent basis, Debye):
    X=              1.7048    Y=             -4.6382    Z=             -1.2900  Tot=              5.1072
 Quadrupole moment (field-independent basis, Debye-Ang):
   XX=           -101.5321   YY=            -91.7262   ZZ=            -91.5535
   XY=              8.6279   XZ=              4.4618   YZ=             -0.0530

 Normal termination of Gaussian 16 at Wed May  5 15:33:45 2021.
