 Gaussian 16, Revision A.03,
 Gaussian 16:  EM64L-G16RevA.03 25-Dec-2016

 -------------
 #p 6-31g* mp2
 -------------

 ------------------------------------------------------
 Input file generated by CHIRIPA (05-May-2021 14:57:21)
 ------------------------------------------------------
 Symbolic Z-matrix:
 Charge =  0 Multiplicity = 1

                         Standard orientation:
 ---------------------------------------------------------------------
 Center     Atomic      Atomic             Coordinates (Angstroms)
 Number     Number       Type             X           Y           Z
 ---------------------------------------------------------------------
      1          6           0       -2.146414    1.128732    0.838782
      2          6           0       -2.299503   -0.252664    0.681206
      3          6           0       -3.515501   -0.787076    0.244970
      4          6           0       -4.562167    0.092947   -0.025840
      5          6           0       -4.440681    1.473831    0.121443
      6          6           0       -3.215606    1.986059    0.558892
      7          1           0       -1.198272    1.535260    1.178132
      8          1           0       -1.470874   -0.920866    0.897828
      9          1           0       -3.661408   -1.852479    0.114408
     10          1           0       -5.284823    2.114738   -0.102343
     11          1           0       -3.099585    3.059291    0.680369
     12          7           0       -5.854295   -0.461068   -0.488305
     13          8           0       -6.761108    0.335500   -0.720264
     14          8           0       -5.935784   -1.681384   -0.610070
     15          6           0        2.059886   -0.992780    0.636066
     16          6           0        2.325160   -0.698388   -0.705382
     17          6           0        3.589975   -0.249702   -1.097137
     18          6           0        4.570532   -0.106091   -0.116743
     19          6           0        4.337051   -0.391243    1.227677
     20          6           0        3.064905   -0.838540    1.596621
     21          1           0        1.074500   -1.340790    0.931530
     22          1           0        1.546569   -0.817242   -1.453523
     23          1           0        3.822535   -0.014595   -2.128669
     24          1           0        5.133430   -0.262959    1.950685
     25          1           0        2.861740   -1.066415    2.639138
     26          7           0        5.913416    0.368177   -0.519401
     27          8           0        6.760199    0.486421    0.363556
     28          8           0        6.093757    0.612686   -1.710338
 ---------------------------------------------------------------------

 SCF Done:  E(RHF) =  -868.336630629     A.U. after   16 cycles
 E2 =    -0.2599620657D+01 EUMP2 =    -0.87093625128603D+03

 The electronic state is 1-A.
 Alpha  occ. eigenvalues --  -20.61330 -20.61325 -20.61325 -20.61317 -15.86387
 Alpha  occ. eigenvalues --  -15.86385 -11.31909 -11.31875 -11.28531 -11.28468
 Alpha  occ. eigenvalues --  -11.28460 -11.28441 -11.28381 -11.28268 -11.27659
 Alpha  occ. eigenvalues --  -11.27576 -11.27561 -11.27453  -1.60402  -1.60397
 Alpha  occ. eigenvalues --   -1.39950  -1.39947  -1.20101  -1.20081  -1.09500
 Alpha  occ. eigenvalues --   -1.09451  -1.05518  -1.05509  -0.96305  -0.96255
 Alpha  occ. eigenvalues --   -0.86927  -0.86904  -0.83127  -0.83086  -0.78129
 Alpha  occ. eigenvalues --   -0.78104  -0.72603  -0.72600  -0.71726  -0.71724
 Alpha  occ. eigenvalues --   -0.71316  -0.71161  -0.65763  -0.65740  -0.65612
 Alpha  occ. eigenvalues --   -0.65457  -0.62875  -0.62834  -0.56166  -0.55969
 Alpha  occ. eigenvalues --   -0.53857  -0.53820  -0.53608  -0.53603  -0.49380
 Alpha  occ. eigenvalues --   -0.49365  -0.49348  -0.49345  -0.45324  -0.45320
 Alpha  occ. eigenvalues --   -0.38154  -0.38057  -0.37126  -0.37099
 Alpha virt. eigenvalues --    0.04387   0.04443   0.10470   0.10573   0.15755
 Alpha virt. eigenvalues --    0.15887   0.17747   0.21848   0.24487   0.26643
 Alpha virt. eigenvalues --    0.27521   0.28769   0.29666   0.31382   0.31852

 Mulliken charges:
               1
     1  C   -0.172083
     2  C   -0.222894
     3  C   -0.170910
     4  C    0.159077
     5  C   -0.169583
     6  C   -0.218476
     7  H    0.227150
     8  H    0.215819
     9  H    0.276701
    10  H    0.278199
    11  H    0.226594
    12  N    0.487979
    13  O   -0.458202
    14  O   -0.459610
    15  C   -0.177464
    16  C   -0.219956
    17  C   -0.170459
    18  C    0.159489
    19  C   -0.170450
    20  C   -0.219245
    21  H    0.220877
    22  H    0.225699
    23  H    0.278242
    24  H    0.277772
    25  H    0.224893
    26  N    0.487794
    27  O   -0.458618
    28  O   -0.458334
 Sum of Mulliken charges =  -0.00000

 Dipole moment (field-independent basis, Debye):
    X=             -0.1555    Y=              0.4200    Z=              2.9726  Tot=              3.0061
 Quadrupole moment (field-independent basis, Debye-Ang):
   XX=           -187.7417   YY=           -100.5654   ZZ=           -101.5004
   XY=            -18.0515   XZ=              1.2680   YZ=             -0.3561

 Normal termination of Gaussian 16 at Wed May  5 22:32:02 2021.
