 Gaussian 16, Revision A.03,
 Gaussian 16:  EM64L-G16RevA.03 25-Dec-2016

 -------------
 #p 6-31g* mp2
 -------------

 ------------------------------------------------------
 Input file generated by CHIRIPA (05-May-2021 14:51:08)
 ------------------------------------------------------
 Symbolic Z-matrix:
 Charge =  0 Multiplicity = 1

                         Standard orientation:
 ---------------------------------------------------------------------
 Center     Atomic      Atomic             Coordinates (Angstroms)
 Number     Number       Type             X           Y           Z
 ---------------------------------------------------------------------
      1          6           0       -3.616796    0.123370    0.113174
      2          6           0       -3.157672    1.370897    0.868732
      3          6           0       -1.655682    1.623714    0.734927
      4          1           0       -3.062107   -0.748417    0.486337
      5          1           0       -3.355026    0.229274   -0.948738
      6          1           0       -3.421468    1.263273    1.928659
      7          1           0       -3.713656    2.239786    0.493859
      8          1           0       -1.379611    1.757153   -0.316063
      9          1           0       -1.085763    0.775092    1.126888
     10          1           0       -1.349115    2.520280    1.282692
     11          6           0       -5.115970   -0.142659    0.237413
     12          6           0       -5.575094   -1.390185   -0.518145
     13          6           0       -7.077084   -1.643003   -0.384340
     14          1           0       -5.377740   -0.248563    1.299324
     15          1           0       -5.670659    0.729129   -0.135750
     16          1           0       -5.019110   -2.259075   -0.143273
     17          1           0       -5.311298   -1.282562   -1.578072
     18          1           0       -7.647003   -0.794381   -0.776302
     19          1           0       -7.353155   -1.776442    0.666650
     20          1           0       -7.383651   -2.539569   -0.932105
     21          6           0        4.651482   -0.644485    0.097223
     22          6           0        6.173937   -0.734606   -0.012288
     23          6           0        6.729357   -2.048975    0.537020
     24          1           0        4.358711   -0.756339    1.150180
     25          1           0        4.201338   -1.488383   -0.443703
     26          1           0        6.621035    0.109981    0.527519
     27          1           0        6.463130   -0.622334   -1.065082
     28          1           0        6.310740   -2.901562   -0.007457
     29          1           0        6.469542   -2.165086    1.594193
     30          1           0        7.819409   -2.092222    0.448828
     31          6           0        4.081284    0.663774   -0.447810
     32          6           0        2.558828    0.753895   -0.338299
     33          6           0        2.003409    2.068263   -0.887606
     34          1           0        4.531427    1.507672    0.093116
     35          1           0        4.374055    0.775627   -1.500767
     36          1           0        2.269635    0.641623    0.714497
     37          1           0        2.111730   -0.090692   -0.878106
     38          1           0        2.263223    2.184375   -1.944780
     39          1           0        2.422026    2.920850   -0.343129
     40          1           0        0.913358    2.111511   -0.799415
 ---------------------------------------------------------------------

 SCF Done:  E(RHF) =  -470.733103290     A.U. after   11 cycles
 E2 =    -0.1582460220D+01 EUMP2 =    -0.47231556350984D+03

 The electronic state is 1-A.
 Alpha  occ. eigenvalues --  -11.21622 -11.21611 -11.21569 -11.21511 -11.21419
 Alpha  occ. eigenvalues --  -11.21360 -11.21352 -11.21289 -11.21108 -11.21078
 Alpha  occ. eigenvalues --  -11.21047 -11.20900  -1.08447  -1.08369  -1.03558
 Alpha  occ. eigenvalues --   -1.03452  -0.96032  -0.95882  -0.87070  -0.86883
 Alpha  occ. eigenvalues --   -0.79631  -0.79513  -0.78259  -0.78184  -0.65078
 Alpha  occ. eigenvalues --   -0.65001  -0.60962  -0.60856  -0.59377  -0.59299
 Alpha  occ. eigenvalues --   -0.57719  -0.57427  -0.55302  -0.55195  -0.52887
 Alpha  occ. eigenvalues --   -0.52605  -0.52429  -0.52131  -0.49939  -0.49851
 Alpha  occ. eigenvalues --   -0.47979  -0.47775  -0.46643  -0.46557  -0.45797
 Alpha  occ. eigenvalues --   -0.45743  -0.45704  -0.45652  -0.43833  -0.43655
 Alpha virt. eigenvalues --    0.22288   0.22955   0.23497   0.24733   0.26397
 Alpha virt. eigenvalues --    0.26535   0.26844   0.27579   0.27636   0.29050
 Alpha virt. eigenvalues --    0.30073   0.31101   0.31533   0.31867   0.32242

 Mulliken charges:
               1
     1  C   -0.298473
     2  C   -0.300119
     3  C   -0.478299
     4  H    0.149798
     5  H    0.149579
     6  H    0.151988
     7  H    0.152115
     8  H    0.156268
     9  H    0.156708
    10  H    0.161033
    11  C   -0.298299
    12  C   -0.299663
    13  C   -0.475717
    14  H    0.149569
    15  H    0.149696
    16  H    0.151974
    17  H    0.151941
    18  H    0.155201
    19  H    0.155200
    20  H    0.160285
    21  C   -0.298178
    22  C   -0.299583
    23  C   -0.475664
    24  H    0.149426
    25  H    0.149346
    26  H    0.151871
    27  H    0.151878
    28  H    0.155100
    29  H    0.155081
    30  H    0.160140
    31  C   -0.298262
    32  C   -0.298868
    33  C   -0.483701
    34  H    0.149362
    35  H    0.149443
    36  H    0.152013
    37  H    0.151356
    38  H    0.153765
    39  H    0.154314
    40  H    0.170374
 Sum of Mulliken charges =  -0.00000

 Dipole moment (field-independent basis, Debye):
    X=             -0.0508    Y=              0.0047    Z=              0.0135  Tot=              0.0527
 Quadrupole moment (field-independent basis, Debye-Ang):
   XX=            -86.3795   YY=            -85.2126   ZZ=            -83.3520
   XY=              0.0610   XZ=              0.0687   YZ=              0.2689

 Normal termination of Gaussian 16 at Thu May  6 03:41:48 2021.
