 Gaussian 16, Revision A.03,
 Gaussian 16:  EM64L-G16RevA.03 25-Dec-2016

 -------------
 #p 6-31g* mp2
 -------------

 ------------------------------------------------------
 Input file generated by CHIRIPA (05-May-2021 14:55:25)
 ------------------------------------------------------
 Symbolic Z-matrix:
 Charge =  0 Multiplicity = 1

                         Standard orientation:
 ---------------------------------------------------------------------
 Center     Atomic      Atomic             Coordinates (Angstroms)
 Number     Number       Type             X           Y           Z
 ---------------------------------------------------------------------
      1          6           0       -1.132248    0.059251   -0.458685
      2          6           0       -1.646963   -1.066137    0.193306
      3          6           0       -3.024799   -1.208938    0.382315
      4          6           0       -3.862791   -0.202617   -0.095573
      5          6           0       -3.380412    0.930332   -0.749046
      6          6           0       -1.999087    1.052143   -0.926954
      7          1           0       -0.060557    0.162030   -0.601200
      8          1           0       -0.976138   -1.838809    0.558019
      9          1           0       -3.450137   -2.069854    0.883642
     10          1           0       -4.074132    1.683927   -1.101559
     11          1           0       -1.602168    1.927216   -1.433657
     12          7           0       -5.323291   -0.342684    0.098646
     13          8           0       -6.040449    0.557938   -0.331704
     14          8           0       -5.723217   -1.350438    0.677548
     15          6           0        4.289515    0.895603    0.304389
     16          6           0        2.791464    0.753549    0.575773
     17          6           0        2.111779    2.094120    0.856294
     18          1           0        4.768072    1.377341    1.168019
     19          1           0        4.437844    1.569073   -0.551082
     20          1           0        2.645953    0.079453    1.429609
     21          1           0        2.316449    0.271919   -0.288524
     22          1           0        2.227451    2.770634    0.003329
     23          1           0        2.558827    2.577074    1.731225
     24          1           0        1.041412    1.969292    1.047586
     25          6           0        4.983017   -0.436000    0.022223
     26          6           0        6.481067   -0.293946   -0.249160
     27          6           0        7.160752   -1.634517   -0.529683
     28          1           0        4.834689   -1.109471    0.877694
     29          1           0        4.504459   -0.917738   -0.841408
     30          1           0        6.956082    0.187683    0.615137
     31          1           0        6.626579    0.380150   -1.102997
     32          1           0        6.713705   -2.117471   -1.404613
     33          1           0        7.045080   -2.311032    0.323282
     34          1           0        8.231119   -1.509689   -0.720974
 ---------------------------------------------------------------------

 SCF Done:  E(RHF) =  -669.535490014     A.U. after   15 cycles
 E2 =    -0.2091593884D+01 EUMP2 =    -0.67162708389830D+03

 The electronic state is 1-A.
 Alpha  occ. eigenvalues --  -20.60731 -20.60726 -15.85785 -11.31146 -11.27712
 Alpha  occ. eigenvalues --  -11.27709 -11.27395 -11.26721 -11.26709 -11.22847
 Alpha  occ. eigenvalues --  -11.22311 -11.22240 -11.22154 -11.22151 -11.21610
 Alpha  occ. eigenvalues --   -1.59807  -1.39361  -1.19315  -1.09323  -1.08705
 Alpha  occ. eigenvalues --   -1.04716  -1.04419  -0.96837  -0.95540  -0.87846
 Alpha  occ. eigenvalues --   -0.86110  -0.82380  -0.80515  -0.79107  -0.77427
 Alpha  occ. eigenvalues --   -0.72002  -0.71130  -0.70445  -0.65951  -0.64962
 Alpha  occ. eigenvalues --   -0.64720  -0.62064  -0.61817  -0.60251  -0.58475
 Alpha  occ. eigenvalues --   -0.56124  -0.55131  -0.53545  -0.53278  -0.52984
 Alpha  occ. eigenvalues --   -0.52804  -0.50771  -0.48819  -0.48759  -0.48755
 Alpha  occ. eigenvalues --   -0.47548  -0.46645  -0.46543  -0.44767  -0.44654
 Alpha  occ. eigenvalues --   -0.37276  -0.36325
 Alpha virt. eigenvalues --    0.05079   0.11313   0.16496   0.19812   0.22412
 Alpha virt. eigenvalues --    0.23904   0.25400   0.26175   0.26772   0.27571
 Alpha virt. eigenvalues --    0.28965   0.30276   0.30768   0.31011   0.31800

 Mulliken charges:
               1
     1  C   -0.177147
     2  C   -0.222400
     3  C   -0.170816
     4  C    0.158349
     5  C   -0.170627
     6  C   -0.222086
     7  H    0.239176
     8  H    0.223824
     9  H    0.275427
    10  H    0.275430
    11  H    0.224142
    12  N    0.487991
    13  O   -0.460526
    14  O   -0.460551
    15  C   -0.297467
    16  C   -0.305287
    17  C   -0.481968
    18  H    0.153577
    19  H    0.151244
    20  H    0.154883
    21  H    0.142391
    22  H    0.155637
    23  H    0.162283
    24  H    0.161083
    25  C   -0.299086
    26  C   -0.300309
    27  C   -0.476197
    28  H    0.150288
    29  H    0.148644
    30  H    0.153513
    31  H    0.152895
    32  H    0.155437
    33  H    0.155873
    34  H    0.162383
 Sum of Mulliken charges =  -0.00000

 Dipole moment (field-independent basis, Debye):
    X=              5.3918    Y=              0.5301    Z=             -0.6262  Tot=              5.4539
 Quadrupole moment (field-independent basis, Debye-Ang):
   XX=           -134.4405   YY=            -91.9614   ZZ=            -93.2012
   XY=             -3.0510   XZ=              3.0754   YZ=             -2.5066

 Normal termination of Gaussian 16 at Wed May  5 20:50:08 2021.
