 Gaussian 16, Revision A.03,
 Gaussian 16:  EM64L-G16RevA.03 25-Dec-2016

 -------------
 #p 6-31g* mp2
 -------------

 ------------------------------------------------------
 Input file generated by CHIRIPA (05-May-2021 14:51:12)
 ------------------------------------------------------
 Symbolic Z-matrix:
 Charge =  0 Multiplicity = 1

                         Standard orientation:
 ---------------------------------------------------------------------
 Center     Atomic      Atomic             Coordinates (Angstroms)
 Number     Number       Type             X           Y           Z
 ---------------------------------------------------------------------
      1          6           0       -3.130953   -0.357268   -0.034066
      2          6           0       -3.054746   -1.692268   -0.775655
      3          6           0       -1.733366   -2.424641   -0.540327
      4          1           0       -2.294931    0.280230   -0.352826
      5          1           0       -2.995823   -0.535184    1.041797
      6          1           0       -3.191360   -1.512046   -1.849654
      7          1           0       -3.891156   -2.326589   -0.455235
      8          1           0       -1.593045   -2.633350    0.525202
      9          1           0       -0.889273   -1.814178   -0.877139
     10          1           0       -1.700282   -3.376403   -1.079691
     11          6           0       -4.446023    0.386726   -0.259439
     12          6           0       -4.522230    1.721725    0.482150
     13          6           0       -5.843610    2.454098    0.246821
     14          1           0       -4.581153    0.564642   -1.335302
     15          1           0       -5.282045   -0.250772    0.059320
     16          1           0       -3.685819    2.356047    0.161729
     17          1           0       -4.385616    1.541503    1.556148
     18          1           0       -6.687703    1.843636    0.583634
     19          1           0       -5.983931    2.662808   -0.818708
     20          1           0       -5.876694    3.405861    0.786185
     21          6           0        4.211319    0.374627   -0.356286
     22          6           0        5.152215    1.387140    0.297561
     23          6           0        5.991448    2.158213   -0.721719
     24          1           0        4.802105   -0.331248   -0.956000
     25          1           0        3.547507    0.900421   -1.056493
     26          1           0        5.813129    0.859789    0.997354
     27          1           0        4.559138    2.090571    0.895942
     28          1           0        5.346480    2.709619   -1.413506
     29          1           0        6.607595    1.471844   -1.311518
     30          1           0        6.656877    2.876485   -0.232692
     31          6           0        3.365657   -0.404084    0.649792
     32          6           0        2.424760   -1.416598   -0.004055
     33          6           0        1.585529   -2.187670    1.015225
     34          1           0        4.029468   -0.929879    1.349999
     35          1           0        2.774871    0.301790    1.249506
     36          1           0        3.017838   -2.120029   -0.602436
     37          1           0        1.763847   -0.889247   -0.703848
     38          1           0        0.969381   -1.501302    1.605023
     39          1           0        2.230497   -2.739077    1.707012
     40          1           0        0.920098   -2.905942    0.526198
 ---------------------------------------------------------------------

 SCF Done:  E(RHF) =  -470.732377881     A.U. after   11 cycles
 E2 =    -0.1583044496D+01 EUMP2 =    -0.47231542237675D+03

 The electronic state is 1-A.
 Alpha  occ. eigenvalues --  -11.21612 -11.21586 -11.21578 -11.21556 -11.21411
 Alpha  occ. eigenvalues --  -11.21377 -11.21352 -11.21316 -11.21080 -11.21061
 Alpha  occ. eigenvalues --  -11.21011 -11.20882  -1.08436  -1.08391  -1.03563
 Alpha  occ. eigenvalues --   -1.03450  -0.96063  -0.95849  -0.87118  -0.86833
 Alpha  occ. eigenvalues --   -0.79660  -0.79491  -0.78247  -0.78213  -0.65073
 Alpha  occ. eigenvalues --   -0.65020  -0.60968  -0.60856  -0.59354  -0.59343
 Alpha  occ. eigenvalues --   -0.57746  -0.57390  -0.55283  -0.55202  -0.52954
 Alpha  occ. eigenvalues --   -0.52623  -0.52403  -0.52026  -0.49946  -0.49843
 Alpha  occ. eigenvalues --   -0.47944  -0.47772  -0.46699  -0.46517  -0.45789
 Alpha  occ. eigenvalues --   -0.45739  -0.45734  -0.45647  -0.43827  -0.43659
 Alpha virt. eigenvalues --    0.21828   0.23044   0.23536   0.24870   0.26117
 Alpha virt. eigenvalues --    0.26596   0.27097   0.27577   0.27600   0.29409
 Alpha virt. eigenvalues --    0.29892   0.30878   0.31332   0.31949   0.32295

 Mulliken charges:
               1
     1  C   -0.298064
     2  C   -0.300675
     3  C   -0.479784
     4  H    0.148950
     5  H    0.149487
     6  H    0.151554
     7  H    0.151748
     8  H    0.157677
     9  H    0.159623
    10  H    0.159263
    11  C   -0.298232
    12  C   -0.299616
    13  C   -0.475703
    14  H    0.149533
    15  H    0.149761
    16  H    0.151729
    17  H    0.151917
    18  H    0.155243
    19  H    0.155192
    20  H    0.160240
    21  C   -0.298215
    22  C   -0.299617
    23  C   -0.475671
    24  H    0.149604
    25  H    0.149133
    26  H    0.151948
    27  H    0.151893
    28  H    0.155059
    29  H    0.155161
    30  H    0.160205
    31  C   -0.298230
    32  C   -0.301621
    33  C   -0.479424
    34  H    0.149648
    35  H    0.149615
    36  H    0.151809
    37  H    0.151604
    38  H    0.154348
    39  H    0.153533
    40  H    0.169377
 Sum of Mulliken charges =  -0.00000

 Dipole moment (field-independent basis, Debye):
    X=             -0.0168    Y=             -0.0267    Z=              0.0032  Tot=              0.0318
 Quadrupole moment (field-independent basis, Debye-Ang):
   XX=            -85.5070   YY=            -84.8291   ZZ=            -84.5587
   XY=             -0.1797   XZ=             -0.0018   YZ=              0.0004

 Normal termination of Gaussian 16 at Wed May  5 21:31:07 2021.
