 Gaussian 16, Revision A.03,
 Gaussian 16:  EM64L-G16RevA.03 25-Dec-2016

 -------------
 #p 6-31g* mp2
 -------------

 ------------------------------------------------------
 Input file generated by CHIRIPA (05-May-2021 14:57:27)
 ------------------------------------------------------
 Symbolic Z-matrix:
 Charge =  0 Multiplicity = 1

                         Standard orientation:
 ---------------------------------------------------------------------
 Center     Atomic      Atomic             Coordinates (Angstroms)
 Number     Number       Type             X           Y           Z
 ---------------------------------------------------------------------
      1          6           0       -1.832736    1.316296    1.982129
      2          6           0       -2.894258    1.840418    1.237153
      3          6           0       -3.540605    1.058675    0.275041
      4          6           0       -3.097478   -0.249021    0.083050
      5          6           0       -2.042778   -0.799798    0.809370
      6          6           0       -1.411127    0.000181    1.766240
      7          1           0       -1.336347    1.930656    2.727485
      8          1           0       -3.223818    2.862199    1.402678
      9          1           0       -4.364975    1.439214   -0.315739
     10          1           0       -1.736736   -1.821851    0.621850
     11          1           0       -0.587006   -0.409503    2.343326
     12          7           0       -3.773957   -1.086270   -0.932721
     13          8           0       -3.364583   -2.235404   -1.082855
     14          8           0       -4.700747   -0.577518   -1.559514
     15          6           0        4.455586   -1.746856    0.618132
     16          6           0        3.073128   -1.792543    0.826082
     17          6           0        2.249185   -0.768675    0.349256
     18          6           0        2.843910    0.290646   -0.334434
     19          6           0        4.217971    0.364720   -0.557504
     20          6           0        5.022596   -0.670268   -0.071780
     21          1           0        5.088140   -2.546539    0.991998
     22          1           0        2.630024   -2.627403    1.361536
     23          1           0        1.176006   -0.778848    0.496227
     24          1           0        4.630638    1.209923   -1.094866
     25          1           0        6.095924   -0.632145   -0.234746
     26          7           0        1.981865    1.380455   -0.843938
     27          8           0        2.530337    2.302767   -1.443234
     28          8           0        0.774045    1.291700   -0.634343
 ---------------------------------------------------------------------

 SCF Done:  E(RHF) =  -868.336596380     A.U. after   16 cycles
 E2 =    -0.2601930598D+01 EUMP2 =    -0.87093852697855D+03

 The electronic state is 1-A.
 Alpha  occ. eigenvalues --  -20.61112 -20.61106 -20.60336 -20.60320 -15.86159
 Alpha  occ. eigenvalues --  -15.85385 -11.31596 -11.30653 -11.28185 -11.28139
 Alpha  occ. eigenvalues --  -11.27894 -11.27347 -11.27219 -11.27198 -11.27157
 Alpha  occ. eigenvalues --  -11.26966 -11.26368 -11.26171  -1.60194  -1.59404
 Alpha  occ. eigenvalues --   -1.39742  -1.38964  -1.19769  -1.18820  -1.09145
 Alpha  occ. eigenvalues --   -1.08230  -1.05192  -1.04273  -0.95974  -0.95092
 Alpha  occ. eigenvalues --   -0.86581  -0.85676  -0.82808  -0.81976  -0.77865
 Alpha  occ. eigenvalues --   -0.77027  -0.72385  -0.71618  -0.71522  -0.70877
 Alpha  occ. eigenvalues --   -0.70713  -0.69974  -0.65420  -0.65217  -0.64523
 Alpha  occ. eigenvalues --   -0.64342  -0.62584  -0.61622  -0.55665  -0.54763
 Alpha  occ. eigenvalues --   -0.53505  -0.53323  -0.52456  -0.52392  -0.49153
 Alpha  occ. eigenvalues --   -0.49122  -0.48374  -0.48360  -0.45141  -0.44395
 Alpha  occ. eigenvalues --   -0.37737  -0.36802  -0.36684  -0.35789
 Alpha virt. eigenvalues --    0.04650   0.05537   0.10799   0.11878   0.16156
 Alpha virt. eigenvalues --    0.16852   0.20253   0.22136   0.25879   0.27526
 Alpha virt. eigenvalues --    0.28553   0.29402   0.30830   0.31195   0.32525

 Mulliken charges:
               1
     1  C   -0.160834
     2  C   -0.214390
     3  C   -0.167092
     4  C    0.161645
     5  C   -0.169272
     6  C   -0.211125
     7  H    0.224205
     8  H    0.223410
     9  H    0.275147
    10  H    0.267275
    11  H    0.211010
    12  N    0.488416
    13  O   -0.464553
    14  O   -0.460218
    15  C   -0.170092
    16  C   -0.220680
    17  C   -0.175876
    18  C    0.156022
    19  C   -0.169845
    20  C   -0.218509
    21  H    0.227142
    22  H    0.222321
    23  H    0.277048
    24  H    0.276792
    25  H    0.225066
    26  N    0.487203
    27  O   -0.459834
    28  O   -0.460380
 Sum of Mulliken charges =  -0.00000

 Dipole moment (field-independent basis, Debye):
    X=              5.4391    Y=             -0.6090    Z=              5.2876  Tot=              7.6101
 Quadrupole moment (field-independent basis, Debye-Ang):
   XX=            -97.2160   YY=           -105.3532   ZZ=           -106.1243
   XY=            -21.1694   XZ=             -7.8292   YZ=             -0.5901

 Normal termination of Gaussian 16 at Thu May  6 19:47:07 2021.
