 Gaussian 16, Revision A.03,
 Gaussian 16:  EM64L-G16RevA.03 25-Dec-2016

 -------------
 #p 6-31g* mp2
 -------------

 ------------------------------------------------------
 Input file generated by CHIRIPA (05-May-2021 14:57:24)
 ------------------------------------------------------
 Symbolic Z-matrix:
 Charge =  0 Multiplicity = 1

                         Standard orientation:
 ---------------------------------------------------------------------
 Center     Atomic      Atomic             Coordinates (Angstroms)
 Number     Number       Type             X           Y           Z
 ---------------------------------------------------------------------
      1          6           0       -3.546008   -2.201452    0.658843
      2          6           0       -3.548287   -1.866557   -0.699230
      3          6           0       -3.042650   -0.635626   -1.127817
      4          6           0       -2.540188    0.240425   -0.166902
      5          6           0       -2.524096   -0.064309    1.193307
      6          6           0       -3.034821   -1.300846    1.599119
      7          1           0       -3.940776   -3.159846    0.982933
      8          1           0       -3.944648   -2.564014   -1.431690
      9          1           0       -3.032219   -0.350835   -2.172903
     10          1           0       -2.122312    0.651655    1.899977
     11          1           0       -3.031773   -1.558254    2.654475
     12          7           0       -2.002199    1.546524   -0.608573
     13          8           0       -1.565162    2.300846    0.257819
     14          8           0       -2.027748    1.791192   -1.812783
     15          6           0        1.775506    2.177862    0.979771
     16          6           0        2.034396    1.122414    1.860411
     17          6           0        2.507445   -0.102652    1.380840
     18          6           0        2.711354   -0.238144    0.008487
     19          6           0        2.462727    0.794638   -0.894196
     20          6           0        1.990119    2.010899   -0.392303
     21          1           0        1.408201    3.126103    1.360982
     22          1           0        1.868642    1.249226    2.926473
     23          1           0        2.716087   -0.936320    2.040296
     24          1           0        2.637624    0.638155   -1.951713
     25          1           0        1.789922    2.828837   -1.078557
     26          7           0        3.211915   -1.530407   -0.511029
     27          8           0        3.383402   -1.624387   -1.724452
     28          8           0        3.423292   -2.424831    0.305037
 ---------------------------------------------------------------------

 SCF Done:  E(RHF) =  -868.339838481     A.U. after   16 cycles
 E2 =    -0.2600202016D+01 EUMP2 =    -0.87094004049736D+03

 The electronic state is 1-A.
 Alpha  occ. eigenvalues --  -20.61342 -20.61336 -20.60368 -20.60353 -15.86356
 Alpha  occ. eigenvalues --  -15.85412 -11.31481 -11.30544 -11.28056 -11.28001
 Alpha  occ. eigenvalues --  -11.27710 -11.27183 -11.27052 -11.27001 -11.26955
 Alpha  occ. eigenvalues --  -11.26688 -11.26090 -11.25873  -1.60396  -1.59447
 Alpha  occ. eigenvalues --   -1.39962  -1.39006  -1.19628  -1.18699  -1.09067
 Alpha  occ. eigenvalues --   -1.08092  -1.05001  -1.04072  -0.95951  -0.94971
 Alpha  occ. eigenvalues --   -0.86410  -0.85454  -0.82803  -0.81822  -0.77876
 Alpha  occ. eigenvalues --   -0.76929  -0.72627  -0.71700  -0.71629  -0.70773
 Alpha  occ. eigenvalues --   -0.70740  -0.69718  -0.65291  -0.65008  -0.64328
 Alpha  occ. eigenvalues --   -0.64041  -0.62361  -0.61427  -0.55506  -0.54467
 Alpha  occ. eigenvalues --   -0.53332  -0.53097  -0.52417  -0.52138  -0.49383
 Alpha  occ. eigenvalues --   -0.49338  -0.48401  -0.48367  -0.45429  -0.44466
 Alpha  occ. eigenvalues --   -0.37595  -0.36594  -0.36520  -0.35689
 Alpha virt. eigenvalues --    0.04595   0.05668   0.11066   0.11979   0.16134
 Alpha virt. eigenvalues --    0.17275   0.21182   0.22223   0.27085   0.27953
 Alpha virt. eigenvalues --    0.28164   0.29141   0.30783   0.31795   0.32227

 Mulliken charges:
               1
     1  C   -0.169163
     2  C   -0.217739
     3  C   -0.169927
     4  C    0.158998
     5  C   -0.168977
     6  C   -0.218186
     7  H    0.227744
     8  H    0.225813
     9  H    0.276247
    10  H    0.271079
    11  H    0.223335
    12  N    0.490259
    13  O   -0.467688
    14  O   -0.460646
    15  C   -0.155487
    16  C   -0.225492
    17  C   -0.173322
    18  C    0.155837
    19  C   -0.174667
    20  C   -0.217077
    21  H    0.232186
    22  H    0.218127
    23  H    0.270748
    24  H    0.274719
    25  H    0.231607
    26  N    0.488281
    27  O   -0.461913
    28  O   -0.464694
 Sum of Mulliken charges =  -0.00000

 Dipole moment (field-independent basis, Debye):
    X=             -3.9148    Y=              0.1273    Z=              3.2717  Tot=              5.1035
 Quadrupole moment (field-independent basis, Debye-Ang):
   XX=           -106.4920   YY=           -108.8355   ZZ=            -96.7681
   XY=             25.5028   XZ=              2.4564   YZ=              0.0398

 Normal termination of Gaussian 16 at Fri May  7 11:05:27 2021.
