 Gaussian 16, Revision A.03,
 Gaussian 16:  EM64L-G16RevA.03 25-Dec-2016

 -------------
 #p 6-31g* mp2
 -------------

 ------------------------------------------------------
 Input file generated by CHIRIPA (05-May-2021 14:51:13)
 ------------------------------------------------------
 Symbolic Z-matrix:
 Charge =  0 Multiplicity = 1

                         Standard orientation:
 ---------------------------------------------------------------------
 Center     Atomic      Atomic             Coordinates (Angstroms)
 Number     Number       Type             X           Y           Z
 ---------------------------------------------------------------------
      1          6           0        4.681106   -0.126715   -0.507647
      2          6           0        5.431065   -1.113759    0.387501
      3          6           0        6.432891   -1.970695   -0.386967
      4          1           0        4.157051   -0.682657   -1.297103
      5          1           0        5.407829    0.524064   -1.013371
      6          1           0        4.703069   -1.761576    0.892447
      7          1           0        5.953240   -0.555417    1.175031
      8          1           0        7.181080   -1.339839   -0.877715
      9          1           0        5.923806   -2.552851   -1.161905
     10          1           0        6.957757   -2.669152    0.272225
     11          6           0        3.675970    0.737095    0.252130
     12          6           0        2.926011    1.724139   -0.643018
     13          6           0        1.924185    2.581075    0.131450
     14          1           0        2.949247    0.086316    0.757854
     15          1           0        4.200025    1.293037    1.041586
     16          1           0        2.403836    1.165797   -1.430548
     17          1           0        3.654007    2.371956   -1.147964
     18          1           0        2.433270    3.163230    0.906388
     19          1           0        1.175996    1.950218    0.622198
     20          1           0        1.399319    3.279532   -0.527742
     21          6           0       -4.846625    0.058973    0.060848
     22          6           0       -5.978684   -0.838188   -0.440677
     23          6           0       -7.308868   -0.095321   -0.569333
     24          1           0       -5.127264    0.482748    1.034810
     25          1           0       -4.728637    0.907695   -0.627008
     26          1           0       -6.093583   -1.685703    0.247169
     27          1           0       -5.695237   -1.260028   -1.413469
     28          1           0       -7.217360    0.739869   -1.271250
     29          1           0       -7.617970    0.311775    0.398825
     30          1           0       -8.104174   -0.755441   -0.929319
     31          6           0       -3.510451   -0.669353    0.194669
     32          6           0       -2.378392    0.227808    0.696194
     33          6           0       -1.048208   -0.515059    0.824850
     34          1           0       -3.628439   -1.518074    0.882524
     35          1           0       -3.229812   -1.093127   -0.779293
     36          1           0       -2.661839    0.649648    1.668986
     37          1           0       -2.263493    1.075324    0.008347
     38          1           0       -0.739106   -0.922155   -0.143308
     39          1           0       -1.139715   -1.350249    1.526766
     40          1           0       -0.252902    0.145062    1.184836
 ---------------------------------------------------------------------

 SCF Done:  E(RHF) =  -470.733312433     A.U. after   11 cycles
 E2 =    -0.1582441264D+01 EUMP2 =    -0.47231575369669D+03

 The electronic state is 1-A.
 Alpha  occ. eigenvalues --  -11.21633 -11.21614 -11.21574 -11.21574 -11.21425
 Alpha  occ. eigenvalues --  -11.21374 -11.21365 -11.21315 -11.21131 -11.21079
 Alpha  occ. eigenvalues --  -11.21050 -11.21037  -1.08453  -1.08400  -1.03564
 Alpha  occ. eigenvalues --   -1.03497  -0.96026  -0.95941  -0.87046  -0.86955
 Alpha  occ. eigenvalues --   -0.79629  -0.79557  -0.78262  -0.78214  -0.65088
 Alpha  occ. eigenvalues --   -0.65029  -0.61000  -0.60893  -0.59423  -0.59285
 Alpha  occ. eigenvalues --   -0.57696  -0.57504  -0.55328  -0.55209  -0.52758
 Alpha  occ. eigenvalues --   -0.52648  -0.52486  -0.52292  -0.49953  -0.49874
 Alpha  occ. eigenvalues --   -0.47991  -0.47828  -0.46648  -0.46586  -0.45805
 Alpha  occ. eigenvalues --   -0.45756  -0.45727  -0.45677  -0.43793  -0.43749
 Alpha virt. eigenvalues --    0.21070   0.23048   0.23522   0.25126   0.26129
 Alpha virt. eigenvalues --    0.26632   0.27038   0.27482   0.27910   0.28841
 Alpha virt. eigenvalues --    0.30290   0.31326   0.31780   0.31810   0.32060

 Mulliken charges:
               1
     1  C   -0.298221
     2  C   -0.299720
     3  C   -0.475691
     4  H    0.149673
     5  H    0.149394
     6  H    0.152238
     7  H    0.151828
     8  H    0.155083
     9  H    0.155158
    10  H    0.160188
    11  C   -0.299570
    12  C   -0.298914
    13  C   -0.482064
    14  H    0.150848
    15  H    0.149427
    16  H    0.151958
    17  H    0.151773
    18  H    0.155062
    19  H    0.161102
    20  H    0.160074
    21  C   -0.298310
    22  C   -0.299678
    23  C   -0.475725
    24  H    0.149764
    25  H    0.149664
    26  H    0.151936
    27  H    0.151932
    28  H    0.155230
    29  H    0.155228
    30  H    0.160284
    31  C   -0.298394
    32  C   -0.299796
    33  C   -0.481971
    34  H    0.149590
    35  H    0.149612
    36  H    0.152212
    37  H    0.152889
    38  H    0.155027
    39  H    0.155581
    40  H    0.165299
 Sum of Mulliken charges =  -0.00000

 Dipole moment (field-independent basis, Debye):
    X=             -0.0245    Y=             -0.0053    Z=              0.0051  Tot=              0.0256
 Quadrupole moment (field-independent basis, Debye-Ang):
   XX=            -85.8727   YY=            -84.9219   ZZ=            -84.0071
   XY=              1.4770   XZ=              0.0657   YZ=             -0.3558

 Normal termination of Gaussian 16 at Thu May  6 00:47:43 2021.
