 Gaussian 16, Revision A.03,
 Gaussian 16:  EM64L-G16RevA.03 25-Dec-2016

 -------------
 #p 6-31g* mp2
 -------------

 ------------------------------------------------------
 Input file generated by CHIRIPA (05-May-2021 14:53:12)
 ------------------------------------------------------
 Symbolic Z-matrix:
 Charge =  0 Multiplicity = 1

                         Standard orientation:
 ---------------------------------------------------------------------
 Center     Atomic      Atomic             Coordinates (Angstroms)
 Number     Number       Type             X           Y           Z
 ---------------------------------------------------------------------
      1          6           0       -3.459574   -0.035559   -0.451159
      2          6           0       -4.625268   -0.569372    0.382020
      3          6           0       -5.148603   -1.913103   -0.126215
      4          1           0       -3.780903    0.066234   -1.496783
      5          1           0       -2.645319   -0.773355   -0.444804
      6          1           0       -5.436545    0.169816    0.375235
      7          1           0       -4.301184   -0.669725    1.425819
      8          1           0       -4.356574   -2.668592   -0.103279
      9          1           0       -5.498385   -1.824280   -1.159832
     10          1           0       -5.981591   -2.276226    0.483812
     11          6           0       -2.925458    1.307091    0.044562
     12          6           0       -1.759764    1.840904   -0.788617
     13          6           0       -1.236429    3.184634   -0.280382
     14          1           0       -3.739714    2.044886    0.038207
     15          1           0       -2.604129    1.205297    1.090187
     16          1           0       -2.083848    1.941257   -1.832415
     17          1           0       -0.948488    1.101715   -0.781831
     18          1           0       -0.886647    3.095811    0.753236
     19          1           0       -2.028458    3.940123   -0.303318
     20          1           0       -0.403441    3.547757   -0.890409
     21          6           0        0.163435   -1.339601    0.631247
     22          6           0        0.669993   -0.246588    1.342052
     23          6           0        1.960021    0.228968    1.088633
     24          6           0        2.719478   -0.415203    0.113155
     25          6           0        2.242945   -1.506372   -0.611798
     26          6           0        0.950140   -1.964900   -0.341694
     27          1           0       -0.839768   -1.702410    0.834589
     28          1           0        0.061280    0.240986    2.098216
     29          1           0        2.377032    1.073223    1.624129
     30          1           0        2.873478   -1.971780   -1.359622
     31          1           0        0.559345   -2.813950   -0.895265
     32          7           0        4.086643    0.079235   -0.163959
     33          8           0        4.735685   -0.505697   -1.028388
     34          8           0        4.483297    1.042345    0.488514
 ---------------------------------------------------------------------

 SCF Done:  E(RHF) =  -669.534491077     A.U. after   15 cycles
 E2 =    -0.2094264935D+01 EUMP2 =    -0.67162875601209D+03

 The electronic state is 1-A.
 Alpha  occ. eigenvalues --  -20.60827 -20.60821 -15.85882 -11.31284 -11.27856
 Alpha  occ. eigenvalues --  -11.27851 -11.27587 -11.26882 -11.26872 -11.22463
 Alpha  occ. eigenvalues --  -11.22267 -11.22141 -11.21958 -11.21904 -11.21497
 Alpha  occ. eigenvalues --   -1.59902  -1.39454  -1.19471  -1.09213  -1.08843
 Alpha  occ. eigenvalues --   -1.04875  -1.04192  -0.96672  -0.95684  -0.87681
 Alpha  occ. eigenvalues --   -0.86267  -0.82515  -0.80266  -0.78998  -0.77549
 Alpha  occ. eigenvalues --   -0.72099  -0.71225  -0.70614  -0.65908  -0.65114
 Alpha  occ. eigenvalues --   -0.64823  -0.62227  -0.61608  -0.60031  -0.58266
 Alpha  occ. eigenvalues --   -0.56081  -0.55304  -0.53359  -0.53190  -0.53067
 Alpha  occ. eigenvalues --   -0.52956  -0.50626  -0.48864  -0.48851  -0.48567
 Alpha  occ. eigenvalues --   -0.47314  -0.46524  -0.46442  -0.44851  -0.44473
 Alpha  occ. eigenvalues --   -0.37372  -0.36454
 Alpha virt. eigenvalues --    0.04937   0.11103   0.16272   0.18857   0.22586
 Alpha virt. eigenvalues --    0.23473   0.25408   0.26109   0.27094   0.28317
 Alpha virt. eigenvalues --    0.29835   0.29932   0.31235   0.31630   0.32199

 Mulliken charges:
               1
     1  C   -0.301148
     2  C   -0.300503
     3  C   -0.474754
     4  H    0.154479
     5  H    0.141195
     6  H    0.156307
     7  H    0.147989
     8  H    0.149320
     9  H    0.158331
    10  H    0.163337
    11  C   -0.297706
    12  C   -0.307532
    13  C   -0.474691
    14  H    0.153361
    15  H    0.140510
    16  H    0.153123
    17  H    0.161967
    18  H    0.148459
    19  H    0.156265
    20  H    0.165154
    21  C   -0.170984
    22  C   -0.219160
    23  C   -0.170543
    24  C    0.158781
    25  C   -0.170589
    26  C   -0.219288
    27  H    0.228668
    28  H    0.224901
    29  H    0.276367
    30  H    0.276167
    31  H    0.224274
    32  N    0.488036
    33  O   -0.460131
    34  O   -0.459962
 Sum of Mulliken charges =  -0.00000

 Dipole moment (field-independent basis, Debye):
    X=             -4.8171    Y=             -1.7122    Z=              0.8875  Tot=              5.1888
 Quadrupole moment (field-independent basis, Debye-Ang):
   XX=           -120.9139   YY=            -91.8060   ZZ=            -92.2254
   XY=             -4.0825   XZ=              2.1780   YZ=              1.6102

 Normal termination of Gaussian 16 at Thu May  6 08:53:46 2021.
