 Gaussian 16, Revision A.03,
 Gaussian 16:  EM64L-G16RevA.03 25-Dec-2016

 -------------
 #p 6-31g* mp2
 -------------

 ------------------------------------------------------
 Input file generated by CHIRIPA (05-May-2021 14:53:16)
 ------------------------------------------------------
 Symbolic Z-matrix:
 Charge =  0 Multiplicity = 1

                         Standard orientation:
 ---------------------------------------------------------------------
 Center     Atomic      Atomic             Coordinates (Angstroms)
 Number     Number       Type             X           Y           Z
 ---------------------------------------------------------------------
      1          6           0        2.192619    1.467838    0.225161
      2          6           0        1.208725    1.858061   -0.878317
      3          6           0        0.403375    3.111864   -0.535996
      4          1           0        1.639455    1.306043    1.160457
      5          1           0        2.878431    2.306508    0.408705
      6          1           0        0.525850    1.018395   -1.060686
      7          1           0        1.764273    2.018759   -1.811140
      8          1           0        1.069606    3.965437   -0.374283
      9          1           0       -0.175852    2.959389    0.380436
     10          1           0       -0.293663    3.372803   -1.338435
     11          6           0        3.005086    0.216304   -0.102388
     12          6           0        3.988980   -0.173919    1.001090
     13          6           0        4.794330   -1.427722    0.658769
     14          1           0        2.319274   -0.622366   -0.285932
     15          1           0        3.558250    0.378099   -1.037684
     16          1           0        3.433432   -0.334617    1.933913
     17          1           0        4.671854    0.665747    1.183458
     18          1           0        5.373557   -1.275247   -0.257663
     19          1           0        4.128098   -2.281295    0.497056
     20          1           0        5.491368   -1.688661    1.461208
     21          6           0       -3.417515    1.083517    1.139175
     22          6           0       -2.946559    1.326872   -0.155236
     23          6           0       -2.177101    0.369195   -0.822572
     24          6           0       -1.896248   -0.826219   -0.162726
     25          6           0       -2.351013   -1.098168    1.126662
     26          6           0       -3.118766   -0.126094    1.774872
     27          1           0       -4.014586    1.833056    1.650148
     28          1           0       -3.177017    2.265370   -0.651376
     29          1           0       -1.799744    0.531573   -1.824896
     30          1           0       -2.104909   -2.043213    1.595428
     31          1           0       -3.483179   -0.317814    2.780105
     32          7           0       -1.082560   -1.847689   -0.859080
     33          8           0       -0.848950   -2.892827   -0.255963
     34          8           0       -0.693808   -1.583838   -1.994814
 ---------------------------------------------------------------------

 SCF Done:  E(RHF) =  -669.534861038     A.U. after   15 cycles
 E2 =    -0.2094730459D+01 EUMP2 =    -0.67162959149640D+03

 The electronic state is 1-A.
 Alpha  occ. eigenvalues --  -20.60972 -20.60942 -15.85981 -11.31285 -11.27855
 Alpha  occ. eigenvalues --  -11.27838 -11.27585 -11.26851 -11.26832 -11.21412
 Alpha  occ. eigenvalues --  -11.21241 -11.21191 -11.21161 -11.20896 -11.20554
 Alpha  occ. eigenvalues --   -1.60018  -1.39574  -1.19471  -1.08870  -1.08136
 Alpha  occ. eigenvalues --   -1.04867  -1.03284  -0.95776  -0.95691  -0.86777
 Alpha  occ. eigenvalues --   -0.86259  -0.82540  -0.79362  -0.77925  -0.77583
 Alpha  occ. eigenvalues --   -0.72199  -0.71346  -0.70580  -0.65117  -0.64898
 Alpha  occ. eigenvalues --   -0.64740  -0.62243  -0.60695  -0.59149  -0.57353
 Alpha  occ. eigenvalues --   -0.55362  -0.55087  -0.53112  -0.52956  -0.52468
 Alpha  occ. eigenvalues --   -0.52164  -0.49684  -0.48974  -0.48955  -0.47665
 Alpha  occ. eigenvalues --   -0.46419  -0.45513  -0.45414  -0.44796  -0.43531
 Alpha  occ. eigenvalues --   -0.37418  -0.36387
 Alpha virt. eigenvalues --    0.04910   0.11117   0.16374   0.20837   0.23135
 Alpha virt. eigenvalues --    0.24382   0.26489   0.26793   0.27498   0.28179
 Alpha virt. eigenvalues --    0.29065   0.30504   0.31623   0.31688   0.32721

 Mulliken charges:
               1
     1  C   -0.298521
     2  C   -0.305620
     3  C   -0.476403
     4  H    0.146909
     5  H    0.147824
     6  H    0.157507
     7  H    0.154224
     8  H    0.155894
     9  H    0.154905
    10  H    0.149607
    11  C   -0.300474
    12  C   -0.299092
    13  C   -0.476629
    14  H    0.158382
    15  H    0.150822
    16  H    0.149802
    17  H    0.149257
    18  H    0.155028
    19  H    0.161478
    20  H    0.157820
    21  C   -0.172188
    22  C   -0.215978
    23  C   -0.172346
    24  C    0.159956
    25  C   -0.171232
    26  C   -0.218624
    27  H    0.226301
    28  H    0.225121
    29  H    0.277224
    30  H    0.275673
    31  H    0.223804
    32  N    0.488373
    33  O   -0.459405
    34  O   -0.459395
 Sum of Mulliken charges =  -0.00000

 Dipole moment (field-independent basis, Debye):
    X=             -2.9307    Y=              3.4382    Z=              2.4147  Tot=              5.1226
 Quadrupole moment (field-independent basis, Debye-Ang):
   XX=            -84.4405   YY=           -100.1696   ZZ=            -92.5221
   XY=             -3.5729   XZ=             -5.1124   YZ=             -5.6146

 Normal termination of Gaussian 16 at Thu May  6 17:12:46 2021.
