 Gaussian 16, Revision A.03,
 Gaussian 16:  EM64L-G16RevA.03 25-Dec-2016

 -------------
 #p 6-31g* mp2
 -------------

 ------------------------------------------------------
 Input file generated by CHIRIPA (05-May-2021 14:53:17)
 ------------------------------------------------------
 Symbolic Z-matrix:
 Charge =  0 Multiplicity = 1

                         Standard orientation:
 ---------------------------------------------------------------------
 Center     Atomic      Atomic             Coordinates (Angstroms)
 Number     Number       Type             X           Y           Z
 ---------------------------------------------------------------------
      1          6           0        3.076358    1.131077   -0.257973
      2          6           0        2.254743    1.831954    0.824480
      3          6           0        1.335671    2.915766    0.260166
      4          1           0        3.675570    1.878353   -0.795997
      5          1           0        2.394341    0.686928   -0.996199
      6          1           0        2.938077    2.273466    1.561187
      7          1           0        1.657562    1.082898    1.360117
      8          1           0        0.631053    2.486909   -0.459693
      9          1           0        1.918843    3.684242   -0.257479
     10          1           0        0.757692    3.403832    1.051110
     11          6           0        4.000030    0.044975    0.290606
     12          6           0        4.821646   -0.655902   -0.791847
     13          6           0        5.740718   -1.739714   -0.227532
     14          1           0        4.682048    0.489124    1.028832
     15          1           0        3.400819   -0.702301    0.828631
     16          1           0        5.418827    0.093154   -1.327483
     17          1           0        4.138312   -1.097414   -1.528554
     18          1           0        5.157546   -2.508190    0.290113
     19          1           0        6.445336   -1.310857    0.492326
     20          1           0        6.318697   -2.227780   -1.018477
     21          6           0       -1.364050   -2.524001    0.365229
     22          6           0       -0.753619   -1.267432    0.295014
     23          6           0       -1.519531   -0.116689    0.085926
     24          6           0       -2.899577   -0.259797   -0.049289
     25          6           0       -3.537109   -1.497774    0.015939
     26          6           0       -2.751401   -2.634966    0.225713
     27          1           0       -0.761381   -3.412662    0.527919
     28          1           0        0.323613   -1.178245    0.403013
     29          1           0       -1.072849    0.868434    0.027395
     30          1           0       -4.613097   -1.554958   -0.095412
     31          1           0       -3.228183   -3.609541    0.279805
     32          7           0       -3.720893    0.951270   -0.271004
     33          8           0       -4.934900    0.798410   -0.387011
     34          8           0       -3.135082    2.030433   -0.324578
 ---------------------------------------------------------------------

 SCF Done:  E(RHF) =  -669.535348379     A.U. after   15 cycles
 E2 =    -0.2092279756D+01 EUMP2 =    -0.67162762813475D+03

 The electronic state is 1-A.
 Alpha  occ. eigenvalues --  -20.60741 -20.60736 -15.85793 -11.31159 -11.27741
 Alpha  occ. eigenvalues --  -11.27704 -11.27489 -11.26759 -11.26743 -11.22305
 Alpha  occ. eigenvalues --  -11.22237 -11.22146 -11.22078 -11.21646 -11.21522
 Alpha  occ. eigenvalues --   -1.59816  -1.39369  -1.19339  -1.09140  -1.08735
 Alpha  occ. eigenvalues --   -1.04749  -1.04161  -0.96594  -0.95567  -0.87598
 Alpha  occ. eigenvalues --   -0.86142  -0.82402  -0.80214  -0.78944  -0.77452
 Alpha  occ. eigenvalues --   -0.72013  -0.71139  -0.70464  -0.65834  -0.64989
 Alpha  occ. eigenvalues --   -0.64755  -0.62264  -0.61389  -0.59942  -0.58191
 Alpha  occ. eigenvalues --   -0.55930  -0.55229  -0.53235  -0.53074  -0.53023
 Alpha  occ. eigenvalues --   -0.52810  -0.50516  -0.48773  -0.48767  -0.48512
 Alpha  occ. eigenvalues --   -0.47279  -0.46474  -0.46427  -0.44774  -0.44416
 Alpha  occ. eigenvalues --   -0.37325  -0.36345
 Alpha virt. eigenvalues --    0.05073   0.11292   0.16533   0.17926   0.22656
 Alpha virt. eigenvalues --    0.23502   0.24891   0.25970   0.26973   0.28569
 Alpha virt. eigenvalues --    0.29550   0.30976   0.31272   0.31527   0.32588

 Mulliken charges:
               1
     1  C   -0.300246
     2  C   -0.304758
     3  C   -0.481015
     4  H    0.155175
     5  H    0.146182
     6  H    0.157045
     7  H    0.144559
     8  H    0.154854
     9  H    0.160957
    10  H    0.168560
    11  C   -0.298664
    12  C   -0.300047
    13  C   -0.475659
    14  H    0.153425
    15  H    0.142280
    16  H    0.155209
    17  H    0.150882
    18  H    0.152745
    19  H    0.157118
    20  H    0.162372
    21  C   -0.170838
    22  C   -0.226985
    23  C   -0.180568
    24  C    0.158117
    25  C   -0.169993
    26  C   -0.218913
    27  H    0.225642
    28  H    0.228225
    29  H    0.289296
    30  H    0.275605
    31  H    0.223382
    32  N    0.486927
    33  O   -0.460528
    34  O   -0.460346
 Sum of Mulliken charges =  -0.00000

 Dipole moment (field-independent basis, Debye):
    X=              3.0509    Y=             -4.0983    Z=              0.7649  Tot=              5.1661
 Quadrupole moment (field-independent basis, Debye-Ang):
   XX=           -107.5257   YY=            -90.8976   ZZ=            -95.7960
   XY=             15.8602   XZ=             -2.4701   YZ=              0.4455

 Normal termination of Gaussian 16 at Thu May  6 13:54:49 2021.
