 Gaussian 16, Revision A.03,
 Gaussian 16:  EM64L-G16RevA.03 25-Dec-2016

 -------------
 #p 6-31g* mp2
 -------------

 ------------------------------------------------------
 Input file generated by CHIRIPA (05-May-2021 14:53:17)
 ------------------------------------------------------
 Symbolic Z-matrix:
 Charge =  0 Multiplicity = 1

                         Standard orientation:
 ---------------------------------------------------------------------
 Center     Atomic      Atomic             Coordinates (Angstroms)
 Number     Number       Type             X           Y           Z
 ---------------------------------------------------------------------
      1          6           0       -3.252685    0.955530   -0.449599
      2          6           0       -3.608057    2.135713    0.455312
      3          6           0       -3.444018    3.486170   -0.242650
      4          1           0       -2.216352    1.066956   -0.796792
      5          1           0       -3.887560    0.985574   -1.345939
      6          1           0       -2.973655    2.102664    1.350329
      7          1           0       -4.643603    2.021365    0.800545
      8          1           0       -4.088954    3.544434   -1.125409
      9          1           0       -2.409517    3.626195   -0.572501
     10          1           0       -3.703335    4.315887    0.422321
     11          6           0       -3.411674   -0.401370    0.233975
     12          6           0       -3.056302   -1.581553   -0.670935
     13          6           0       -3.220341   -2.932010    0.027026
     14          1           0       -2.776799   -0.431414    1.130316
     15          1           0       -4.448007   -0.512796    0.581169
     16          1           0       -2.020756   -1.467205   -1.016168
     17          1           0       -3.690704   -1.548504   -1.565953
     18          1           0       -4.254842   -3.072035    0.356878
     19          1           0       -2.575405   -2.990274    0.909786
     20          1           0       -2.961024   -3.761726   -0.637944
     21          6           0        0.578617   -1.652297    0.537130
     22          6           0        1.164611   -0.920992    1.575555
     23          6           0        2.286680   -0.122122    1.336143
     24          6           0        2.799001   -0.077659    0.040443
     25          6           0        2.237642   -0.794620   -1.015082
     26          6           0        1.116055   -1.586892   -0.752600
     27          1           0       -0.292846   -2.270315    0.732071
     28          1           0        0.749370   -0.969872    2.578167
     29          1           0        2.760174    0.454312    2.121602
     30          1           0        2.674127   -0.725722   -2.004096
     31          1           0        0.663044   -2.153755   -1.560988
     32          7           0        3.986629    0.764577   -0.225222
     33          8           0        4.418944    0.786718   -1.375549
     34          8           0        4.462689    1.386632    0.721905
 ---------------------------------------------------------------------

 SCF Done:  E(RHF) =  -669.535003768     A.U. after   15 cycles
 E2 =    -0.2093080917D+01 EUMP2 =    -0.67162808468407D+03

 The electronic state is 1-A.
 Alpha  occ. eigenvalues --  -20.60794 -20.60789 -15.85849 -11.31227 -11.27805
 Alpha  occ. eigenvalues --  -11.27800 -11.27497 -11.26810 -11.26799 -11.22611
 Alpha  occ. eigenvalues --  -11.22325 -11.22208 -11.22047 -11.21924 -11.21372
 Alpha  occ. eigenvalues --   -1.59870  -1.39423  -1.19405  -1.09182  -1.08784
 Alpha  occ. eigenvalues --   -1.04810  -1.04290  -0.96737  -0.95624  -0.87745
 Alpha  occ. eigenvalues --   -0.86207  -0.82459  -0.80369  -0.78921  -0.77504
 Alpha  occ. eigenvalues --   -0.72066  -0.71194  -0.70579  -0.65829  -0.65052
 Alpha  occ. eigenvalues --   -0.64791  -0.62168  -0.61688  -0.60135  -0.58317
 Alpha  occ. eigenvalues --   -0.56181  -0.55103  -0.53430  -0.53156  -0.53122
 Alpha  occ. eigenvalues --   -0.52896  -0.50687  -0.48826  -0.48821  -0.48660
 Alpha  occ. eigenvalues --   -0.47425  -0.46468  -0.46361  -0.44826  -0.44504
 Alpha  occ. eigenvalues --   -0.37346  -0.36411
 Alpha virt. eigenvalues --    0.05009   0.11096   0.16424   0.19357   0.22863
 Alpha virt. eigenvalues --    0.24013   0.25238   0.25931   0.26816   0.27916
 Alpha virt. eigenvalues --    0.29350   0.29835   0.30916   0.31432   0.32002

 Mulliken charges:
               1
     1  C   -0.299810
     2  C   -0.299922
     3  C   -0.476435
     4  H    0.153287
     5  H    0.150781
     6  H    0.151457
     7  H    0.152174
     8  H    0.155756
     9  H    0.157622
    10  H    0.161813
    11  C   -0.296421
    12  C   -0.307613
    13  C   -0.480299
    14  H    0.144470
    15  H    0.152355
    16  H    0.149746
    17  H    0.157537
    18  H    0.163430
    19  H    0.145931
    20  H    0.161787
    21  C   -0.173691
    22  C   -0.222482
    23  C   -0.170546
    24  C    0.158053
    25  C   -0.171138
    26  C   -0.222736
    27  H    0.237356
    28  H    0.223728
    29  H    0.275783
    30  H    0.275889
    31  H    0.224718
    32  N    0.488033
    33  O   -0.460279
    34  O   -0.460333
 Sum of Mulliken charges =  -0.00000

 Dipole moment (field-independent basis, Debye):
    X=             -4.3062    Y=             -2.8836    Z=              0.8879  Tot=              5.2580
 Quadrupole moment (field-independent basis, Debye-Ang):
   XX=           -117.4408   YY=            -95.6025   ZZ=            -90.1497
   XY=             -8.0538   XZ=              3.0472   YZ=              1.7846

 Normal termination of Gaussian 16 at Thu May  6 18:59:18 2021.
