 Gaussian 16, Revision A.03,
 Gaussian 16:  EM64L-G16RevA.03 25-Dec-2016

 -------------
 #p 6-31g* mp2
 -------------

 ------------------------------------------------------
 Input file generated by CHIRIPA (05-May-2021 14:51:14)
 ------------------------------------------------------
 Symbolic Z-matrix:
 Charge =  0 Multiplicity = 1

                         Standard orientation:
 ---------------------------------------------------------------------
 Center     Atomic      Atomic             Coordinates (Angstroms)
 Number     Number       Type             X           Y           Z
 ---------------------------------------------------------------------
      1          6           0       -2.982380   -0.273493    1.125176
      2          6           0       -1.609881    0.379995    1.290049
      3          6           0       -1.103230    0.335295    2.731958
      4          1           0       -3.702767    0.230127    1.784232
      5          1           0       -2.926582   -1.317602    1.462991
      6          1           0       -1.667906    1.422161    0.950729
      7          1           0       -0.892720   -0.125115    0.630382
      8          1           0       -1.016902   -0.699778    3.078037
      9          1           0       -1.796493    0.856289    3.400204
     10          1           0       -0.120643    0.807882    2.827062
     11          6           0       -3.502321   -0.236680   -0.310803
     12          6           0       -4.874820   -0.890168   -0.475676
     13          6           0       -5.381471   -0.845468   -1.917585
     14          1           0       -3.558119    0.807429   -0.648618
     15          1           0       -2.781934   -0.740300   -0.969859
     16          1           0       -5.591981   -0.385058    0.183991
     17          1           0       -4.816795   -1.932334   -0.136356
     18          1           0       -4.688207   -1.366462   -2.585831
     19          1           0       -5.467799    0.189606   -2.263664
     20          1           0       -6.364058   -1.318055   -2.012689
     21          6           0        2.681068    0.697675   -0.137912
     22          6           0        2.229583    1.773125   -1.126625
     23          6           0        1.106174    2.650507   -0.573498
     24          1           0        1.820386    0.069079    0.128618
     25          1           0        3.015120    1.180410    0.790942
     26          1           0        1.897781    1.288582   -2.053847
     27          1           0        3.091481    2.399116   -1.390980
     28          1           0        1.429642    3.160234    0.339819
     29          1           0        0.229159    2.043391   -0.326815
     30          1           0        0.798838    3.412457   -1.296573
     31          6           0        3.803633   -0.187503   -0.676461
     32          6           0        4.255118   -1.262953    0.312252
     33          6           0        5.378527   -2.140335   -0.240875
     34          1           0        3.469581   -0.670237   -1.605316
     35          1           0        4.664315    0.441093   -0.942991
     36          1           0        3.393220   -1.888943    0.576607
     37          1           0        4.586920   -0.778409    1.239474
     38          1           0        6.255542   -1.533217   -0.487558
     39          1           0        5.055059   -2.650061   -1.154192
     40          1           0        5.685863   -2.902285    0.482199
 ---------------------------------------------------------------------

 SCF Done:  E(RHF) =  -470.732771291     A.U. after   11 cycles
 E2 =    -0.1583572825D+01 EUMP2 =    -0.47231634411604D+03

 The electronic state is 1-A.
 Alpha  occ. eigenvalues --  -11.21642 -11.21628 -11.21597 -11.21546 -11.21439
 Alpha  occ. eigenvalues --  -11.21389 -11.21380 -11.21328 -11.21092 -11.21078
 Alpha  occ. eigenvalues --  -11.21069 -11.20909  -1.08477  -1.08399  -1.03585
 Alpha  occ. eigenvalues --   -1.03471  -0.96010  -0.95933  -0.87032  -0.86948
 Alpha  occ. eigenvalues --   -0.79737  -0.79483  -0.78353  -0.78153  -0.65117
 Alpha  occ. eigenvalues --   -0.65026  -0.60966  -0.60912  -0.59451  -0.59242
 Alpha  occ. eigenvalues --   -0.57692  -0.57476  -0.55314  -0.55209  -0.52700
 Alpha  occ. eigenvalues --   -0.52629  -0.52451  -0.52349  -0.49999  -0.49870
 Alpha  occ. eigenvalues --   -0.48149  -0.47717  -0.46668  -0.46608  -0.45981
 Alpha  occ. eigenvalues --   -0.45751  -0.45694  -0.45404  -0.43807  -0.43751
 Alpha virt. eigenvalues --    0.21080   0.23125   0.23555   0.24962   0.25745
 Alpha virt. eigenvalues --    0.26200   0.26958   0.27683   0.28038   0.29175
 Alpha virt. eigenvalues --    0.30854   0.30936   0.31515   0.31811   0.32175

 Mulliken charges:
               1
     1  C   -0.297007
     2  C   -0.306873
     3  C   -0.476415
     4  H    0.149931
     5  H    0.149451
     6  H    0.155977
     7  H    0.153645
     8  H    0.155015
     9  H    0.155253
    10  H    0.162361
    11  C   -0.298655
    12  C   -0.299608
    13  C   -0.475733
    14  H    0.149755
    15  H    0.149143
    16  H    0.152114
    17  H    0.151962
    18  H    0.155108
    19  H    0.155325
    20  H    0.160361
    21  C   -0.302253
    22  C   -0.298832
    23  C   -0.485162
    24  H    0.153062
    25  H    0.149211
    26  H    0.151322
    27  H    0.151535
    28  H    0.153775
    29  H    0.167185
    30  H    0.159149
    31  C   -0.298144
    32  C   -0.299566
    33  C   -0.475687
    34  H    0.149307
    35  H    0.149807
    36  H    0.151650
    37  H    0.152000
    38  H    0.155231
    39  H    0.155083
    40  H    0.160218
 Sum of Mulliken charges =  -0.00000

 Dipole moment (field-independent basis, Debye):
    X=             -0.0468    Y=             -0.0091    Z=              0.0252  Tot=              0.0539
 Quadrupole moment (field-independent basis, Debye-Ang):
   XX=            -85.0315   YY=            -84.1735   ZZ=            -85.6572
   XY=              0.5079   XZ=             -0.0885   YZ=              0.2497

 Normal termination of Gaussian 16 at Wed May  5 23:15:13 2021.
