 Gaussian 16, Revision A.03,
 Gaussian 16:  EM64L-G16RevA.03 25-Dec-2016

 -------------
 #p 6-31g* mp2
 -------------

 ------------------------------------------------------
 Input file generated by CHIRIPA (05-May-2021 14:51:11)
 ------------------------------------------------------
 Symbolic Z-matrix:
 Charge =  0 Multiplicity = 1

                         Standard orientation:
 ---------------------------------------------------------------------
 Center     Atomic      Atomic             Coordinates (Angstroms)
 Number     Number       Type             X           Y           Z
 ---------------------------------------------------------------------
      1          6           0        3.827649    0.292630    0.308396
      2          6           0        5.155212    0.645269   -0.363325
      3          6           0        5.886582    1.790468    0.337683
      4          1           0        3.185042    1.183518    0.326289
      5          1           0        4.015645    0.021733    1.356569
      6          1           0        4.964932    0.914084   -1.410296
      7          1           0        5.794660   -0.246612   -0.379793
      8          1           0        6.105256    1.528393    1.377923
      9          1           0        5.270814    2.695684    0.341565
     10          1           0        6.832991    2.026072   -0.158966
     11          6           0        3.084740   -0.850452   -0.380935
     12          6           0        1.757177   -1.203090    0.290786
     13          6           0        1.025807   -2.348289   -0.410222
     14          1           0        2.896744   -0.579554   -1.429108
     15          1           0        3.727347   -1.741339   -0.398829
     16          1           0        1.117729   -0.311209    0.307254
     17          1           0        1.947457   -1.471906    1.337756
     18          1           0        1.641575   -3.253505   -0.414104
     19          1           0        0.807133   -2.086214   -1.450462
     20          1           0        0.079398   -2.583893    0.086427
     21          6           0       -3.583404    0.912071   -0.371601
     22          6           0       -3.549311    2.190411    0.466653
     23          6           0       -3.805527    3.448638   -0.363414
     24          1           0       -2.832984    0.985031   -1.170657
     25          1           0       -4.560936    0.832803   -0.867124
     26          1           0       -2.572633    2.266536    0.961547
     27          1           0       -4.299768    2.114318    1.263925
     28          1           0       -4.787346    3.398971   -0.845248
     29          1           0       -3.050398    3.552053   -1.149344
     30          1           0       -3.776656    4.350757    0.255621
     31          6           0       -3.328985   -0.354249    0.444140
     32          6           0       -3.363078   -1.632590   -0.394114
     33          6           0       -3.106862   -2.890816    0.435954
     34          1           0       -2.351453   -0.274982    0.939664
     35          1           0       -4.079405   -0.427210    1.243196
     36          1           0       -2.612620   -1.556497   -1.191384
     37          1           0       -4.339756   -1.708714   -0.889007
     38          1           0       -3.861991   -2.994232    1.221884
     39          1           0       -2.125043   -2.841149    0.917788
     40          1           0       -3.135732   -3.792937   -0.183081
 ---------------------------------------------------------------------

 SCF Done:  E(RHF) =  -470.733274310     A.U. after   11 cycles
 E2 =    -0.1582741395D+01 EUMP2 =    -0.47231601570483D+03

 The electronic state is 1-A.
 Alpha  occ. eigenvalues --  -11.21655 -11.21625 -11.21610 -11.21587 -11.21439
 Alpha  occ. eigenvalues --  -11.21407 -11.21379 -11.21348 -11.21089 -11.21087
 Alpha  occ. eigenvalues --  -11.21082 -11.21070  -1.08467  -1.08430  -1.03579
 Alpha  occ. eigenvalues --   -1.03518  -0.96039  -0.95959  -0.87057  -0.86973
 Alpha  occ. eigenvalues --   -0.79632  -0.79588  -0.78278  -0.78242  -0.65122
 Alpha  occ. eigenvalues --   -0.65047  -0.61036  -0.60924  -0.59376  -0.59333
 Alpha  occ. eigenvalues --   -0.57667  -0.57556  -0.55311  -0.55277  -0.52730
 Alpha  occ. eigenvalues --   -0.52669  -0.52475  -0.52333  -0.49953  -0.49914
 Alpha  occ. eigenvalues --   -0.47984  -0.47860  -0.46685  -0.46597  -0.45824
 Alpha  occ. eigenvalues --   -0.45781  -0.45760  -0.45685  -0.43799  -0.43781
 Alpha virt. eigenvalues --    0.20436   0.23143   0.23589   0.25199   0.26173
 Alpha virt. eigenvalues --    0.26630   0.26911   0.27319   0.28045   0.28857
 Alpha virt. eigenvalues --    0.30515   0.31247   0.31721   0.31768   0.32068

 Mulliken charges:
               1
     1  C   -0.298267
     2  C   -0.299679
     3  C   -0.475728
     4  H    0.149498
     5  H    0.149628
     6  H    0.151944
     7  H    0.152033
     8  H    0.155238
     9  H    0.155186
    10  H    0.160347
    11  C   -0.298406
    12  C   -0.299618
    13  C   -0.483213
    14  H    0.149518
    15  H    0.149933
    16  H    0.151242
    17  H    0.152045
    18  H    0.155582
    19  H    0.154978
    20  H    0.167782
    21  C   -0.298249
    22  C   -0.299653
    23  C   -0.475682
    24  H    0.149439
    25  H    0.149584
    26  H    0.151802
    27  H    0.152046
    28  H    0.155252
    29  H    0.154986
    30  H    0.160288
    31  C   -0.299024
    32  C   -0.300653
    33  C   -0.479151
    34  H    0.149978
    35  H    0.149670
    36  H    0.153543
    37  H    0.151991
    38  H    0.155396
    39  H    0.157639
    40  H    0.160751
 Sum of Mulliken charges =  -0.00000

 Dipole moment (field-independent basis, Debye):
    X=              0.0004    Y=             -0.0142    Z=             -0.0010  Tot=              0.0143
 Quadrupole moment (field-independent basis, Debye-Ang):
   XX=            -83.9296   YY=            -85.9516   ZZ=            -84.7782
   XY=             -0.5966   XZ=             -0.2063   YZ=             -0.2861

 Normal termination of Gaussian 16 at Thu May  6 02:17:19 2021.
