 Gaussian 16, Revision A.03,
 Gaussian 16:  EM64L-G16RevA.03 25-Dec-2016

 -------------
 #p 6-31g* mp2
 -------------

 ------------------------------------------------------
 Input file generated by CHIRIPA (05-May-2021 14:57:25)
 ------------------------------------------------------
 Symbolic Z-matrix:
 Charge =  0 Multiplicity = 1

                         Standard orientation:
 ---------------------------------------------------------------------
 Center     Atomic      Atomic             Coordinates (Angstroms)
 Number     Number       Type             X           Y           Z
 ---------------------------------------------------------------------
      1          6           0       -1.098942   -1.567302    0.961093
      2          6           0       -2.123015   -2.252979    0.299547
      3          6           0       -3.237042   -1.564882   -0.190367
      4          6           0       -3.294695   -0.185075   -0.000368
      5          6           0       -2.290579    0.526347    0.654551
      6          6           0       -1.185840   -0.182269    1.136175
      7          1           0       -0.237147   -2.109802    1.338449
      8          1           0       -2.058205   -3.328601    0.162137
      9          1           0       -4.044133   -2.070769   -0.706215
     10          1           0       -2.383374    1.598713    0.776364
     11          1           0       -0.392029    0.352851    1.649552
     12          7           0       -4.469150    0.554244   -0.514630
     13          8           0       -4.496144    1.769744   -0.334437
     14          8           0       -5.340454   -0.095776   -1.088162
     15          6           0        2.181993    2.598847    0.433489
     16          6           0        2.101232    1.580063    1.388517
     17          6           0        2.607185    0.306348    1.112456
     18          6           0        3.189990    0.085349   -0.134455
     19          6           0        3.285372    1.079767   -1.106733
     20          6           0        2.772764    2.345893   -0.808897
     21          1           0        1.786371    3.585352    0.656398
     22          1           0        1.642968    1.773641    2.354212
     23          1           0        2.557825   -0.500555    1.833489
     24          1           0        3.747840    0.856564   -2.060527
     25          1           0        2.836864    3.135186   -1.552505
     26          7           0        3.729143   -1.259059   -0.438235
     27          8           0        4.237827   -1.428233   -1.544244
     28          8           0        3.632838   -2.118175    0.435425
 ---------------------------------------------------------------------

 SCF Done:  E(RHF) =  -868.336764075     A.U. after   16 cycles
 E2 =    -0.2601712783D+01 EUMP2 =    -0.87093847685775D+03

 The electronic state is 1-A.
 Alpha  occ. eigenvalues --  -20.61646 -20.61605 -20.60905 -20.60889 -15.86683
 Alpha  occ. eigenvalues --  -15.85951 -11.32112 -11.31277 -11.28789 -11.28621
 Alpha  occ. eigenvalues --  -11.28404 -11.27873 -11.27798 -11.27786 -11.27609
 Alpha  occ. eigenvalues --  -11.27514 -11.26814 -11.26783  -1.60699  -1.59975
 Alpha  occ. eigenvalues --   -1.40253  -1.39531  -1.20297  -1.19434  -1.09663
 Alpha  occ. eigenvalues --   -1.08830  -1.05739  -1.04833  -0.96489  -0.95674
 Alpha  occ. eigenvalues --   -0.87112  -0.86243  -0.83341  -0.82512  -0.78395
 Alpha  occ. eigenvalues --   -0.77575  -0.72898  -0.72171  -0.72023  -0.71377
 Alpha  occ. eigenvalues --   -0.71298  -0.70522  -0.65959  -0.65758  -0.65084
 Alpha  occ. eigenvalues --   -0.64873  -0.63078  -0.62189  -0.56166  -0.55320
 Alpha  occ. eigenvalues --   -0.54117  -0.53818  -0.53141  -0.52812  -0.49664
 Alpha  occ. eigenvalues --   -0.49647  -0.48931  -0.48921  -0.45646  -0.44946
 Alpha  occ. eigenvalues --   -0.38244  -0.37582  -0.37160  -0.36365
 Alpha virt. eigenvalues --    0.04140   0.04958   0.10199   0.11211   0.15495
 Alpha virt. eigenvalues --    0.16480   0.19423   0.22132   0.25550   0.26305
 Alpha virt. eigenvalues --    0.28011   0.28936   0.29908   0.31290   0.32781

 Mulliken charges:
               1
     1  C   -0.175581
     2  C   -0.218013
     3  C   -0.171307
     4  C    0.158799
     5  C   -0.174483
     6  C   -0.214570
     7  H    0.230779
     8  H    0.226772
     9  H    0.276146
    10  H    0.270979
    11  H    0.218450
    12  N    0.488189
    13  O   -0.462712
    14  O   -0.459382
    15  C   -0.169992
    16  C   -0.227415
    17  C   -0.173172
    18  C    0.161082
    19  C   -0.168465
    20  C   -0.217056
    21  H    0.230063
    22  H    0.222155
    23  H    0.272187
    24  H    0.279240
    25  H    0.228710
    26  N    0.488231
    27  O   -0.455594
    28  O   -0.464039
 Sum of Mulliken charges =  -0.00000

 Dipole moment (field-independent basis, Debye):
    X=              2.4875    Y=              2.1549    Z=              2.6268  Tot=              4.2109
 Quadrupole moment (field-independent basis, Debye-Ang):
   XX=           -144.0088   YY=            -98.9778   ZZ=           -101.3229
   XY=             25.9205   XZ=             -3.4445   YZ=             -0.9891

 Normal termination of Gaussian 16 at Thu May  6 16:24:26 2021.
