 Gaussian 16, Revision A.03,
 Gaussian 16:  EM64L-G16RevA.03 25-Dec-2016

 -------------
 #p 6-31g* mp2
 -------------

 ------------------------------------------------------
 Input file generated by CHIRIPA (05-May-2021 14:57:23)
 ------------------------------------------------------
 Symbolic Z-matrix:
 Charge =  0 Multiplicity = 1

                         Standard orientation:
 ---------------------------------------------------------------------
 Center     Atomic      Atomic             Coordinates (Angstroms)
 Number     Number       Type             X           Y           Z
 ---------------------------------------------------------------------
      1          6           0       -1.989690    2.138065    0.498792
      2          6           0       -2.136561    1.790825   -0.848195
      3          6           0       -2.925684    0.697494   -1.217599
      4          6           0       -3.556460   -0.029863   -0.209451
      5          6           0       -3.429614    0.291095    1.141174
      6          6           0       -2.635546    1.388414    1.487435
      7          1           0       -1.374759    2.988940    0.776766
      8          1           0       -1.636156    2.371207   -1.618127
      9          1           0       -3.056581    0.406607   -2.252814
     10          1           0       -3.940827   -0.306501    1.886129
     11          1           0       -2.523286    1.655772    2.534317
     12          7           0       -4.394486   -1.189434   -0.588272
     13          8           0       -4.939745   -1.814160    0.318948
     14          8           0       -4.490205   -1.451624   -1.785240
     15          6           0        5.545150   -0.255697   -1.207122
     16          6           0        5.368055   -1.118866   -0.120800
     17          6           0        4.193715   -1.075346    0.636550
     18          6           0        3.212731   -0.152117    0.277929
     19          6           0        3.359603    0.721025   -0.798798
     20          6           0        4.542128    0.659879   -1.542064
     21          1           0        6.460585   -0.296350   -1.789981
     22          1           0        6.145318   -1.830934    0.141624
     23          1           0        4.030519   -1.731983    1.482489
     24          1           0        2.566901    1.420112   -1.036118
     25          1           0        4.676926    1.331444   -2.385198
     26          7           0        1.965178   -0.096715    1.072247
     27          8           0        1.116030    0.725715    0.735805
     28          8           0        1.860115   -0.876771    2.016234
 ---------------------------------------------------------------------

 SCF Done:  E(RHF) =  -868.338233082     A.U. after   16 cycles
 E2 =    -0.2599584863D+01 EUMP2 =    -0.87093781794485D+03

 The electronic state is 1-A.
 Alpha  occ. eigenvalues --  -20.61326 -20.61295 -20.59856 -20.59844 -15.86356
 Alpha  occ. eigenvalues --  -15.84901 -11.31635 -11.29997 -11.28231 -11.28164
 Alpha  occ. eigenvalues --  -11.27901 -11.27199 -11.27157 -11.26630 -11.26549
 Alpha  occ. eigenvalues --  -11.26240 -11.25566 -11.25443  -1.60382  -1.58935
 Alpha  occ. eigenvalues --   -1.39942  -1.38497  -1.19796  -1.18151  -1.09203
 Alpha  occ. eigenvalues --   -1.07578  -1.05189  -1.03547  -0.96058  -0.94468
 Alpha  occ. eigenvalues --   -0.86590  -0.84961  -0.82898  -0.81334  -0.77960
 Alpha  occ. eigenvalues --   -0.76426  -0.72599  -0.71694  -0.71133  -0.70904
 Alpha  occ. eigenvalues --   -0.70253  -0.69270  -0.65453  -0.65190  -0.63826
 Alpha  occ. eigenvalues --   -0.63587  -0.62544  -0.60941  -0.55683  -0.54036
 Alpha  occ. eigenvalues --   -0.53516  -0.53282  -0.51838  -0.51676  -0.49344
 Alpha  occ. eigenvalues --   -0.49310  -0.47896  -0.47864  -0.45364  -0.43965
 Alpha  occ. eigenvalues --   -0.37762  -0.36787  -0.35987  -0.35129
 Alpha virt. eigenvalues --    0.04577   0.06146   0.10870   0.12537   0.16095
 Alpha virt. eigenvalues --    0.17724   0.20990   0.22502   0.26883   0.27787
 Alpha virt. eigenvalues --    0.28420   0.29410   0.30619   0.31928   0.32187

 Mulliken charges:
               1
     1  C   -0.148860
     2  C   -0.216949
     3  C   -0.172360
     4  C    0.157133
     5  C   -0.170054
     6  C   -0.212494
     7  H    0.223623
     8  H    0.214533
     9  H    0.269758
    10  H    0.272679
    11  H    0.222113
    12  N    0.488345
    13  O   -0.462755
    14  O   -0.465313
    15  C   -0.170301
    16  C   -0.218242
    17  C   -0.170245
    18  C    0.158624
    19  C   -0.170330
    20  C   -0.218097
    21  H    0.227145
    22  H    0.225255
    23  H    0.276927
    24  H    0.270539
    25  H    0.223562
    26  N    0.491620
    27  O   -0.468032
    28  O   -0.457824
 Sum of Mulliken charges =  -0.00000

 Dipole moment (field-independent basis, Debye):
    X=              7.7342    Y=              3.9205    Z=             -1.2584  Tot=              8.7619
 Quadrupole moment (field-independent basis, Debye-Ang):
   XX=            -98.6637   YY=           -103.2914   ZZ=           -101.1989
   XY=            -17.7261   XZ=            -13.8791   YZ=             -3.8419

 Normal termination of Gaussian 16 at Thu May  6 00:14:32 2021.
