 Gaussian 16, Revision A.03,
 Gaussian 16:  EM64L-G16RevA.03 25-Dec-2016

 -------------
 #p 6-31g* mp2
 -------------

 ------------------------------------------------------
 Input file generated by CHIRIPA (05-May-2021 14:55:20)
 ------------------------------------------------------
 Symbolic Z-matrix:
 Charge =  0 Multiplicity = 1

                         Standard orientation:
 ---------------------------------------------------------------------
 Center     Atomic      Atomic             Coordinates (Angstroms)
 Number     Number       Type             X           Y           Z
 ---------------------------------------------------------------------
      1          6           0        4.317410    2.405539    0.213123
      2          6           0        4.937088    1.424684   -0.568186
      3          6           0        4.367036    0.154649   -0.697022
      4          6           0        3.171290   -0.101387   -0.027748
      5          6           0        2.529757    0.854817    0.758000
      6          6           0        3.117837    2.117982    0.872560
      7          1           0        4.767243    3.389464    0.307661
      8          1           0        5.868746    1.645187   -1.081447
      9          1           0        4.825476   -0.623267   -1.295434
     10          1           0        1.601602    0.605319    1.257696
     11          1           0        2.634355    2.877780    1.480011
     12          7           0        2.558258   -1.442280   -0.156584
     13          8           0        1.504326   -1.642782    0.443135
     14          8           0        3.143304   -2.267379   -0.854845
     15          6           0       -3.694704   -0.523699    0.457982
     16          6           0       -3.128695   -1.792918   -0.179748
     17          6           0       -2.142195   -2.523254    0.731966
     18          1           0       -2.866164    0.149292    0.717885
     19          1           0       -4.191908   -0.786394    1.402002
     20          1           0       -2.633908   -1.528097   -1.122972
     21          1           0       -3.958691   -2.462884   -0.438338
     22          1           0       -2.627429   -2.815728    1.668773
     23          1           0       -1.295119   -1.875629    0.980249
     24          1           0       -1.749893   -3.427555    0.256361
     25          6           0       -4.682447    0.217501   -0.441304
     26          6           0       -5.248457    1.486721    0.196425
     27          6           0       -6.234957    2.217057   -0.715289
     28          1           0       -4.185243    0.480196   -1.385325
     29          1           0       -5.510987   -0.455490   -0.701208
     30          1           0       -4.418460    2.156686    0.455015
     31          1           0       -5.743243    1.221899    1.139648
     32          1           0       -7.082032    1.569431   -0.963573
     33          1           0       -5.749722    2.509530   -1.652096
     34          1           0       -6.627258    3.121357   -0.239684
 ---------------------------------------------------------------------

 SCF Done:  E(RHF) =  -669.535779564     A.U. after   15 cycles
 E2 =    -0.2090771820D+01 EUMP2 =    -0.67162655138439D+03

 The electronic state is 1-A.
 Alpha  occ. eigenvalues --  -20.60889 -20.60883 -15.85935 -11.31279 -11.27850
 Alpha  occ. eigenvalues --  -11.27841 -11.27585 -11.26859 -11.26849 -11.21355
 Alpha  occ. eigenvalues --  -11.20983 -11.20887 -11.20824 -11.20708 -11.19722
 Alpha  occ. eigenvalues --   -1.59956  -1.39512  -1.19450  -1.08849  -1.07909
 Alpha  occ. eigenvalues --   -1.04851  -1.02904  -0.95691  -0.95325  -0.86343
 Alpha  occ. eigenvalues --   -0.86249  -0.82523  -0.79004  -0.77701  -0.77563
 Alpha  occ. eigenvalues --   -0.72161  -0.71275  -0.70560  -0.65108  -0.64854
 Alpha  occ. eigenvalues --   -0.64546  -0.62200  -0.60295  -0.58764  -0.56934
 Alpha  occ. eigenvalues --   -0.55353  -0.54605  -0.53181  -0.52944  -0.51990
 Alpha  occ. eigenvalues --   -0.51758  -0.49307  -0.48912  -0.48870  -0.47297
 Alpha  occ. eigenvalues --   -0.46055  -0.45229  -0.45154  -0.44889  -0.43166
 Alpha  occ. eigenvalues --   -0.37430  -0.36454
 Alpha virt. eigenvalues --    0.04957   0.11200   0.16445   0.21229   0.23308
 Alpha virt. eigenvalues --    0.24869   0.26786   0.27339   0.27764   0.28158
 Alpha virt. eigenvalues --    0.28950   0.30703   0.31775   0.32221   0.32598

 Mulliken charges:
               1
     1  C   -0.170712
     2  C   -0.218515
     3  C   -0.170836
     4  C    0.157797
     5  C   -0.170629
     6  C   -0.218501
     7  H    0.225951
     8  H    0.223782
     9  H    0.275873
    10  H    0.274996
    11  H    0.223798
    12  N    0.494164
    13  O   -0.465556
    14  O   -0.459385
    15  C   -0.296642
    16  C   -0.299919
    17  C   -0.478554
    18  H    0.145393
    19  H    0.147953
    20  H    0.152070
    21  H    0.148231
    22  H    0.146856
    23  H    0.172103
    24  H    0.164920
    25  C   -0.297702
    26  C   -0.298709
    27  C   -0.475313
    28  H    0.148653
    29  H    0.149529
    30  H    0.148948
    31  H    0.151493
    32  H    0.155473
    33  H    0.154455
    34  H    0.158538
 Sum of Mulliken charges =  -0.00000

 Dipole moment (field-independent basis, Debye):
    X=              2.4100    Y=              4.6629    Z=              0.4398  Tot=              5.2673
 Quadrupole moment (field-independent basis, Debye-Ang):
   XX=            -79.2504   YY=            -96.0014   ZZ=            -93.8413
   XY=             14.7471   XZ=             -1.8968   YZ=              1.0408

 Normal termination of Gaussian 16 at Wed May  5 22:11:48 2021.
