 Gaussian 16, Revision A.03,
 Gaussian 16:  EM64L-G16RevA.03 25-Dec-2016

 -------------
 #p 6-31g* mp2
 -------------

 ------------------------------------------------------
 Input file generated by CHIRIPA (05-May-2021 14:51:11)
 ------------------------------------------------------
 Symbolic Z-matrix:
 Charge =  0 Multiplicity = 1

                         Standard orientation:
 ---------------------------------------------------------------------
 Center     Atomic      Atomic             Coordinates (Angstroms)
 Number     Number       Type             X           Y           Z
 ---------------------------------------------------------------------
      1          6           0       -3.158187    0.490877    0.156684
      2          6           0       -2.406623    0.831862    1.443877
      3          6           0       -1.289604    1.852410    1.223550
      4          1           0       -2.446007    0.102857   -0.584386
      5          1           0       -3.580466    1.412090   -0.268103
      6          1           0       -1.987059   -0.089919    1.866845
      7          1           0       -3.120705    1.218935    2.182034
      8          1           0       -1.695340    2.787330    0.823672
      9          1           0       -0.555252    1.471039    0.506692
     10          1           0       -0.765491    2.081668    2.156613
     11          6           0       -4.277908   -0.528096    0.360756
     12          6           0       -5.029472   -0.869081   -0.926437
     13          6           0       -6.146491   -1.889629   -0.706110
     14          1           0       -3.855629   -1.449309    0.785542
     15          1           0       -4.990088   -0.140076    1.101826
     16          1           0       -4.315389   -1.256155   -1.664594
     17          1           0       -5.449036    0.052700   -1.349405
     18          1           0       -6.880842   -1.508258    0.010748
     19          1           0       -5.740755   -2.824549   -0.306232
     20          1           0       -6.670603   -2.118887   -1.639173
     21          6           0        3.860376   -0.608365    0.153684
     22          6           0        5.181974   -1.286093   -0.209700
     23          6           0        5.452649   -2.538945    0.623902
     24          1           0        3.871583   -0.345464    1.220315
     25          1           0        3.038969   -1.325322    0.017090
     26          1           0        6.000497   -0.567647   -0.073784
     27          1           0        5.167695   -1.547239   -1.275633
     28          1           0        4.656180   -3.276353    0.480839
     29          1           0        5.493714   -2.291195    1.689517
     30          1           0        6.402401   -3.007489    0.347683
     31          6           0        3.575719    0.645584   -0.671124
     32          6           0        2.254121    1.323312   -0.307740
     33          6           0        1.983445    2.576164   -1.141342
     34          1           0        4.397127    1.362541   -0.534530
     35          1           0        3.564511    0.382683   -1.737756
     36          1           0        2.268400    1.584458    0.758193
     37          1           0        1.435598    0.604867   -0.443656
     38          1           0        1.942381    2.328414   -2.206956
     39          1           0        2.779914    3.313571   -0.998278
     40          1           0        1.033693    3.044707   -0.865123
 ---------------------------------------------------------------------

 SCF Done:  E(RHF) =  -470.732676594     A.U. after   11 cycles
 E2 =    -0.1583129392D+01 EUMP2 =    -0.47231580598663D+03

 The electronic state is 1-A.
 Alpha  occ. eigenvalues --  -11.21608 -11.21600 -11.21595 -11.21566 -11.21406
 Alpha  occ. eigenvalues --  -11.21398 -11.21346 -11.21338 -11.21079 -11.21071
 Alpha  occ. eigenvalues --  -11.21018 -11.20959  -1.08444  -1.08407  -1.03573
 Alpha  occ. eigenvalues --   -1.03469  -0.96033  -0.95901  -0.87001  -0.86965
 Alpha  occ. eigenvalues --   -0.79677  -0.79508  -0.78289  -0.78191  -0.65095
 Alpha  occ. eigenvalues --   -0.65024  -0.61021  -0.60855  -0.59378  -0.59320
 Alpha  occ. eigenvalues --   -0.57781  -0.57411  -0.55292  -0.55177  -0.52742
 Alpha  occ. eigenvalues --   -0.52625  -0.52481  -0.52216  -0.49957  -0.49868
 Alpha  occ. eigenvalues --   -0.47935  -0.47858  -0.46717  -0.46526  -0.45851
 Alpha  occ. eigenvalues --   -0.45743  -0.45723  -0.45569  -0.43779  -0.43763
 Alpha virt. eigenvalues --    0.21927   0.23065   0.23471   0.24861   0.26127
 Alpha virt. eigenvalues --    0.26637   0.26824   0.27632   0.27769   0.29123
 Alpha virt. eigenvalues --    0.30355   0.31024   0.31284   0.32046   0.32239

 Mulliken charges:
               1
     1  C   -0.298195
     2  C   -0.299611
     3  C   -0.484200
     4  H    0.148896
     5  H    0.149555
     6  H    0.151693
     7  H    0.151591
     8  H    0.153859
     9  H    0.167316
    10  H    0.159576
    11  C   -0.298250
    12  C   -0.299619
    13  C   -0.475697
    14  H    0.149448
    15  H    0.149735
    16  H    0.151778
    17  H    0.151958
    18  H    0.155211
    19  H    0.155146
    20  H    0.160224
    21  C   -0.298280
    22  C   -0.299647
    23  C   -0.475688
    24  H    0.149723
    25  H    0.149112
    26  H    0.152016
    27  H    0.151921
    28  H    0.155064
    29  H    0.155204
    30  H    0.160290
    31  C   -0.297424
    32  C   -0.301699
    33  C   -0.479571
    34  H    0.149622
    35  H    0.149489
    36  H    0.153968
    37  H    0.150602
    38  H    0.154650
    39  H    0.155326
    40  H    0.164906
 Sum of Mulliken charges =  -0.00000

 Dipole moment (field-independent basis, Debye):
    X=              0.0217    Y=              0.0113    Z=              0.0011  Tot=              0.0245
 Quadrupole moment (field-independent basis, Debye-Ang):
   XX=            -85.0214   YY=            -85.2698   ZZ=            -84.5845
   XY=             -0.4788   XZ=              0.1069   YZ=              1.0203

 Normal termination of Gaussian 16 at Thu May  6 02:16:25 2021.
