 Gaussian 16, Revision A.03,
 Gaussian 16:  EM64L-G16RevA.03 25-Dec-2016

 -------------
 #p 6-31g* mp2
 -------------

 ------------------------------------------------------
 Input file generated by CHIRIPA (05-May-2021 14:51:11)
 ------------------------------------------------------
 Symbolic Z-matrix:
 Charge =  0 Multiplicity = 1

                         Standard orientation:
 ---------------------------------------------------------------------
 Center     Atomic      Atomic             Coordinates (Angstroms)
 Number     Number       Type             X           Y           Z
 ---------------------------------------------------------------------
      1          6           0        2.955323    0.724877   -0.029906
      2          6           0        2.998635    2.249968   -0.130934
      3          6           0        1.618661    2.891614    0.016557
      4          1           0        2.281876    0.331484   -0.803635
      5          1           0        2.519346    0.440711    0.937859
      6          1           0        3.435676    2.531173   -1.097648
      7          1           0        3.672207    2.639763    0.643002
      8          1           0        1.178533    2.639977    0.986901
      9          1           0        0.940658    2.530770   -0.763639
     10          1           0        1.672847    3.982137   -0.058838
     11          6           0        4.327270    0.068891   -0.175412
     12          6           0        4.283958   -1.456200   -0.074384
     13          6           0        5.663933   -2.097846   -0.221875
     14          1           0        4.763247    0.353057   -1.143177
     15          1           0        5.000718    0.462284    0.598317
     16          1           0        3.610387   -1.845995   -0.848320
     17          1           0        3.846918   -1.737405    0.892329
     18          1           0        6.341935   -1.737002    0.558321
     19          1           0        6.104061   -1.846209   -1.192219
     20          1           0        5.609747   -3.188369   -0.146480
     21          6           0       -4.287232    0.003000    0.181988
     22          6           0       -5.489435   -0.644130   -0.506428
     23          6           0       -6.774248    0.167631   -0.338806
     24          1           0       -4.507695    0.126606    1.251128
     25          1           0       -4.139877    1.012749   -0.225552
     26          1           0       -5.633633   -1.652880   -0.098695
     27          1           0       -5.266010   -0.766385   -1.574018
     28          1           0       -6.654628    1.170043   -0.762437
     29          1           0       -7.024339    0.278512    0.721270
     30          1           0       -7.620953   -0.313101   -0.838653
     31          6           0       -2.995362   -0.796768    0.023331
     32          6           0       -1.793159   -0.149639    0.711746
     33          6           0       -0.508346   -0.961399    0.544124
     34          1           0       -3.142717   -1.806518    0.430870
     35          1           0       -2.774899   -0.920374   -1.045811
     36          1           0       -2.016583   -0.027384    1.779337
     37          1           0       -1.648961    0.859112    0.304013
     38          1           0       -0.258255   -1.072279   -0.515952
     39          1           0       -0.627966   -1.963811    0.967755
     40          1           0        0.338360   -0.480668    1.043970
 ---------------------------------------------------------------------

 SCF Done:  E(RHF) =  -470.732698904     A.U. after   11 cycles
 E2 =    -0.1583368102D+01 EUMP2 =    -0.47231606700620D+03

 The electronic state is 1-A.
 Alpha  occ. eigenvalues --  -11.21603 -11.21572 -11.21569 -11.21515 -11.21375
 Alpha  occ. eigenvalues --  -11.21358 -11.21313 -11.21297 -11.21094 -11.21049
 Alpha  occ. eigenvalues --  -11.21048 -11.20912  -1.08428  -1.08369  -1.03532
 Alpha  occ. eigenvalues --   -1.03458  -0.95984  -0.95907  -0.87023  -0.86906
 Alpha  occ. eigenvalues --   -0.79603  -0.79527  -0.78247  -0.78174  -0.65067
 Alpha  occ. eigenvalues --   -0.64999  -0.60933  -0.60859  -0.59454  -0.59198
 Alpha  occ. eigenvalues --   -0.57604  -0.57514  -0.55274  -0.55198  -0.52792
 Alpha  occ. eigenvalues --   -0.52628  -0.52371  -0.52269  -0.49938  -0.49843
 Alpha  occ. eigenvalues --   -0.47912  -0.47835  -0.46618  -0.46573  -0.45788
 Alpha  occ. eigenvalues --   -0.45735  -0.45670  -0.45620  -0.43780  -0.43627
 Alpha virt. eigenvalues --    0.21337   0.23095   0.23558   0.25121   0.25246
 Alpha virt. eigenvalues --    0.26366   0.26534   0.27281   0.28262   0.29591
 Alpha virt. eigenvalues --    0.30496   0.31306   0.31765   0.31806   0.32316

 Mulliken charges:
               1
     1  C   -0.301614
     2  C   -0.299580
     3  C   -0.476998
     4  H    0.153058
     5  H    0.151231
     6  H    0.151788
     7  H    0.151742
     8  H    0.155808
     9  H    0.155636
    10  H    0.160344
    11  C   -0.297888
    12  C   -0.299636
    13  C   -0.475676
    14  H    0.149247
    15  H    0.149269
    16  H    0.152312
    17  H    0.152073
    18  H    0.155032
    19  H    0.155038
    20  H    0.160282
    21  C   -0.298186
    22  C   -0.299572
    23  C   -0.475666
    24  H    0.149528
    25  H    0.149519
    26  H    0.151840
    27  H    0.151786
    28  H    0.155159
    29  H    0.155133
    30  H    0.160121
    31  C   -0.298335
    32  C   -0.300940
    33  C   -0.479290
    34  H    0.149332
    35  H    0.149178
    36  H    0.151100
    37  H    0.153390
    38  H    0.153751
    39  H    0.153669
    40  H    0.167017
 Sum of Mulliken charges =  -0.00000

 Dipole moment (field-independent basis, Debye):
    X=              0.0384    Y=              0.0124    Z=             -0.0006  Tot=              0.0404
 Quadrupole moment (field-independent basis, Debye-Ang):
   XX=            -86.7727   YY=            -85.1673   ZZ=            -82.9992
   XY=              1.1273   XZ=              0.0743   YZ=             -0.4529

 Normal termination of Gaussian 16 at Wed May  5 16:45:49 2021.
