 Gaussian 16, Revision A.03,
 Gaussian 16:  EM64L-G16RevA.03 25-Dec-2016

 -------------
 #p 6-31g* mp2
 -------------

 ------------------------------------------------------
 Input file generated by CHIRIPA (05-May-2021 14:53:12)
 ------------------------------------------------------
 Symbolic Z-matrix:
 Charge =  0 Multiplicity = 1

                         Standard orientation:
 ---------------------------------------------------------------------
 Center     Atomic      Atomic             Coordinates (Angstroms)
 Number     Number       Type             X           Y           Z
 ---------------------------------------------------------------------
      1          6           0        3.242876   -0.200192   -0.454654
      2          6           0        3.982738    0.193671    0.824198
      3          6           0        5.140364    1.158099    0.564248
      4          1           0        3.953781   -0.658852   -1.155503
      5          1           0        2.862601    0.707087   -0.944175
      6          1           0        4.360313   -0.714192    1.311884
      7          1           0        3.269951    0.651273    1.522160
      8          1           0        4.776665    2.080020    0.099075
      9          1           0        5.873222    0.706797   -0.112395
     10          1           0        5.655353    1.426470    1.491946
     11          6           0        2.082906   -1.163970   -0.211078
     12          6           0        1.343044   -1.557833   -1.489929
     13          6           0        0.185418   -2.522262   -1.229980
     14          1           0        2.463181   -2.071249    0.278444
     15          1           0        1.372001   -0.705310    0.489772
     16          1           0        2.055832   -2.015435   -2.187891
     17          1           0        0.965469   -0.649970   -1.977615
     18          1           0       -0.547440   -2.070959   -0.553336
     19          1           0        0.549118   -3.444182   -0.764807
     20          1           0       -0.329570   -2.790633   -2.157678
     21          6           0       -2.778408   -1.709344    1.182622
     22          6           0       -1.705671   -1.019366    1.756805
     23          6           0       -1.310195    0.223688    1.253849
     24          6           0       -2.012901    0.749645    0.170860
     25          6           0       -3.085773    0.086543   -0.422884
     26          6           0       -3.463826   -1.155164    0.096524
     27          1           0       -3.078856   -2.674455    1.579720
     28          1           0       -1.171534   -1.447327    2.600364
     29          1           0       -0.483316    0.779323    1.679240
     30          1           0       -3.598924    0.538676   -1.262926
     31          1           0       -4.297305   -1.688759   -0.351398
     32          7           0       -1.603451    2.064898   -0.370306
     33          8           0       -2.238833    2.506723   -1.325145
     34          8           0       -0.654896    2.629065    0.170616
 ---------------------------------------------------------------------

 SCF Done:  E(RHF) =  -669.533817705     A.U. after   15 cycles
 E2 =    -0.2095698715D+01 EUMP2 =    -0.67162951641991D+03

 The electronic state is 1-A.
 Alpha  occ. eigenvalues --  -20.60913 -20.60906 -15.85966 -11.31363 -11.27921
 Alpha  occ. eigenvalues --  -11.27900 -11.27609 -11.26917 -11.26881 -11.21506
 Alpha  occ. eigenvalues --  -11.21472 -11.21347 -11.21161 -11.20897 -11.20838
 Alpha  occ. eigenvalues --   -1.59986  -1.39539  -1.19547  -1.08917  -1.08312
 Alpha  occ. eigenvalues --   -1.04934  -1.03395  -0.95854  -0.95738  -0.86874
 Alpha  occ. eigenvalues --   -0.86312  -0.82569  -0.79481  -0.78159  -0.77612
 Alpha  occ. eigenvalues --   -0.72179  -0.71315  -0.70618  -0.65170  -0.65032
 Alpha  occ. eigenvalues --   -0.64842  -0.62267  -0.60853  -0.59231  -0.57497
 Alpha  occ. eigenvalues --   -0.55414  -0.55300  -0.53335  -0.53001  -0.52540
 Alpha  occ. eigenvalues --   -0.52155  -0.49720  -0.48941  -0.48934  -0.47749
 Alpha  occ. eigenvalues --   -0.46457  -0.45671  -0.45581  -0.44928  -0.43661
 Alpha  occ. eigenvalues --   -0.37466  -0.36460
 Alpha virt. eigenvalues --    0.04868   0.11055   0.16326   0.20810   0.22976
 Alpha virt. eigenvalues --    0.24424   0.25613   0.27121   0.27764   0.28194
 Alpha virt. eigenvalues --    0.29312   0.31009   0.31620   0.31824   0.32171

 Mulliken charges:
               1
     1  C   -0.299561
     2  C   -0.298725
     3  C   -0.476294
     4  H    0.149039
     5  H    0.158267
     6  H    0.148762
     7  H    0.149852
     8  H    0.160271
     9  H    0.154380
    10  H    0.159121
    11  C   -0.299975
    12  C   -0.298765
    13  C   -0.485596
    14  H    0.145897
    15  H    0.144828
    16  H    0.151735
    17  H    0.154340
    18  H    0.168334
    19  H    0.149125
    20  H    0.157075
    21  C   -0.172092
    22  C   -0.219681
    23  C   -0.171260
    24  C    0.160100
    25  C   -0.171310
    26  C   -0.215448
    27  H    0.227064
    28  H    0.225483
    29  H    0.276125
    30  H    0.276453
    31  H    0.224685
    32  N    0.488070
    33  O   -0.459596
    34  O   -0.460705
 Sum of Mulliken charges =  -0.00000

 Dipole moment (field-independent basis, Debye):
    X=             -1.5972    Y=             -4.4963    Z=              1.9130  Tot=              5.1408
 Quadrupole moment (field-independent basis, Debye-Ang):
   XX=            -86.7562   YY=           -102.5628   ZZ=            -92.2054
   XY=              7.9883   XZ=             -1.5070   YZ=              0.6743

 Normal termination of Gaussian 16 at Wed May  5 23:24:19 2021.
