 Gaussian 16, Revision A.03,
 Gaussian 16:  EM64L-G16RevA.03 25-Dec-2016

 -------------
 #p 6-31g* mp2
 -------------

 ------------------------------------------------------
 Input file generated by CHIRIPA (05-May-2021 14:57:25)
 ------------------------------------------------------
 Symbolic Z-matrix:
 Charge =  0 Multiplicity = 1

                         Standard orientation:
 ---------------------------------------------------------------------
 Center     Atomic      Atomic             Coordinates (Angstroms)
 Number     Number       Type             X           Y           Z
 ---------------------------------------------------------------------
      1          6           0        2.605755   -2.165467    1.343006
      2          6           0        3.046341   -1.029659    2.030280
      3          6           0        3.166746    0.197128    1.370701
      4          6           0        2.836570    0.252380    0.017475
      5          6           0        2.394782   -0.861534   -0.694782
      6          6           0        2.281952   -2.077933   -0.014937
      7          1           0        2.515164   -3.114430    1.863254
      8          1           0        3.298510   -1.094683    3.084902
      9          1           0        3.505344    1.092068    1.878492
     10          1           0        2.150778   -0.765567   -1.745815
     11          1           0        1.939526   -2.958378   -0.551228
     12          7           0        2.960027    1.545626   -0.691518
     13          8           0        2.662918    1.568006   -1.883937
     14          8           0        3.351563    2.512405   -0.041384
     15          6           0       -3.948921    1.893017    1.027272
     16          6           0       -4.520108    0.616997    1.072432
     17          6           0       -3.901271   -0.460968    0.432449
     18          6           0       -2.706717   -0.226040   -0.246625
     19          6           0       -2.112839    1.033571   -0.309698
     20          6           0       -2.749225    2.096872    0.337567
     21          1           0       -4.436464    2.724711    1.527255
     22          1           0       -5.451740    0.455738    1.607317
     23          1           0       -4.321590   -1.459160    0.451457
     24          1           0       -1.183427    1.163310   -0.850788
     25          1           0       -2.303341    3.086762    0.300824
     26          7           0       -2.042293   -1.359472   -0.928002
     27          8           0       -0.990494   -1.126316   -1.519605
     28          8           0       -2.585898   -2.459548   -0.857559
 ---------------------------------------------------------------------

 SCF Done:  E(RHF) =  -868.340194479     A.U. after   16 cycles
 E2 =    -0.2599467155D+01 EUMP2 =    -0.87093966163460D+03

 The electronic state is 1-A.
 Alpha  occ. eigenvalues --  -20.61151 -20.61139 -20.60462 -20.60444 -15.86173
 Alpha  occ. eigenvalues --  -15.85492 -11.31290 -11.30557 -11.27863 -11.27775
 Alpha  occ. eigenvalues --  -11.27541 -11.27194 -11.26967 -11.26829 -11.26825
 Alpha  occ. eigenvalues --  -11.26743 -11.26159 -11.25906  -1.60212  -1.59544
 Alpha  occ. eigenvalues --   -1.39772  -1.39098  -1.19443  -1.18721  -1.08890
 Alpha  occ. eigenvalues --   -1.08185  -1.04802  -1.04045  -0.95766  -0.95055
 Alpha  occ. eigenvalues --   -0.86214  -0.85476  -0.82608  -0.81874  -0.77676
 Alpha  occ. eigenvalues --   -0.76947  -0.72430  -0.71711  -0.71514  -0.70875
 Alpha  occ. eigenvalues --   -0.70550  -0.69825  -0.65100  -0.64799  -0.64361
 Alpha  occ. eigenvalues --   -0.64039  -0.62143  -0.61375  -0.55325  -0.54607
 Alpha  occ. eigenvalues --   -0.53158  -0.52885  -0.52437  -0.52122  -0.49175
 Alpha  occ. eigenvalues --   -0.49150  -0.48481  -0.48447  -0.45233  -0.44564
 Alpha  occ. eigenvalues --   -0.37425  -0.36741  -0.36396  -0.35584
 Alpha virt. eigenvalues --    0.04776   0.05581   0.11255   0.12001   0.16334
 Alpha virt. eigenvalues --    0.17116   0.21404   0.22164   0.27343   0.27946
 Alpha virt. eigenvalues --    0.28334   0.29039   0.30939   0.31655   0.32324

 Mulliken charges:
               1
     1  C   -0.172569
     2  C   -0.220036
     3  C   -0.173733
     4  C    0.150435
     5  C   -0.160011
     6  C   -0.216763
     7  H    0.224429
     8  H    0.219715
     9  H    0.271263
    10  H    0.283323
    11  H    0.232430
    12  N    0.486497
    13  O   -0.460509
    14  O   -0.465279
    15  C   -0.170399
    16  C   -0.218962
    17  C   -0.171539
    18  C    0.157491
    19  C   -0.171510
    20  C   -0.219347
    21  H    0.226587
    22  H    0.223186
    23  H    0.274198
    24  H    0.280452
    25  H    0.228626
    26  N    0.490318
    27  O   -0.466223
    28  O   -0.462071
 Sum of Mulliken charges =  -0.00000

 Dipole moment (field-independent basis, Debye):
    X=             -2.9634    Y=             -0.6685    Z=              4.7285  Tot=              5.6203
 Quadrupole moment (field-independent basis, Debye-Ang):
   XX=            -93.1263   YY=           -106.7965   ZZ=           -103.0022
   XY=            -20.9897   XZ=              0.7722   YZ=              0.2512

 Normal termination of Gaussian 16 at Thu May  6 14:44:56 2021.
