 Gaussian 16, Revision A.03,
 Gaussian 16:  EM64L-G16RevA.03 25-Dec-2016

 -------------
 #p 6-31g* mp2
 -------------

 ------------------------------------------------------
 Input file generated by CHIRIPA (05-May-2021 14:53:16)
 ------------------------------------------------------
 Symbolic Z-matrix:
 Charge =  0 Multiplicity = 1

                         Standard orientation:
 ---------------------------------------------------------------------
 Center     Atomic      Atomic             Coordinates (Angstroms)
 Number     Number       Type             X           Y           Z
 ---------------------------------------------------------------------
      1          6           0       -3.522158    0.816412    0.149227
      2          6           0       -3.318481    1.627726   -1.130722
      3          6           0       -3.563378    3.123282   -0.927912
      4          1           0       -4.544883    0.975297    0.517648
      5          1           0       -2.846759    1.197231    0.927820
      6          1           0       -3.993080    1.244588   -1.907084
      7          1           0       -2.296183    1.466741   -1.496244
      8          1           0       -2.881136    3.526406   -0.172506
      9          1           0       -4.587674    3.302992   -0.585680
     10          1           0       -3.412249    3.684251   -1.855454
     11          6           0       -3.280978   -0.680481   -0.037509
     12          6           0       -3.484656   -1.491796    1.242440
     13          6           0       -3.239759   -2.987352    1.039629
     14          1           0       -3.956378   -1.061300   -0.816103
     15          1           0       -2.258253   -0.839366   -0.405930
     16          1           0       -4.506954   -1.330810    1.607962
     17          1           0       -2.810057   -1.108658    2.018802
     18          1           0       -2.215463   -3.167061    0.697398
     19          1           0       -3.922001   -3.390476    0.284223
     20          1           0       -3.390888   -3.548320    1.967171
     21          6           0        2.017301   -2.211135   -1.183366
     22          6           0        1.023586   -1.335654   -0.733271
     23          6           0        1.366691   -0.137175   -0.100439
     24          6           0        2.719365    0.155533    0.066545
     25          6           0        3.732552   -0.696176   -0.370874
     26          6           0        3.366233   -1.889169   -1.001053
     27          1           0        1.741752   -3.140011   -1.673936
     28          1           0       -0.024818   -1.583100   -0.873503
     29          1           0        0.617795    0.558730    0.257736
     30          1           0        4.769176   -0.422148   -0.216798
     31          1           0        4.140104   -2.567178   -1.349583
     32          7           0        3.094882    1.421405    0.735092
     33          8           0        4.293747    1.656183    0.870142
     34          8           0        2.183237    2.154849    1.111389
 ---------------------------------------------------------------------

 SCF Done:  E(RHF) =  -669.535503007     A.U. after   15 cycles
 E2 =    -0.2091736122D+01 EUMP2 =    -0.67162723912877D+03

 The electronic state is 1-A.
 Alpha  occ. eigenvalues --  -20.60779 -20.60773 -15.85832 -11.31195 -11.27766
 Alpha  occ. eigenvalues --  -11.27761 -11.27500 -11.26776 -11.26752 -11.22261
 Alpha  occ. eigenvalues --  -11.22195 -11.22016 -11.21886 -11.21786 -11.21234
 Alpha  occ. eigenvalues --   -1.59854  -1.39408  -1.19366  -1.09040  -1.08760
 Alpha  occ. eigenvalues --   -1.04771  -1.04042  -0.96500  -0.95596  -0.87509
 Alpha  occ. eigenvalues --   -0.86169  -0.82434  -0.80119  -0.78858  -0.77477
 Alpha  occ. eigenvalues --   -0.72050  -0.71176  -0.70475  -0.65731  -0.65015
 Alpha  occ. eigenvalues --   -0.64763  -0.62123  -0.61425  -0.59871  -0.58104
 Alpha  occ. eigenvalues --   -0.55804  -0.55266  -0.53153  -0.53097  -0.52965
 Alpha  occ. eigenvalues --   -0.52832  -0.50438  -0.48814  -0.48806  -0.48419
 Alpha  occ. eigenvalues --   -0.47158  -0.46384  -0.46286  -0.44814  -0.44326
 Alpha  occ. eigenvalues --   -0.37344  -0.36372
 Alpha virt. eigenvalues --    0.05054   0.11260   0.16531   0.18311   0.22683
 Alpha virt. eigenvalues --    0.23426   0.24836   0.26346   0.27096   0.28413
 Alpha virt. eigenvalues --    0.29728   0.30611   0.31317   0.31625   0.32149

 Mulliken charges:
               1
     1  C   -0.300213
     2  C   -0.299774
     3  C   -0.476814
     4  H    0.153357
     5  H    0.152641
     6  H    0.152223
     7  H    0.148313
     8  H    0.160584
     9  H    0.155720
    10  H    0.162147
    11  C   -0.303031
    12  C   -0.300456
    13  C   -0.475849
    14  H    0.152391
    15  H    0.139897
    16  H    0.156187
    17  H    0.154763
    18  H    0.148224
    19  H    0.156337
    20  H    0.164436
    21  C   -0.171471
    22  C   -0.226364
    23  C   -0.174100
    24  C    0.158800
    25  C   -0.170899
    26  C   -0.218470
    27  H    0.226425
    28  H    0.233396
    29  H    0.275428
    30  H    0.275641
    31  H    0.223484
    32  N    0.488149
    33  O   -0.460367
    34  O   -0.460738
 Sum of Mulliken charges =  -0.00000

 Dipole moment (field-independent basis, Debye):
    X=             -1.4897    Y=             -4.3867    Z=             -2.2930  Tot=              5.1692
 Quadrupole moment (field-independent basis, Debye-Ang):
   XX=            -95.4599   YY=            -97.4268   ZZ=            -95.6952
   XY=            -13.6371   XZ=             -7.2155   YZ=             -0.4846

 Normal termination of Gaussian 16 at Wed May  5 23:35:20 2021.
