 Gaussian 16, Revision A.03,
 Gaussian 16:  EM64L-G16RevA.03 25-Dec-2016

 -------------
 #p 6-31g* mp2
 -------------

 ------------------------------------------------------
 Input file generated by CHIRIPA (05-May-2021 14:53:13)
 ------------------------------------------------------
 Symbolic Z-matrix:
 Charge =  0 Multiplicity = 1

                         Standard orientation:
 ---------------------------------------------------------------------
 Center     Atomic      Atomic             Coordinates (Angstroms)
 Number     Number       Type             X           Y           Z
 ---------------------------------------------------------------------
      1          6           0       -2.994241    0.561844   -0.115100
      2          6           0       -3.681374    1.878619    0.248127
      3          6           0       -2.737156    3.078804    0.171949
      4          1           0       -2.141374    0.402576    0.558842
      5          1           0       -2.580314    0.640075   -1.129959
      6          1           0       -4.095084    1.797444    1.261473
      7          1           0       -4.532820    2.034676   -0.426634
      8          1           0       -2.333824    3.188037   -0.839976
      9          1           0       -1.893601    2.949457    0.857723
     10          1           0       -3.248972    4.009640    0.435478
     11          6           0       -3.925277   -0.647199   -0.043585
     12          6           0       -3.238143   -1.963975   -0.406811
     13          6           0       -4.182362   -3.164159   -0.330633
     14          1           0       -4.339204   -0.725431    0.971274
     15          1           0       -4.778144   -0.487932   -0.717526
     16          1           0       -2.386698   -2.120032    0.267950
     17          1           0       -2.824434   -1.882800   -1.420158
     18          1           0       -5.025917   -3.034813   -1.016407
     19          1           0       -4.585693   -3.273393    0.681292
     20          1           0       -3.670546   -4.094996   -0.594162
     21          6           0        1.833671    2.394474   -0.126041
     22          6           0        3.055206    2.049385   -0.713650
     23          6           0        3.546567    0.744189   -0.615807
     24          6           0        2.786974   -0.194924    0.080164
     25          6           0        1.566404    0.118084    0.676424
     26          6           0        1.094472    1.429424    0.565902
     27          1           0        1.459515    3.410768   -0.206971
     28          1           0        3.631415    2.796785   -1.251629
     29          1           0        4.489131    0.449843   -1.061178
     30          1           0        1.014534   -0.648784    1.206302
     31          1           0        0.145485    1.694575    1.023247
     32          7           0        3.296872   -1.579928    0.190457
     33          8           0        2.608654   -2.388864    0.809016
     34          8           0        4.375095   -1.830336   -0.343743
 ---------------------------------------------------------------------

 SCF Done:  E(RHF) =  -669.535245021     A.U. after   15 cycles
 E2 =    -0.2091915789D+01 EUMP2 =    -0.67162716080949D+03

 The electronic state is 1-A.
 Alpha  occ. eigenvalues --  -20.60721 -20.60716 -15.85774 -11.31124 -11.27692
 Alpha  occ. eigenvalues --  -11.27684 -11.27414 -11.26707 -11.26656 -11.22398
 Alpha  occ. eigenvalues --  -11.22162 -11.22115 -11.21873 -11.21809 -11.21199
 Alpha  occ. eigenvalues --   -1.59797  -1.39351  -1.19292  -1.09021  -1.08687
 Alpha  occ. eigenvalues --   -1.04695  -1.04094  -0.96571  -0.95526  -0.87590
 Alpha  occ. eigenvalues --   -0.86095  -0.82365  -0.80185  -0.78794  -0.77407
 Alpha  occ. eigenvalues --   -0.71993  -0.71119  -0.70397  -0.65690  -0.64943
 Alpha  occ. eigenvalues --   -0.64705  -0.62095  -0.61451  -0.59947  -0.58153
 Alpha  occ. eigenvalues --   -0.55889  -0.55187  -0.53243  -0.53042  -0.53021
 Alpha  occ. eigenvalues --   -0.52766  -0.50528  -0.48766  -0.48749  -0.48456
 Alpha  occ. eigenvalues --   -0.47202  -0.46327  -0.46220  -0.44760  -0.44340
 Alpha  occ. eigenvalues --   -0.37267  -0.36283
 Alpha virt. eigenvalues --    0.05112   0.11334   0.16557   0.19241   0.22742
 Alpha virt. eigenvalues --    0.23591   0.24864   0.26158   0.26630   0.28877
 Alpha virt. eigenvalues --    0.29295   0.30007   0.31121   0.31615   0.31784

 Mulliken charges:
               1
     1  C   -0.298739
     2  C   -0.300396
     3  C   -0.478513
     4  H    0.141082
     5  H    0.152924
     6  H    0.154196
     7  H    0.156224
     8  H    0.156858
     9  H    0.144661
    10  H    0.165024
    11  C   -0.299016
    12  C   -0.300094
    13  C   -0.476335
    14  H    0.150392
    15  H    0.151469
    16  H    0.152590
    17  H    0.153789
    18  H    0.154995
    19  H    0.155489
    20  H    0.164317
    21  C   -0.173427
    22  C   -0.218611
    23  C   -0.171360
    24  C    0.158744
    25  C   -0.172539
    26  C   -0.221768
    27  H    0.226188
    28  H    0.223121
    29  H    0.275301
    30  H    0.275049
    31  H    0.231740
    32  N    0.488035
    33  O   -0.460697
    34  O   -0.460690
 Sum of Mulliken charges =  -0.00000

 Dipole moment (field-independent basis, Debye):
    X=             -1.9928    Y=              4.8285    Z=             -0.4736  Tot=              5.2450
 Quadrupole moment (field-independent basis, Debye-Ang):
   XX=           -101.3629   YY=            -97.5930   ZZ=            -93.1168
   XY=             14.7355   XZ=             -3.3325   YZ=             -0.5349

 Normal termination of Gaussian 16 at Thu May  6 18:43:52 2021.
