 Gaussian 16, Revision A.03,
 Gaussian 16:  EM64L-G16RevA.03 25-Dec-2016

 -------------
 #p 6-31g* mp2
 -------------

 ------------------------------------------------------
 Input file generated by CHIRIPA (05-May-2021 14:55:24)
 ------------------------------------------------------
 Symbolic Z-matrix:
 Charge =  0 Multiplicity = 1

                         Standard orientation:
 ---------------------------------------------------------------------
 Center     Atomic      Atomic             Coordinates (Angstroms)
 Number     Number       Type             X           Y           Z
 ---------------------------------------------------------------------
      1          6           0       -3.678640    1.316783    1.556935
      2          6           0       -4.432210    0.347839    0.886264
      3          6           0       -3.816508   -0.546113    0.005180
      4          6           0       -2.439077   -0.442300   -0.182432
      5          6           0       -1.661045    0.512128    0.471038
      6          6           0       -2.297897    1.395696    1.347551
      7          1           0       -4.165147    2.007193    2.239607
      8          1           0       -5.504677    0.284224    1.046932
      9          1           0       -4.375868   -1.305903   -0.527034
     10          1           0       -0.593675    0.550993    0.290407
     11          1           0       -1.710146    2.147178    1.867040
     12          7           0       -1.776066   -1.383191   -1.112777
     13          8           0       -0.561098   -1.271006   -1.260782
     14          8           0       -2.483919   -2.215029   -1.676359
     15          6           0        3.684672   -0.268329    0.022742
     16          6           0        3.652366   -1.048050    1.337648
     17          6           0        4.502948   -2.317819    1.293015
     18          1           0        3.333381   -0.918301   -0.790324
     19          1           0        4.724988   -0.005751   -0.214299
     20          1           0        2.612277   -1.307882    1.572844
     21          1           0        4.003593   -0.396086    2.147709
     22          1           0        5.549207   -2.073447    1.082716
     23          1           0        4.149986   -2.990424    0.504586
     24          1           0        4.465499   -2.859724    2.243171
     25          6           0        2.839104    1.003639    0.051754
     26          6           0        2.871409    1.783359   -1.263152
     27          6           0        2.020827    3.053128   -1.218519
     28          1           0        1.798786    0.741060    0.288795
     29          1           0        3.190394    1.653611    0.864820
     30          1           0        2.520182    1.131395   -2.073213
     31          1           0        3.911498    2.043191   -1.498349
     32          1           0        2.373789    3.725733   -0.430089
     33          1           0        0.974568    2.808757   -1.008220
     34          1           0        2.058276    3.595034   -2.168675
 ---------------------------------------------------------------------

 SCF Done:  E(RHF) =  -669.535836607     A.U. after   15 cycles
 E2 =    -0.2091880946D+01 EUMP2 =    -0.67162771755381D+03

 The electronic state is 1-A.
 Alpha  occ. eigenvalues --  -20.60855 -20.60845 -15.85902 -11.31232 -11.27797
 Alpha  occ. eigenvalues --  -11.27786 -11.27533 -11.26811 -11.26796 -11.21420
 Alpha  occ. eigenvalues --  -11.21325 -11.21283 -11.21145 -11.21003 -11.20703
 Alpha  occ. eigenvalues --   -1.59925  -1.39480  -1.19403  -1.08804  -1.08204
 Alpha  occ. eigenvalues --   -1.04802  -1.03318  -0.95791  -0.95645  -0.86808
 Alpha  occ. eigenvalues --   -0.86203  -0.82477  -0.79389  -0.78047  -0.77520
 Alpha  occ. eigenvalues --   -0.72125  -0.71244  -0.70520  -0.65059  -0.64949
 Alpha  occ. eigenvalues --   -0.64678  -0.62158  -0.60687  -0.59166  -0.57405
 Alpha  occ. eigenvalues --   -0.55313  -0.55076  -0.53131  -0.52908  -0.52481
 Alpha  occ. eigenvalues --   -0.52226  -0.49724  -0.48880  -0.48875  -0.47714
 Alpha  occ. eigenvalues --   -0.46397  -0.45578  -0.45443  -0.44891  -0.43574
 Alpha  occ. eigenvalues --   -0.37382  -0.36401
 Alpha virt. eigenvalues --    0.04986   0.11231   0.16491   0.19645   0.23018
 Alpha virt. eigenvalues --    0.24229   0.25509   0.27429   0.27717   0.28151
 Alpha virt. eigenvalues --    0.29597   0.31209   0.31476   0.31922   0.32282

 Mulliken charges:
               1
     1  C   -0.170326
     2  C   -0.219125
     3  C   -0.169414
     4  C    0.156300
     5  C   -0.182236
     6  C   -0.223978
     7  H    0.225951
     8  H    0.223670
     9  H    0.275738
    10  H    0.294919
    11  H    0.224830
    12  N    0.486375
    13  O   -0.463184
    14  O   -0.459548
    15  C   -0.298968
    16  C   -0.299730
    17  C   -0.476301
    18  H    0.161988
    19  H    0.147928
    20  H    0.153224
    21  H    0.147774
    22  H    0.153713
    23  H    0.160125
    24  H    0.158589
    25  C   -0.303117
    26  C   -0.301009
    27  C   -0.475706
    28  H    0.147460
    29  H    0.145816
    30  H    0.163101
    31  H    0.151937
    32  H    0.152324
    33  H    0.148282
    34  H    0.162599
 Sum of Mulliken charges =  -0.00000

 Dipole moment (field-independent basis, Debye):
    X=             -2.3299    Y=              3.1983    Z=              3.1496  Tot=              5.0574
 Quadrupole moment (field-independent basis, Debye-Ang):
   XX=            -79.0507   YY=            -98.1546   ZZ=            -96.3779
   XY=             -4.2723   XZ=             -7.0904   YZ=             -1.1837

 Normal termination of Gaussian 16 at Thu May  6 20:55:44 2021.
