 Gaussian 16, Revision A.03,
 Gaussian 16:  EM64L-G16RevA.03 25-Dec-2016

 -------------
 #p 6-31g* mp2
 -------------

 ------------------------------------------------------
 Input file generated by CHIRIPA (05-May-2021 14:55:20)
 ------------------------------------------------------
 Symbolic Z-matrix:
 Charge =  0 Multiplicity = 1

                         Standard orientation:
 ---------------------------------------------------------------------
 Center     Atomic      Atomic             Coordinates (Angstroms)
 Number     Number       Type             X           Y           Z
 ---------------------------------------------------------------------
      1          6           0        4.988847    0.451013    1.026932
      2          6           0        3.767054    0.712467    1.655729
      3          6           0        2.569147    0.257342    1.096777
      4          6           0        2.630141   -0.459442   -0.097288
      5          6           0        3.831702   -0.735969   -0.747729
      6          6           0        5.017221   -0.271098   -0.170679
      7          1           0        5.914598    0.808351    1.468169
      8          1           0        3.741991    1.273021    2.585888
      9          1           0        1.609387    0.445603    1.562433
     10          1           0        3.824794   -1.297362   -1.674125
     11          1           0        5.964625   -0.475630   -0.661227
     12          7           0        1.368528   -0.946422   -0.698606
     13          8           0        1.449189   -1.575709   -1.751282
     14          8           0        0.322903   -0.689607   -0.105856
     15          6           0       -4.004542   -0.165545   -0.149024
     16          6           0       -4.819263   -0.679364    1.038496
     17          6           0       -5.557381   -1.982251    0.729524
     18          1           0       -4.673929   -0.014820   -1.007014
     19          1           0       -3.280657   -0.935913   -0.448891
     20          1           0       -5.540455    0.092287    1.336913
     21          1           0       -4.147890   -0.828702    1.893815
     22          1           0       -4.849162   -2.769943    0.452818
     23          1           0       -6.249640   -1.843722   -0.107248
     24          1           0       -6.133386   -2.331615    1.592091
     25          6           0       -3.260919    1.136250    0.144375
     26          6           0       -2.446197    1.650069   -1.043145
     27          6           0       -1.708079    2.952956   -0.734174
     28          1           0       -3.984803    1.906617    0.444241
     29          1           0       -2.591531    0.985524    1.002365
     30          1           0       -3.117571    1.799407   -1.898465
     31          1           0       -1.725005    0.878418   -1.341562
     32          1           0       -1.015820    2.814427    0.102599
     33          1           0       -2.416298    3.740649   -0.457468
     34          1           0       -1.132074    3.302320   -1.596740
 ---------------------------------------------------------------------

 SCF Done:  E(RHF) =  -669.536549750     A.U. after   15 cycles
 E2 =    -0.2091429845D+01 EUMP2 =    -0.67162797959514D+03

 The electronic state is 1-A.
 Alpha  occ. eigenvalues --  -20.61066 -20.61055 -15.86081 -11.31354 -11.27912
 Alpha  occ. eigenvalues --  -11.27906 -11.27639 -11.26907 -11.26897 -11.20676
 Alpha  occ. eigenvalues --  -11.20286 -11.20256 -11.20238 -11.20204 -11.20160
 Alpha  occ. eigenvalues --   -1.60115  -1.39672  -1.19516  -1.08930  -1.07299
 Alpha  occ. eigenvalues --   -1.04906  -1.02507  -0.95780  -0.94998  -0.86309
 Alpha  occ. eigenvalues --   -0.86022  -0.82617  -0.78566  -0.77676  -0.77104
 Alpha  occ. eigenvalues --   -0.72310  -0.71423  -0.70626  -0.65177  -0.64909
 Alpha  occ. eigenvalues --   -0.63889  -0.62254  -0.59886  -0.58373  -0.56610
 Alpha  occ. eigenvalues --   -0.55412  -0.54285  -0.53238  -0.52998  -0.51737
 Alpha  occ. eigenvalues --   -0.51436  -0.49131  -0.49061  -0.48888  -0.46909
 Alpha  occ. eigenvalues --   -0.45620  -0.45074  -0.44676  -0.44410  -0.42741
 Alpha  occ. eigenvalues --   -0.37490  -0.36503
 Alpha virt. eigenvalues --    0.04821   0.11148   0.16312   0.21156   0.23844
 Alpha virt. eigenvalues --    0.25049   0.26983   0.27505   0.28550   0.28697
 Alpha virt. eigenvalues --    0.28921   0.30782   0.31760   0.32573   0.32865

 Mulliken charges:
               1
     1  C   -0.170404
     2  C   -0.218456
     3  C   -0.170540
     4  C    0.158274
     5  C   -0.170608
     6  C   -0.218562
     7  H    0.226281
     8  H    0.224172
     9  H    0.275507
    10  H    0.275950
    11  H    0.224042
    12  N    0.489227
    13  O   -0.458286
    14  O   -0.461665
    15  C   -0.301581
    16  C   -0.298679
    17  C   -0.475443
    18  H    0.145359
    19  H    0.164290
    20  H    0.147649
    21  H    0.150914
    22  H    0.157461
    23  H    0.153444
    24  H    0.156311
    25  C   -0.294509
    26  C   -0.306782
    27  C   -0.474091
    28  H    0.141979
    29  H    0.150192
    30  H    0.145803
    31  H    0.176399
    32  H    0.149776
    33  H    0.150351
    34  H    0.156225
 Sum of Mulliken charges =  -0.00000

 Dipole moment (field-independent basis, Debye):
    X=              4.7869    Y=              1.5043    Z=              2.0551  Tot=              5.4222
 Quadrupole moment (field-independent basis, Debye-Ang):
   XX=            -71.1903   YY=            -97.5544   ZZ=            -92.6277
   XY=              0.7924   XZ=              3.4823   YZ=              0.6688

 Normal termination of Gaussian 16 at Thu May  6 10:49:30 2021.
