 Gaussian 16, Revision A.03,
 Gaussian 16:  EM64L-G16RevA.03 25-Dec-2016

 -------------
 #p 6-31g* mp2
 -------------

 ------------------------------------------------------
 Input file generated by CHIRIPA (05-May-2021 14:55:24)
 ------------------------------------------------------
 Symbolic Z-matrix:
 Charge =  0 Multiplicity = 1

                         Standard orientation:
 ---------------------------------------------------------------------
 Center     Atomic      Atomic             Coordinates (Angstroms)
 Number     Number       Type             X           Y           Z
 ---------------------------------------------------------------------
      1          6           0       -3.894843    1.824957    0.296710
      2          6           0       -4.493467    0.576151    0.493316
      3          6           0       -3.765572   -0.600033    0.290078
      4          6           0       -2.435167   -0.490007   -0.111430
      5          6           0       -1.810598    0.739434   -0.315580
      6          6           0       -2.557676    1.902476   -0.106400
      7          1           0       -4.467740    2.733541    0.456898
      8          1           0       -5.531758    0.512916    0.806365
      9          1           0       -4.204173   -1.579854    0.434990
     10          1           0       -0.773778    0.770513   -0.627759
     11          1           0       -2.090174    2.870949   -0.259851
     12          7           0       -1.654423   -1.728224   -0.329734
     13          8           0       -0.483856   -1.604310   -0.683365
     14          8           0       -2.227826   -2.799207   -0.143076
     15          6           0        2.787482    0.948359    0.092786
     16          6           0        3.454441    2.308338   -0.116042
     17          6           0        2.452707    3.463455   -0.121210
     18          1           0        2.043256    0.786638   -0.698996
     19          1           0        2.235508    0.960495    1.042823
     20          1           0        4.006133    2.293182   -1.064737
     21          1           0        4.197302    2.466757    0.676219
     22          1           0        1.910144    3.507109    0.828696
     23          1           0        1.717889    3.332548   -0.922152
     24          1           0        2.950910    4.426234   -0.271907
     25          6           0        3.775957   -0.216368    0.100369
     26          6           0        3.108998   -1.576347    0.309196
     27          6           0        4.110733   -2.731464    0.314365
     28          1           0        4.327932   -0.228504   -0.849669
     29          1           0        4.520183   -0.054647    0.892150
     30          1           0        2.366138   -1.734766   -0.483065
     31          1           0        2.557306   -1.561191    1.257891
     32          1           0        4.845551   -2.600558    1.115307
     33          1           0        4.653296   -2.775118   -0.635541
     34          1           0        3.612529   -3.694243    0.465061
 ---------------------------------------------------------------------

 SCF Done:  E(RHF) =  -669.536097194     A.U. after   15 cycles
 E2 =    -0.2091928950D+01 EUMP2 =    -0.67162802614379D+03

 The electronic state is 1-A.
 Alpha  occ. eigenvalues --  -20.60858 -20.60849 -15.85897 -11.31208 -11.27779
 Alpha  occ. eigenvalues --  -11.27753 -11.27514 -11.26786 -11.26764 -11.21569
 Alpha  occ. eigenvalues --  -11.21369 -11.21142 -11.20788 -11.20433 -11.20146
 Alpha  occ. eigenvalues --   -1.59921  -1.39477  -1.19379  -1.08786  -1.08000
 Alpha  occ. eigenvalues --   -1.04772  -1.03061  -0.95629  -0.95591  -0.86618
 Alpha  occ. eigenvalues --   -0.86173  -0.82467  -0.79188  -0.77767  -0.77430
 Alpha  occ. eigenvalues --   -0.72123  -0.71236  -0.70489  -0.65038  -0.64782
 Alpha  occ. eigenvalues --   -0.64627  -0.62120  -0.60454  -0.59014  -0.57138
 Alpha  occ. eigenvalues --   -0.55282  -0.54912  -0.53108  -0.52869  -0.52289
 Alpha  occ. eigenvalues --   -0.52000  -0.49578  -0.48888  -0.48877  -0.47473
 Alpha  occ. eigenvalues --   -0.46229  -0.45322  -0.45089  -0.44770  -0.43319
 Alpha  occ. eigenvalues --   -0.37362  -0.36374
 Alpha virt. eigenvalues --    0.05009   0.11274   0.16502   0.20226   0.23130
 Alpha virt. eigenvalues --    0.24452   0.25585   0.27208   0.27426   0.28375
 Alpha virt. eigenvalues --    0.29830   0.30969   0.31618   0.32042   0.32360

 Mulliken charges:
               1
     1  C   -0.170439
     2  C   -0.218950
     3  C   -0.170209
     4  C    0.156323
     5  C   -0.173744
     6  C   -0.220746
     7  H    0.225741
     8  H    0.223437
     9  H    0.275518
    10  H    0.281793
    11  H    0.224869
    12  N    0.493113
    13  O   -0.465913
    14  O   -0.459716
    15  C   -0.301858
    16  C   -0.298569
    17  C   -0.476012
    18  H    0.152366
    19  H    0.147598
    20  H    0.153103
    21  H    0.153009
    22  H    0.152745
    23  H    0.147591
    24  H    0.161495
    25  C   -0.298263
    26  C   -0.305502
    27  C   -0.476108
    28  H    0.147830
    29  H    0.146316
    30  H    0.178082
    31  H    0.149666
    32  H    0.149555
    33  H    0.152131
    34  H    0.163751
 Sum of Mulliken charges =  -0.00000

 Dipole moment (field-independent basis, Debye):
    X=             -2.8519    Y=              4.2154    Z=              0.7234  Tot=              5.1407
 Quadrupole moment (field-independent basis, Debye-Ang):
   XX=            -79.2270   YY=            -99.0100   ZZ=            -94.5344
   XY=             -6.4327   XZ=             -2.9013   YZ=             -1.3796

 Normal termination of Gaussian 16 at Thu May  6 17:40:32 2021.
