 Gaussian 16, Revision A.03,
 Gaussian 16:  EM64L-G16RevA.03 25-Dec-2016

 -------------
 #p 6-31g* mp2
 -------------

 ------------------------------------------------------
 Input file generated by CHIRIPA (05-May-2021 14:55:21)
 ------------------------------------------------------
 Symbolic Z-matrix:
 Charge =  0 Multiplicity = 1

                         Standard orientation:
 ---------------------------------------------------------------------
 Center     Atomic      Atomic             Coordinates (Angstroms)
 Number     Number       Type             X           Y           Z
 ---------------------------------------------------------------------
      1          6           0       -1.306707    1.128945    0.796394
      2          6           0       -2.170680    1.870433   -0.016174
      3          6           0       -3.429206    1.367461   -0.359219
      4          6           0       -3.793043    0.113855    0.130051
      5          6           0       -2.954597   -0.648898    0.941534
      6          6           0       -1.700728   -0.126142    1.271816
      7          1           0       -0.330862    1.527350    1.057922
      8          1           0       -1.867336    2.845439   -0.386836
      9          1           0       -4.117788    1.920328   -0.986603
     10          1           0       -3.284991   -1.617780    1.295831
     11          1           0       -1.031822   -0.704210    1.903043
     12          7           0       -5.122923   -0.429091   -0.226360
     13          8           0       -5.419821   -1.536097    0.217518
     14          8           0       -5.843204    0.262634   -0.942843
     15          6           0        5.278474   -0.484372   -0.047499
     16          6           0        6.287589    0.663246    0.003959
     17          6           0        7.691297    0.199098    0.393788
     18          1           0        5.243804   -0.977959    0.933375
     19          1           0        5.628537   -1.239292   -0.765097
     20          1           0        5.935034    1.416430    0.720222
     21          1           0        6.319720    1.154278   -0.977097
     22          1           0        8.067519   -0.535923   -0.325101
     23          1           0        7.680647   -0.272281    1.381861
     24          1           0        8.396610    1.035431    0.424471
     25          6           0        3.870615   -0.036177   -0.435807
     26          6           0        2.861501   -1.183793   -0.487265
     27          6           0        1.457793   -0.719647   -0.877093
     28          1           0        3.520553    0.718745    0.281791
     29          1           0        3.905285    0.457410   -1.416681
     30          1           0        2.829369   -1.674826    0.493791
     31          1           0        3.214055   -1.936979   -1.203528
     32          1           0        1.468442   -0.248268   -1.865167
     33          1           0        1.081571    0.015375   -0.158204
     34          1           0        0.752479   -1.555979   -0.907776
 ---------------------------------------------------------------------

 SCF Done:  E(RHF) =  -669.534248424     A.U. after   15 cycles
 E2 =    -0.2092152709D+01 EUMP2 =    -0.67162640113328D+03

 The electronic state is 1-A.
 Alpha  occ. eigenvalues --  -20.60740 -20.60735 -15.85795 -11.31155 -11.27732
 Alpha  occ. eigenvalues --  -11.27726 -11.27478 -11.26745 -11.26735 -11.22263
 Alpha  occ. eigenvalues --  -11.22100 -11.22065 -11.21922 -11.21756 -11.21488
 Alpha  occ. eigenvalues --   -1.59816  -1.39370  -1.19338  -1.09039  -1.08740
 Alpha  occ. eigenvalues --   -1.04740  -1.04118  -0.96576  -0.95572  -0.87588
 Alpha  occ. eigenvalues --   -0.86139  -0.82408  -0.80183  -0.78847  -0.77442
 Alpha  occ. eigenvalues --   -0.72014  -0.71140  -0.70499  -0.65679  -0.64995
 Alpha  occ. eigenvalues --   -0.64748  -0.62094  -0.61522  -0.59931  -0.58186
 Alpha  occ. eigenvalues --   -0.55970  -0.55223  -0.53404  -0.53081  -0.52832
 Alpha  occ. eigenvalues --   -0.52806  -0.50492  -0.48774  -0.48768  -0.48490
 Alpha  occ. eigenvalues --   -0.47224  -0.46386  -0.46315  -0.44777  -0.44367
 Alpha  occ. eigenvalues --   -0.37239  -0.36332
 Alpha virt. eigenvalues --    0.05062   0.11286   0.16473   0.20292   0.22559
 Alpha virt. eigenvalues --    0.23956   0.25742   0.26595   0.27024   0.27613
 Alpha virt. eigenvalues --    0.28824   0.30374   0.31133   0.31409   0.31988

 Mulliken charges:
               1
     1  C   -0.168123
     2  C   -0.219827
     3  C   -0.170939
     4  C    0.158547
     5  C   -0.172069
     6  C   -0.214473
     7  H    0.224690
     8  H    0.223450
     9  H    0.275528
    10  H    0.275416
    11  H    0.223516
    12  N    0.488098
    13  O   -0.460606
    14  O   -0.460541
    15  C   -0.298448
    16  C   -0.299859
    17  C   -0.475982
    18  H    0.149616
    19  H    0.151605
    20  H    0.150754
    21  H    0.152674
    22  H    0.156329
    23  H    0.155470
    24  H    0.161334
    25  C   -0.297444
    26  C   -0.300701
    27  C   -0.474600
    28  H    0.143669
    29  H    0.151221
    30  H    0.149480
    31  H    0.155392
    32  H    0.157766
    33  H    0.145229
    34  H    0.163828
 Sum of Mulliken charges =  -0.00000

 Dipole moment (field-independent basis, Debye):
    X=              4.7737    Y=              1.8835    Z=              1.1941  Tot=              5.2690
 Quadrupole moment (field-independent basis, Debye-Ang):
   XX=           -131.5938   YY=            -91.1452   ZZ=            -92.6635
   XY=             -7.6315   XZ=             -4.2223   YZ=             -1.9299

 Normal termination of Gaussian 16 at Thu May  6 17:31:58 2021.
