 Gaussian 16, Revision A.03,
 Gaussian 16:  EM64L-G16RevA.03 25-Dec-2016

 -------------
 #p 6-31g* mp2
 -------------

 ------------------------------------------------------
 Input file generated by CHIRIPA (05-May-2021 14:57:21)
 ------------------------------------------------------
 Symbolic Z-matrix:
 Charge =  0 Multiplicity = 1

                         Standard orientation:
 ---------------------------------------------------------------------
 Center     Atomic      Atomic             Coordinates (Angstroms)
 Number     Number       Type             X           Y           Z
 ---------------------------------------------------------------------
      1          6           0       -5.851859   -0.739546   -0.106338
      2          6           0       -4.894059   -1.540722    0.523945
      3          6           0       -3.547019   -1.166539    0.528267
      4          6           0       -3.191306    0.020543   -0.110164
      5          6           0       -4.122121    0.840080   -0.746745
      6          6           0       -5.463517    0.446208   -0.738556
      7          1           0       -6.896080   -1.037868   -0.104836
      8          1           0       -5.192764   -2.462120    1.015724
      9          1           0       -2.784817   -1.767984    1.008609
     10          1           0       -3.793948    1.753033   -1.228655
     11          1           0       -6.205187    1.070383   -1.228839
     12          7           0       -1.768243    0.427096   -0.112211
     13          8           0       -1.480532    1.477596   -0.681692
     14          8           0       -0.967502   -0.312446    0.455705
     15          6           0        2.246523    2.096904    0.987783
     16          6           0        3.109545    2.201135   -0.108050
     17          6           0        3.768299    1.071685   -0.602958
     18          6           0        3.539857   -0.151768    0.024949
     19          6           0        2.686016   -0.287861    1.118441
     20          6           0        2.037881    0.854928    1.596458
     21          1           0        1.738911    2.979470    1.365679
     22          1           0        3.273481    3.164379   -0.582740
     23          1           0        4.441723    1.123924   -1.449828
     24          1           0        2.542639   -1.261675    1.570712
     25          1           0        1.368202    0.770999    2.447653
     26          7           0        4.231630   -1.354527   -0.490047
     27          8           0        4.013450   -2.420905    0.080804
     28          8           0        4.978921   -1.208096   -1.454801
 ---------------------------------------------------------------------

 SCF Done:  E(RHF) =  -868.338579573     A.U. after   16 cycles
 E2 =    -0.2599784326D+01 EUMP2 =    -0.87093836389993D+03

 The electronic state is 1-A.
 Alpha  occ. eigenvalues --  -20.61380 -20.61367 -20.59610 -20.59605 -15.86417
 Alpha  occ. eigenvalues --  -15.84651 -11.31631 -11.29685 -11.28184 -11.28177
 Alpha  occ. eigenvalues --  -11.27888 -11.27160 -11.27147 -11.26251 -11.26166
 Alpha  occ. eigenvalues --  -11.25892 -11.25244 -11.25121  -1.60445  -1.58690
 Alpha  occ. eigenvalues --   -1.40005  -1.38254  -1.19788  -1.17810  -1.09210
 Alpha  occ. eigenvalues --   -1.07277  -1.05168  -1.03177  -0.96070  -0.94175
 Alpha  occ. eigenvalues --   -0.86573  -0.84616  -0.82911  -0.81032  -0.77976
 Alpha  occ. eigenvalues --   -0.76122  -0.72644  -0.71765  -0.70894  -0.70887
 Alpha  occ. eigenvalues --   -0.70001  -0.68970  -0.65444  -0.65166  -0.63490
 Alpha  occ. eigenvalues --   -0.63233  -0.62517  -0.60577  -0.55671  -0.53731
 Alpha  occ. eigenvalues --   -0.53506  -0.53256  -0.51558  -0.51323  -0.49393
 Alpha  occ. eigenvalues --   -0.49299  -0.47653  -0.47612  -0.45445  -0.43734
 Alpha  occ. eigenvalues --   -0.37759  -0.36765  -0.35733  -0.34664
 Alpha virt. eigenvalues --    0.04536   0.06418   0.10892   0.12937   0.16074
 Alpha virt. eigenvalues --    0.18013   0.21061   0.22837   0.26975   0.27928
 Alpha virt. eigenvalues --    0.28711   0.29692   0.30640   0.32123   0.32353

 Mulliken charges:
               1
     1  C   -0.170196
     2  C   -0.218399
     3  C   -0.170841
     4  C    0.157767
     5  C   -0.170880
     6  C   -0.218463
     7  H    0.227223
     8  H    0.225193
     9  H    0.275539
    10  H    0.275194
    11  H    0.224567
    12  N    0.488478
    13  O   -0.460951
    14  O   -0.462342
    15  C   -0.164319
    16  C   -0.216729
    17  C   -0.173262
    18  C    0.156651
    19  C   -0.164810
    20  C   -0.196594
    21  H    0.221194
    22  H    0.217776
    23  H    0.269831
    24  H    0.270421
    25  H    0.219300
    26  N    0.488296
    27  O   -0.464423
    28  O   -0.465220
 Sum of Mulliken charges =  -0.00000

 Dipole moment (field-independent basis, Debye):
    X=             -7.9457    Y=              2.8227    Z=              1.8969  Tot=              8.6429
 Quadrupole moment (field-independent basis, Debye-Ang):
   XX=            -91.0121   YY=           -102.2206   ZZ=           -102.0365
   XY=             20.5274   XZ=              6.1308   YZ=             -4.7956

 Normal termination of Gaussian 16 at Thu May  6 17:49:35 2021.
