 Gaussian 16, Revision A.03,
 Gaussian 16:  EM64L-G16RevA.03 25-Dec-2016

 -------------
 #p 6-31g* mp2
 -------------

 ------------------------------------------------------
 Input file generated by CHIRIPA (05-May-2021 14:53:17)
 ------------------------------------------------------
 Symbolic Z-matrix:
 Charge =  0 Multiplicity = 1

                         Standard orientation:
 ---------------------------------------------------------------------
 Center     Atomic      Atomic             Coordinates (Angstroms)
 Number     Number       Type             X           Y           Z
 ---------------------------------------------------------------------
      1          6           0       -3.948218   -0.098517   -0.510318
      2          6           0       -5.349177    0.158262    0.045888
      3          6           0       -6.186057    1.066028   -0.855992
      4          1           0       -3.432679    0.862106   -0.645841
      5          1           0       -4.034602   -0.550402   -1.508182
      6          1           0       -5.260180    0.608255    1.042984
      7          1           0       -5.861372   -0.803097    0.180283
      8          1           0       -6.304453    0.619577   -1.848597
      9          1           0       -5.699845    2.038948   -0.980994
     10          1           0       -7.183709    1.236360   -0.439414
     11          6           0       -3.099515   -1.004339    0.380141
     12          6           0       -1.698556   -1.261118   -0.176064
     13          6           0       -0.861677   -2.168884    0.725815
     14          1           0       -3.013132   -0.552454    1.378006
     15          1           0       -3.615054   -1.964962    0.515665
     16          1           0       -1.186362   -0.299759   -0.310460
     17          1           0       -1.787554   -1.711112   -1.173161
     18          1           0       -1.347888   -3.141804    0.850818
     19          1           0       -0.743281   -1.722433    1.718420
     20          1           0        0.135976   -2.339216    0.309238
     21          6           0        1.376006    2.378320    0.873609
     22          6           0        2.269710    2.551970   -0.188304
     23          6           0        3.037763    1.479956   -0.652444
     24          6           0        2.886145    0.242525   -0.028692
     25          6           0        2.004290    0.037871    1.031374
     26          6           0        1.246377    1.124035    1.478992
     27          1           0        0.783302    3.216584    1.227746
     28          1           0        2.372460    3.524932   -0.660357
     29          1           0        3.737196    1.586470   -1.472728
     30          1           0        1.923758   -0.943958    1.481869
     31          1           0        0.553107    0.986250    2.303878
     32          7           0        3.693882   -0.899860   -0.511309
     33          8           0        3.541822   -1.979964    0.055163
     34          8           0        4.463751   -0.693525   -1.446918
 ---------------------------------------------------------------------

 SCF Done:  E(RHF) =  -669.535343680     A.U. after   15 cycles
 E2 =    -0.2092784215D+01 EUMP2 =    -0.67162812789497D+03

 The electronic state is 1-A.
 Alpha  occ. eigenvalues --  -20.60827 -20.60822 -15.85869 -11.31204 -11.27794
 Alpha  occ. eigenvalues --  -11.27754 -11.27553 -11.26806 -11.26793 -11.21912
 Alpha  occ. eigenvalues --  -11.21823 -11.21726 -11.21668 -11.21363 -11.21361
 Alpha  occ. eigenvalues --   -1.59894  -1.39449  -1.19398  -1.08798  -1.08737
 Alpha  occ. eigenvalues --   -1.04806  -1.03817  -0.96295  -0.95626  -0.87314
 Alpha  occ. eigenvalues --   -0.86192  -0.82462  -0.79886  -0.78548  -0.77508
 Alpha  occ. eigenvalues --   -0.72088  -0.71214  -0.70513  -0.65390  -0.65047
 Alpha  occ. eigenvalues --   -0.64808  -0.62213  -0.61195  -0.59629  -0.57888
 Alpha  occ. eigenvalues --   -0.55630  -0.55287  -0.53194  -0.53029  -0.52766
 Alpha  occ. eigenvalues --   -0.52625  -0.50238  -0.48845  -0.48845  -0.48195
 Alpha  occ. eigenvalues --   -0.46919  -0.46088  -0.46023  -0.44860  -0.44061
 Alpha  occ. eigenvalues --   -0.37381  -0.36353
 Alpha virt. eigenvalues --    0.05005   0.11192   0.16433   0.20461   0.22729
 Alpha virt. eigenvalues --    0.23970   0.25915   0.26637   0.27144   0.27989
 Alpha virt. eigenvalues --    0.29172   0.29515   0.31331   0.31546   0.32125

 Mulliken charges:
               1
     1  C   -0.297960
     2  C   -0.299591
     3  C   -0.475641
     4  H    0.147172
     5  H    0.151675
     6  H    0.150092
     7  H    0.153361
     8  H    0.156472
     9  H    0.153817
    10  H    0.160870
    11  C   -0.297578
    12  C   -0.303116
    13  C   -0.480998
    14  H    0.144183
    15  H    0.151620
    16  H    0.153284
    17  H    0.155580
    18  H    0.159242
    19  H    0.142475
    20  H    0.171195
    21  C   -0.171450
    22  C   -0.218776
    23  C   -0.170594
    24  C    0.156772
    25  C   -0.167572
    26  C   -0.219417
    27  H    0.225672
    28  H    0.223535
    29  H    0.275687
    30  H    0.278837
    31  H    0.223725
    32  N    0.488646
    33  O   -0.461435
    34  O   -0.459784
 Sum of Mulliken charges =  -0.00000

 Dipole moment (field-independent basis, Debye):
    X=             -2.8236    Y=              3.9758    Z=              1.6170  Tot=              5.1375
 Quadrupole moment (field-independent basis, Debye-Ang):
   XX=           -111.2836   YY=            -91.0175   ZZ=            -93.0629
   XY=             13.2914   XZ=              3.2923   YZ=             -1.1414

 Normal termination of Gaussian 16 at Thu May  6 13:58:33 2021.
