 Gaussian 16, Revision A.03,
 Gaussian 16:  EM64L-G16RevA.03 25-Dec-2016

 -------------
 #p 6-31g* mp2
 -------------

 ------------------------------------------------------
 Input file generated by CHIRIPA (05-May-2021 14:55:24)
 ------------------------------------------------------
 Symbolic Z-matrix:
 Charge =  0 Multiplicity = 1

                         Standard orientation:
 ---------------------------------------------------------------------
 Center     Atomic      Atomic             Coordinates (Angstroms)
 Number     Number       Type             X           Y           Z
 ---------------------------------------------------------------------
      1          6           0        1.497834   -1.184474   -1.020180
      2          6           0        2.592180   -2.037084   -0.841339
      3          6           0        3.789833   -1.552612   -0.307054
      4          6           0        3.858547   -0.203992    0.039056
      5          6           0        2.785723    0.670510   -0.127034
      6          6           0        1.597922    0.164225   -0.663086
      7          1           0        0.571295   -1.569296   -1.435911
      8          1           0        2.517318   -3.084952   -1.117769
      9          1           0        4.652480   -2.190593   -0.157932
     10          1           0        2.890567    1.710323    0.157950
     11          1           0        0.749657    0.828688   -0.800857
     12          7           0        5.121234    0.320444    0.605615
     13          8           0        5.156259    1.512594    0.902580
     14          8           0        6.051994   -0.470584    0.741990
     15          6           0       -5.311874    0.003997   -0.129159
     16          6           0       -5.867531   -0.889077    0.980637
     17          6           0       -7.146623   -1.618100    0.568031
     18          1           0       -6.076804    0.737677   -0.418193
     19          1           0       -5.114645   -0.609132   -1.019423
     20          1           0       -6.062353   -0.274686    1.868998
     21          1           0       -5.101121   -1.620594    1.267195
     22          1           0       -6.963162   -2.254608   -0.303634
     23          1           0       -7.929856   -0.901053    0.301588
     24          1           0       -7.526591   -2.250830    1.376200
     25          6           0       -4.033255    0.739491    0.268219
     26          6           0       -3.477597    1.632565   -0.841578
     27          6           0       -2.198505    2.361588   -0.428972
     28          1           0       -4.230482    1.352620    1.158482
     29          1           0       -3.268325    0.005810    0.557251
     30          1           0       -4.244007    2.364082   -1.128135
     31          1           0       -3.282775    1.018174   -1.729939
     32          1           0       -1.415273    1.644542   -0.162530
     33          1           0       -2.381966    2.998095    0.442693
     34          1           0       -1.818536    2.994318   -1.237141
 ---------------------------------------------------------------------

 SCF Done:  E(RHF) =  -669.535538416     A.U. after   15 cycles
 E2 =    -0.2090759557D+01 EUMP2 =    -0.67162629797288D+03

 The electronic state is 1-A.
 Alpha  occ. eigenvalues --  -20.60737 -20.60732 -15.85791 -11.31157 -11.27731
 Alpha  occ. eigenvalues --  -11.27717 -11.27476 -11.26749 -11.26704 -11.22468
 Alpha  occ. eigenvalues --  -11.22134 -11.22130 -11.22119 -11.21989 -11.21523
 Alpha  occ. eigenvalues --   -1.59813  -1.39366  -1.19330  -1.09132  -1.08727
 Alpha  occ. eigenvalues --   -1.04733  -1.04248  -0.96708  -0.95562  -0.87730
 Alpha  occ. eigenvalues --   -0.86132  -0.82393  -0.80314  -0.78916  -0.77439
 Alpha  occ. eigenvalues --   -0.72009  -0.71136  -0.70444  -0.65782  -0.64982
 Alpha  occ. eigenvalues --   -0.64753  -0.62138  -0.61603  -0.60077  -0.58295
 Alpha  occ. eigenvalues --   -0.56028  -0.55233  -0.53412  -0.53174  -0.53058
 Alpha  occ. eigenvalues --   -0.52777  -0.50633  -0.48775  -0.48764  -0.48611
 Alpha  occ. eigenvalues --   -0.47340  -0.46463  -0.46376  -0.44771  -0.44489
 Alpha  occ. eigenvalues --   -0.37316  -0.36334
 Alpha virt. eigenvalues --    0.05095   0.11275   0.16569   0.19996   0.22487
 Alpha virt. eigenvalues --    0.23704   0.25525   0.26231   0.26960   0.28298
 Alpha virt. eigenvalues --    0.28602   0.30277   0.30985   0.31330   0.31876

 Mulliken charges:
               1
     1  C   -0.172648
     2  C   -0.218496
     3  C   -0.171140
     4  C    0.158818
     5  C   -0.172476
     6  C   -0.226227
     7  H    0.225048
     8  H    0.223184
     9  H    0.275502
    10  H    0.276215
    11  H    0.234297
    12  N    0.488040
    13  O   -0.460324
    14  O   -0.460613
    15  C   -0.298607
    16  C   -0.300004
    17  C   -0.476002
    18  H    0.151566
    19  H    0.148397
    20  H    0.153559
    21  H    0.151386
    22  H    0.154880
    23  H    0.156278
    24  H    0.161823
    25  C   -0.298607
    26  C   -0.299714
    27  C   -0.482049
    28  H    0.152512
    29  H    0.147240
    30  H    0.156373
    31  H    0.149556
    32  H    0.148314
    33  H    0.161897
    34  H    0.162021
 Sum of Mulliken charges =  -0.00000

 Dipole moment (field-independent basis, Debye):
    X=             -4.6582    Y=             -1.7963    Z=             -1.9658  Tot=              5.3656
 Quadrupole moment (field-independent basis, Debye-Ang):
   XX=           -128.5561   YY=            -89.4693   ZZ=            -95.6672
   XY=             -9.6178   XZ=             -8.5298   YZ=              0.9723

 Normal termination of Gaussian 16 at Thu May  6 03:09:18 2021.
