 Gaussian 16, Revision A.03,
 Gaussian 16:  EM64L-G16RevA.03 25-Dec-2016

 -------------
 #p 6-31g* mp2
 -------------

 ------------------------------------------------------
 Input file generated by CHIRIPA (05-May-2021 14:53:12)
 ------------------------------------------------------
 Symbolic Z-matrix:
 Charge =  0 Multiplicity = 1

                         Standard orientation:
 ---------------------------------------------------------------------
 Center     Atomic      Atomic             Coordinates (Angstroms)
 Number     Number       Type             X           Y           Z
 ---------------------------------------------------------------------
      1          6           0       -3.822059    0.629578    0.405263
      2          6           0       -4.416737    1.962862   -0.049378
      3          6           0       -4.301371    3.055018    1.014427
      4          1           0       -4.328757    0.303600    1.323925
      5          1           0       -2.765183    0.777663    0.666946
      6          1           0       -5.471812    1.812018   -0.311444
      7          1           0       -3.908695    2.285609   -0.967171
      8          1           0       -3.252064    3.234531    1.270028
      9          1           0       -4.824062    2.758249    1.929481
     10          1           0       -4.732667    3.999567    0.668495
     11          6           0       -3.929841   -0.472218   -0.647427
     12          6           0       -3.335164   -1.805502   -0.192786
     13          6           0       -3.450530   -2.897658   -1.256591
     14          1           0       -4.986718   -0.620303   -0.909110
     15          1           0       -3.423143   -0.146240   -1.566089
     16          1           0       -3.843205   -2.128249    0.725007
     17          1           0       -2.280089   -1.654658    0.069280
     18          1           0       -2.927838   -2.600889   -2.171645
     19          1           0       -4.499836   -3.077171   -1.512192
     20          1           0       -3.019233   -3.842207   -0.910659
     21          6           0        1.296149   -1.466569    1.274430
     22          6           0        2.604221   -1.408771    1.766496
     23          6           0        3.572062   -0.633516    1.120886
     24          6           0        3.195523    0.074371   -0.019467
     25          6           0        1.900531    0.037126   -0.534148
     26          6           0        0.949091   -0.744709    0.127700
     27          1           0        0.550677   -2.071362    1.782262
     28          1           0        2.876596   -1.968330    2.656861
     29          1           0        4.592026   -0.570821    1.480276
     30          1           0        1.658987    0.605956   -1.423816
     31          1           0       -0.066010   -0.787715   -0.256703
     32          7           0        4.211451    0.898582   -0.711540
     33          8           0        3.854415    1.512917   -1.714414
     34          8           0        5.345536    0.914658   -0.238009
 ---------------------------------------------------------------------

 SCF Done:  E(RHF) =  -669.535479183     A.U. after   15 cycles
 E2 =    -0.2091258939D+01 EUMP2 =    -0.67162673812159D+03

 The electronic state is 1-A.
 Alpha  occ. eigenvalues --  -20.60759 -20.60753 -15.85812 -11.31177 -11.27750
 Alpha  occ. eigenvalues --  -11.27746 -11.27484 -11.26760 -11.26741 -11.22712
 Alpha  occ. eigenvalues --  -11.22253 -11.22180 -11.22118 -11.21954 -11.21511
 Alpha  occ. eigenvalues --   -1.59834  -1.39388  -1.19350  -1.09251  -1.08744
 Alpha  occ. eigenvalues --   -1.04756  -1.04295  -0.96711  -0.95579  -0.87728
 Alpha  occ. eigenvalues --   -0.86157  -0.82413  -0.80388  -0.79044  -0.77461
 Alpha  occ. eigenvalues --   -0.72031  -0.71157  -0.70456  -0.65953  -0.65002
 Alpha  occ. eigenvalues --   -0.64741  -0.62158  -0.61640  -0.60095  -0.58324
 Alpha  occ. eigenvalues --   -0.55991  -0.55250  -0.53406  -0.53128  -0.53082
 Alpha  occ. eigenvalues --   -0.52860  -0.50655  -0.48808  -0.48786  -0.48664
 Alpha  occ. eigenvalues --   -0.47434  -0.46568  -0.46494  -0.44793  -0.44550
 Alpha  occ. eigenvalues --   -0.37329  -0.36359
 Alpha virt. eigenvalues --    0.05077   0.11270   0.16560   0.18639   0.22642
 Alpha virt. eigenvalues --    0.23700   0.25085   0.26324   0.27132   0.28080
 Alpha virt. eigenvalues --    0.28855   0.30504   0.31037   0.31424   0.31822

 Mulliken charges:
               1
     1  C   -0.299084
     2  C   -0.300210
     3  C   -0.476343
     4  H    0.151259
     5  H    0.145528
     6  H    0.153714
     7  H    0.153102
     8  H    0.156207
     9  H    0.155545
    10  H    0.162888
    11  C   -0.299209
    12  C   -0.303693
    13  C   -0.475906
    14  H    0.154135
    15  H    0.149449
    16  H    0.155617
    17  H    0.140501
    18  H    0.156276
    19  H    0.159815
    20  H    0.160849
    21  C   -0.172633
    22  C   -0.218621
    23  C   -0.171170
    24  C    0.158977
    25  C   -0.171784
    26  C   -0.225701
    27  H    0.225985
    28  H    0.223458
    29  H    0.275609
    30  H    0.275791
    31  H    0.232650
    32  N    0.487928
    33  O   -0.460507
    34  O   -0.460424
 Sum of Mulliken charges =  -0.00000

 Dipole moment (field-independent basis, Debye):
    X=             -3.7921    Y=             -2.8862    Z=              2.4255  Tot=              5.3473
 Quadrupole moment (field-independent basis, Debye-Ang):
   XX=           -113.8448   YY=            -95.9634   ZZ=            -93.2016
   XY=            -10.4425   XZ=             10.3897   YZ=             -1.5314

 Normal termination of Gaussian 16 at Wed May  5 16:58:35 2021.
