 Gaussian 16, Revision A.03,
 Gaussian 16:  EM64L-G16RevA.03 25-Dec-2016

 -------------
 #p 6-31g* mp2
 -------------

 ------------------------------------------------------
 Input file generated by CHIRIPA (05-May-2021 14:53:18)
 ------------------------------------------------------
 Symbolic Z-matrix:
 Charge =  0 Multiplicity = 1

                         Standard orientation:
 ---------------------------------------------------------------------
 Center     Atomic      Atomic             Coordinates (Angstroms)
 Number     Number       Type             X           Y           Z
 ---------------------------------------------------------------------
      1          6           0        2.952233   -0.210788   -0.137220
      2          6           0        4.214521   -1.006721   -0.470545
      3          6           0        4.032611   -2.512331   -0.276013
      4          1           0        2.661401   -0.415143    0.902299
      5          1           0        2.125920   -0.565818   -0.768533
      6          1           0        5.038546   -0.649351    0.160236
      7          1           0        4.502492   -0.800300   -1.509332
      8          1           0        3.228941   -2.889244   -0.916833
      9          1           0        3.768041   -2.737437    0.762222
     10          1           0        4.947054   -3.062027   -0.519916
     11          6           0        3.118389    1.295924   -0.326794
     12          6           0        1.856101    2.091857    0.006531
     13          6           0        2.038011    3.597466   -0.188002
     14          1           0        3.944702    1.650954    0.304518
     15          1           0        3.409222    1.500278   -1.366314
     16          1           0        1.568131    1.885436    1.045318
     17          1           0        1.032077    1.734486   -0.624251
     18          1           0        2.302582    3.822572   -1.226236
     19          1           0        2.841682    3.974380    0.452819
     20          1           0        1.123569    4.147162    0.055902
     21          6           0       -0.241275   -1.435367    1.078841
     22          6           0       -0.669183   -0.184630    1.536086
     23          6           0       -1.847803    0.385433    1.045746
     24          6           0       -2.577263   -0.326094    0.094481
     25          6           0       -2.177144   -1.574017   -0.380792
     26          6           0       -0.995293   -2.124853    0.123546
     27          1           0        0.675559   -1.870738    1.465185
     28          1           0       -0.085619    0.353107    2.277932
     29          1           0       -2.202204    1.352139    1.382340
     30          1           0       -2.780099   -2.086109   -1.120807
     31          1           0       -0.665399   -3.096357   -0.233380
     32          7           0       -3.826725    0.267228   -0.432030
     33          8           0       -4.451457   -0.379847   -1.269669
     34          8           0       -4.157662    1.368116    0.002901
 ---------------------------------------------------------------------

 SCF Done:  E(RHF) =  -669.533938769     A.U. after   15 cycles
 E2 =    -0.2094303478D+01 EUMP2 =    -0.67162824224616D+03

 The electronic state is 1-A.
 Alpha  occ. eigenvalues --  -20.60733 -20.60728 -15.85788 -11.31132 -11.27714
 Alpha  occ. eigenvalues --  -11.27705 -11.27399 -11.26707 -11.26681 -11.22378
 Alpha  occ. eigenvalues --  -11.22198 -11.22149 -11.22019 -11.22004 -11.21480
 Alpha  occ. eigenvalues --   -1.59810  -1.39364  -1.19314  -1.09170  -1.08690
 Alpha  occ. eigenvalues --   -1.04720  -1.04216  -0.96681  -0.95542  -0.87694
 Alpha  occ. eigenvalues --   -0.86117  -0.82388  -0.80288  -0.79010  -0.77421
 Alpha  occ. eigenvalues --   -0.72006  -0.71135  -0.70410  -0.65808  -0.64959
 Alpha  occ. eigenvalues --   -0.64709  -0.62087  -0.61599  -0.60055  -0.58300
 Alpha  occ. eigenvalues --   -0.55984  -0.55213  -0.53427  -0.53130  -0.52990
 Alpha  occ. eigenvalues --   -0.52807  -0.50620  -0.48780  -0.48762  -0.48587
 Alpha  occ. eigenvalues --   -0.47322  -0.46512  -0.46384  -0.44775  -0.44471
 Alpha  occ. eigenvalues --   -0.37189  -0.36277
 Alpha virt. eigenvalues --    0.05097   0.11214   0.16534   0.19525   0.22705
 Alpha virt. eigenvalues --    0.22948   0.24916   0.26616   0.26718   0.27933
 Alpha virt. eigenvalues --    0.28999   0.30228   0.31203   0.31610   0.31993

 Mulliken charges:
               1
     1  C   -0.299572
     2  C   -0.299485
     3  C   -0.476996
     4  H    0.137485
     5  H    0.155074
     6  H    0.153774
     7  H    0.155760
     8  H    0.153146
     9  H    0.149265
    10  H    0.165223
    11  C   -0.298805
    12  C   -0.299712
    13  C   -0.476320
    14  H    0.149876
    15  H    0.152994
    16  H    0.141890
    17  H    0.158691
    18  H    0.157912
    19  H    0.154809
    20  H    0.162225
    21  C   -0.167080
    22  C   -0.214041
    23  C   -0.172008
    24  C    0.157461
    25  C   -0.171076
    26  C   -0.222069
    27  H    0.228262
    28  H    0.222795
    29  H    0.275263
    30  H    0.275254
    31  H    0.223331
    32  N    0.488151
    33  O   -0.460767
    34  O   -0.460709
 Sum of Mulliken charges =  -0.00000

 Dipole moment (field-independent basis, Debye):
    X=              4.5079    Y=             -2.0300    Z=              1.7378  Tot=              5.2404
 Quadrupole moment (field-independent basis, Debye-Ang):
   XX=           -117.8909   YY=            -91.5849   ZZ=            -92.3008
   XY=              4.6600   XZ=             -4.0244   YZ=              1.9998

 Normal termination of Gaussian 16 at Wed May  5 15:46:51 2021.
