 Gaussian 16, Revision A.03,
 Gaussian 16:  EM64L-G16RevA.03 25-Dec-2016

 -------------
 #p 6-31g* mp2
 -------------

 ------------------------------------------------------
 Input file generated by CHIRIPA (05-May-2021 14:51:08)
 ------------------------------------------------------
 Symbolic Z-matrix:
 Charge =  0 Multiplicity = 1

                         Standard orientation:
 ---------------------------------------------------------------------
 Center     Atomic      Atomic             Coordinates (Angstroms)
 Number     Number       Type             X           Y           Z
 ---------------------------------------------------------------------
      1          6           0        1.960941    1.704092    0.315757
      2          6           0        0.454873    1.967085    0.291664
      3          6           0        0.072919    3.279506    0.976831
      4          1           0        2.307562    1.689600    1.358153
      5          1           0        2.479852    2.539358   -0.174606
      6          1           0       -0.061139    1.130908    0.780700
      7          1           0        0.111764    1.980761   -0.750788
      8          1           0        0.561353    4.127088    0.485264
      9          1           0        0.387468    3.272406    2.025454
     10          1           0       -1.008180    3.447606    0.948058
     11          6           0        2.358427    0.395747   -0.365394
     12          6           0        3.864494    0.132754   -0.341301
     13          6           0        4.246449   -1.179668   -1.026468
     14          1           0        1.839515   -0.439519    0.124969
     15          1           0        2.011806    0.410238   -1.407790
     16          1           0        4.207604    0.119077    0.701150
     17          1           0        4.380506    0.968931   -0.830338
     18          1           0        3.931899   -1.172568   -2.075091
     19          1           0        3.758014   -2.027250   -0.534902
     20          1           0        5.327548   -1.347768   -0.997696
     21          6           0       -2.706826   -0.538871    0.176139
     22          6           0       -3.377668    0.020769   -1.078755
     23          6           0       -4.470060    1.041885   -0.759699
     24          1           0       -3.469647   -1.003616    0.815718
     25          1           0       -2.277018    0.290611    0.754603
     26          1           0       -3.804881   -0.809657   -1.655381
     27          1           0       -2.613132    0.484066   -1.715510
     28          1           0       -4.054991    1.889302   -0.204540
     29          1           0       -5.253511    0.588228   -0.144068
     30          1           0       -4.936296    1.429012   -1.671080
     31          6           0       -1.612541   -1.560967   -0.126502
     32          6           0       -0.941700   -2.120607    1.128393
     33          6           0        0.150692   -3.141723    0.809337
     34          1           0       -2.042350   -2.390448   -0.704965
     35          1           0       -0.849720   -1.096222   -0.766080
     36          1           0       -1.706235   -2.583905    1.765148
     37          1           0       -0.514486   -1.290182    1.705019
     38          1           0        0.934143   -2.688067    0.193706
     39          1           0       -0.264377   -3.989141    0.254176
     40          1           0        0.616929   -3.528851    1.720718
 ---------------------------------------------------------------------

 SCF Done:  E(RHF) =  -470.732251602     A.U. after   11 cycles
 E2 =    -0.1586036712D+01 EUMP2 =    -0.47231828831366D+03

 The electronic state is 1-A.
 Alpha  occ. eigenvalues --  -11.21668 -11.21650 -11.21634 -11.21567 -11.21471
 Alpha  occ. eigenvalues --  -11.21411 -11.21345 -11.21284 -11.21159 -11.21108
 Alpha  occ. eigenvalues --  -11.21089 -11.21057  -1.08553  -1.08368  -1.03606
 Alpha  occ. eigenvalues --   -1.03526  -0.96056  -0.95967  -0.87064  -0.86990
 Alpha  occ. eigenvalues --   -0.79682  -0.79595  -0.78349  -0.78218  -0.65454
 Alpha  occ. eigenvalues --   -0.64783  -0.61026  -0.60934  -0.59420  -0.59335
 Alpha  occ. eigenvalues --   -0.57676  -0.57569  -0.55441  -0.55169  -0.52739
 Alpha  occ. eigenvalues --   -0.52678  -0.52466  -0.52400  -0.50014  -0.49913
 Alpha  occ. eigenvalues --   -0.48047  -0.47880  -0.46819  -0.46694  -0.46150
 Alpha  occ. eigenvalues --   -0.45875  -0.45467  -0.45240  -0.43849  -0.43763
 Alpha virt. eigenvalues --    0.19769   0.21456   0.23739   0.24201   0.25037
 Alpha virt. eigenvalues --    0.25681   0.27125   0.27669   0.28509   0.29706
 Alpha virt. eigenvalues --    0.30578   0.31116   0.31881   0.31975   0.32550

 Mulliken charges:
               1
     1  C   -0.296943
     2  C   -0.309379
     3  C   -0.476293
     4  H    0.149587
     5  H    0.149833
     6  H    0.161054
     7  H    0.152095
     8  H    0.155885
     9  H    0.155483
    10  H    0.160115
    11  C   -0.307793
    12  C   -0.299281
    13  C   -0.478081
    14  H    0.158911
    15  H    0.149262
    16  H    0.152121
    17  H    0.152204
    18  H    0.155260
    19  H    0.157190
    20  H    0.160722
    21  C   -0.301713
    22  C   -0.300018
    23  C   -0.475826
    24  H    0.149220
    25  H    0.153633
    26  H    0.151739
    27  H    0.152614
    28  H    0.154859
    29  H    0.155173
    30  H    0.160124
    31  C   -0.302325
    32  C   -0.302470
    33  C   -0.481714
    34  H    0.149924
    35  H    0.154306
    36  H    0.152715
    37  H    0.151970
    38  H    0.159958
    39  H    0.155996
    40  H    0.159885
 Sum of Mulliken charges =  -0.00000

 Dipole moment (field-independent basis, Debye):
    X=              0.0310    Y=              0.0063    Z=             -0.0052  Tot=              0.0320
 Quadrupole moment (field-independent basis, Debye-Ang):
   XX=            -85.1676   YY=            -85.4097   ZZ=            -84.2145
   XY=              1.5811   XZ=              0.1547   YZ=             -0.9019

 Normal termination of Gaussian 16 at Wed May  5 15:06:07 2021.
