 Gaussian 16, Revision A.03,
 Gaussian 16:  EM64L-G16RevA.03 25-Dec-2016

 -------------
 #p 6-31g* mp2
 -------------

 ------------------------------------------------------
 Input file generated by CHIRIPA (05-May-2021 14:55:25)
 ------------------------------------------------------
 Symbolic Z-matrix:
 Charge =  0 Multiplicity = 1

                         Standard orientation:
 ---------------------------------------------------------------------
 Center     Atomic      Atomic             Coordinates (Angstroms)
 Number     Number       Type             X           Y           Z
 ---------------------------------------------------------------------
      1          6           0       -0.152168   -2.174054    0.902527
      2          6           0        0.132905   -2.132252   -0.466234
      3          6           0        1.208479   -1.378131   -0.944762
      4          6           0        1.981665   -0.674836   -0.022347
      5          6           0        1.723022   -0.696497    1.347297
      6          6           0        0.642400   -1.457307    1.803336
      7          1           0       -0.989661   -2.762471    1.265524
      8          1           0       -0.482459   -2.687887   -1.168118
      9          1           0        1.451570   -1.328133   -1.999194
     10          1           0        2.354440   -0.132070    2.022687
     11          1           0        0.423356   -1.487922    2.866881
     12          7           0        3.122999    0.127059   -0.517039
     13          8           0        3.788986    0.737762    0.316112
     14          8           0        3.329979    0.129698   -1.728563
     15          6           0       -3.030739    0.828271   -0.112298
     16          6           0       -3.232330   -0.654720   -0.425480
     17          6           0       -4.707981   -1.048897   -0.495283
     18          1           0       -3.520460    1.064774    0.842261
     19          1           0       -3.536032    1.430055   -0.880368
     20          1           0       -2.725638   -1.253525    0.342186
     21          1           0       -2.741907   -0.887763   -1.379311
     22          1           0       -5.223153   -0.476751   -1.273646
     23          1           0       -5.206790   -0.844592    0.457634
     24          1           0       -4.829036   -2.113131   -0.720253
     25          6           0       -1.560773    1.237643   -0.039213
     26          6           0       -1.359181    2.720634    0.273968
     27          6           0        0.116470    3.114811    0.343771
     28          1           0       -1.055479    0.635859    0.728855
     29          1           0       -1.071051    1.001139   -0.993773
     30          1           0       -1.849604    2.953677    1.227799
     31          1           0       -1.865874    3.319439   -0.493699
     32          1           0        0.615279    2.910505   -0.609146
     33          1           0        0.631642    2.542665    1.122133
     34          1           0        0.237524    4.179045    0.568742
 ---------------------------------------------------------------------

 SCF Done:  E(RHF) =  -669.532490326     A.U. after   15 cycles
 E2 =    -0.2097883844D+01 EUMP2 =    -0.67163037417041D+03

 The electronic state is 1-A.
 Alpha  occ. eigenvalues --  -20.60808 -20.60802 -15.85860 -11.31258 -11.27839
 Alpha  occ. eigenvalues --  -11.27808 -11.27532 -11.26839 -11.26797 -11.22182
 Alpha  occ. eigenvalues --  -11.21687 -11.21647 -11.21545 -11.21290 -11.20890
 Alpha  occ. eigenvalues --   -1.59878  -1.39432  -1.19444  -1.08881  -1.08606
 Alpha  occ. eigenvalues --   -1.04849  -1.03768  -0.96181  -0.95662  -0.87208
 Alpha  occ. eigenvalues --   -0.86234  -0.82491  -0.79897  -0.78457  -0.77522
 Alpha  occ. eigenvalues --   -0.72078  -0.71194  -0.70573  -0.65330  -0.65083
 Alpha  occ. eigenvalues --   -0.64844  -0.62191  -0.61186  -0.59606  -0.57813
 Alpha  occ. eigenvalues --   -0.55496  -0.55342  -0.53507  -0.52943  -0.52817
 Alpha  occ. eigenvalues --   -0.52499  -0.50136  -0.48842  -0.48831  -0.48213
 Alpha  occ. eigenvalues --   -0.46946  -0.45961  -0.45696  -0.44821  -0.43976
 Alpha  occ. eigenvalues --   -0.37260  -0.36371
 Alpha virt. eigenvalues --    0.04948   0.11073   0.16322   0.20530   0.22991
 Alpha virt. eigenvalues --    0.23821   0.25720   0.26772   0.27638   0.27866
 Alpha virt. eigenvalues --    0.28503   0.29962   0.31383   0.31467   0.32260

 Mulliken charges:
               1
     1  C   -0.170771
     2  C   -0.209060
     3  C   -0.172445
     4  C    0.163454
     5  C   -0.171152
     6  C   -0.222482
     7  H    0.226161
     8  H    0.224749
     9  H    0.275505
    10  H    0.275937
    11  H    0.223700
    12  N    0.488269
    13  O   -0.459870
    14  O   -0.460814
    15  C   -0.297330
    16  C   -0.299346
    17  C   -0.475351
    18  H    0.148089
    19  H    0.150672
    20  H    0.144642
    21  H    0.147946
    22  H    0.158299
    23  H    0.155791
    24  H    0.156279
    25  C   -0.305344
    26  C   -0.299559
    27  C   -0.476518
    28  H    0.157165
    29  H    0.148868
    30  H    0.148882
    31  H    0.151530
    32  H    0.158993
    33  H    0.153174
    34  H    0.161938
 Sum of Mulliken charges =  -0.00000

 Dipole moment (field-independent basis, Debye):
    X=             -3.8806    Y=             -2.8388    Z=              1.7268  Tot=              5.1088
 Quadrupole moment (field-independent basis, Debye-Ang):
   XX=           -112.6656   YY=            -91.3752   ZZ=            -89.5411
   XY=             -3.0271   XZ=              4.6410   YZ=              0.0299

 Normal termination of Gaussian 16 at Thu May  6 07:59:34 2021.
