 Gaussian 16, Revision A.03,
 Gaussian 16:  EM64L-G16RevA.03 25-Dec-2016

 -------------
 #p 6-31g* mp2
 -------------

 ------------------------------------------------------
 Input file generated by CHIRIPA (05-May-2021 14:53:12)
 ------------------------------------------------------
 Symbolic Z-matrix:
 Charge =  0 Multiplicity = 1

                         Standard orientation:
 ---------------------------------------------------------------------
 Center     Atomic      Atomic             Coordinates (Angstroms)
 Number     Number       Type             X           Y           Z
 ---------------------------------------------------------------------
      1          6           0       -4.498213    0.606630    0.067356
      2          6           0       -5.246348   -0.714922   -0.110911
      3          6           0       -6.757720   -0.567340    0.067327
      4          1           0       -4.713363    1.010611    1.066083
      5          1           0       -4.883871    1.338685   -0.655665
      6          1           0       -4.858436   -1.444681    0.611302
      7          1           0       -5.029239   -1.115899   -1.109259
      8          1           0       -7.164398    0.140308   -0.662363
      9          1           0       -6.992625   -0.190343    1.067973
     10          1           0       -7.272808   -1.524004   -0.064349
     11          6           0       -2.986329    0.475309   -0.107826
     12          6           0       -2.238194    1.796861    0.070441
     13          6           0       -0.726822    1.649280   -0.107797
     14          1           0       -2.600671   -0.256745    0.615195
     15          1           0       -2.771179    0.071329   -1.106553
     16          1           0       -2.455303    2.197838    1.068788
     17          1           0       -2.626106    2.526621   -0.651772
     18          1           0       -0.491917    1.272282   -1.108444
     19          1           0       -0.320144    0.941632    0.621892
     20          1           0       -0.211734    2.605944    0.023878
     21          6           0        0.731372   -1.670920    0.056036
     22          6           0        1.337627   -1.360152   -1.165601
     23          6           0        2.552317   -0.668847   -1.199885
     24          6           0        3.135590   -0.301953    0.011920
     25          6           0        2.556289   -0.597032    1.245057
     26          6           0        1.341561   -1.289041    1.255352
     27          1           0       -0.212244   -2.208217    0.073351
     28          1           0        0.866028   -1.655468   -2.098567
     29          1           0        3.043479   -0.415424   -2.131526
     30          1           0        3.050449   -0.289410    2.158618
     31          1           0        0.873021   -1.529043    2.205570
     32          7           0        4.421548    0.430274   -0.011677
     33          8           0        4.915112    0.742334    1.069827
     34          8           0        4.911569    0.678269   -1.111230
 ---------------------------------------------------------------------

 SCF Done:  E(RHF) =  -669.533806438     A.U. after   15 cycles
 E2 =    -0.2093884544D+01 EUMP2 =    -0.67162769098227D+03

 The electronic state is 1-A.
 Alpha  occ. eigenvalues --  -20.60766 -20.60761 -15.85822 -11.31203 -11.27790
 Alpha  occ. eigenvalues --  -11.27787 -11.27482 -11.26760 -11.26749 -11.22187
 Alpha  occ. eigenvalues --  -11.22058 -11.21946 -11.21911 -11.21548 -11.21111
 Alpha  occ. eigenvalues --   -1.59842  -1.39395  -1.19384  -1.08968  -1.08765
 Alpha  occ. eigenvalues --   -1.04792  -1.03959  -0.96399  -0.95600  -0.87414
 Alpha  occ. eigenvalues --   -0.86187  -0.82436  -0.80036  -0.78807  -0.77481
 Alpha  occ. eigenvalues --   -0.72040  -0.71164  -0.70480  -0.65597  -0.65032
 Alpha  occ. eigenvalues --   -0.64793  -0.62137  -0.61369  -0.59784  -0.58077
 Alpha  occ. eigenvalues --   -0.55729  -0.55276  -0.53649  -0.53048  -0.52880
 Alpha  occ. eigenvalues --   -0.52337  -0.50339  -0.48800  -0.48794  -0.48269
 Alpha  occ. eigenvalues --   -0.47085  -0.46306  -0.46280  -0.44798  -0.44244
 Alpha  occ. eigenvalues --   -0.37234  -0.36353
 Alpha virt. eigenvalues --    0.05033   0.11160   0.16453   0.20677   0.22602
 Alpha virt. eigenvalues --    0.24068   0.25643   0.26431   0.27357   0.27669
 Alpha virt. eigenvalues --    0.28940   0.30682   0.31221   0.31571   0.31696

 Mulliken charges:
               1
     1  C   -0.298141
     2  C   -0.299539
     3  C   -0.475861
     4  H    0.151134
     5  H    0.151975
     6  H    0.148836
     7  H    0.150713
     8  H    0.156720
     9  H    0.156247
    10  H    0.160828
    11  C   -0.296883
    12  C   -0.299976
    13  C   -0.479413
    14  H    0.141063
    15  H    0.145872
    16  H    0.151991
    17  H    0.153002
    18  H    0.152093
    19  H    0.160566
    20  H    0.161710
    21  C   -0.166370
    22  C   -0.216245
    23  C   -0.170188
    24  C    0.159428
    25  C   -0.168722
    26  C   -0.223511
    27  H    0.227428
    28  H    0.223226
    29  H    0.275746
    30  H    0.275813
    31  H    0.223269
    32  N    0.488084
    33  O   -0.460471
    34  O   -0.460426
 Sum of Mulliken charges =  -0.00000

 Dipole moment (field-independent basis, Debye):
    X=             -4.5087    Y=             -2.5722    Z=              0.0754  Tot=              5.1914
 Quadrupole moment (field-independent basis, Debye-Ang):
   XX=           -124.9418   YY=            -93.9789   ZZ=            -88.7627
   XY=             -6.9457   XZ=              0.4165   YZ=             -0.0471

 Normal termination of Gaussian 16 at Thu May  6 07:20:09 2021.
