 Gaussian 16, Revision A.03,
 Gaussian 16:  EM64L-G16RevA.03 25-Dec-2016

 -------------
 #p 6-31g* mp2
 -------------

 ------------------------------------------------------
 Input file generated by CHIRIPA (05-May-2021 14:57:23)
 ------------------------------------------------------
 Symbolic Z-matrix:
 Charge =  0 Multiplicity = 1

                         Standard orientation:
 ---------------------------------------------------------------------
 Center     Atomic      Atomic             Coordinates (Angstroms)
 Number     Number       Type             X           Y           Z
 ---------------------------------------------------------------------
      1          6           0        6.200706    0.905709   -0.389197
      2          6           0        5.374296    0.558748   -1.463062
      3          6           0        4.112180    0.001674   -1.236613
      4          6           0        3.706487   -0.195542    0.082405
      5          6           0        4.506889    0.139759    1.173377
      6          6           0        5.765133    0.695477    0.923281
      7          1           0        7.179644    1.337931   -0.574293
      8          1           0        5.709952    0.720884   -2.483401
      9          1           0        3.452133   -0.276095   -2.049386
     10          1           0        4.144730   -0.033798    2.179427
     11          1           0        6.404809    0.963971    1.759206
     12          7           0        2.372391   -0.784574    0.334654
     13          8           0        2.038244   -0.948248    1.506060
     14          8           0        1.686135   -1.071429   -0.643816
     15          6           0       -3.430149   -2.372131   -0.166789
     16          6           0       -4.754941   -1.923302   -0.167563
     17          6           0       -5.041649   -0.556727   -0.098125
     18          6           0       -3.974334    0.337310   -0.028655
     19          6           0       -2.643876   -0.078819   -0.025979
     20          6           0       -2.380695   -1.450083   -0.096124
     21          1           0       -3.216566   -3.435540   -0.221004
     22          1           0       -5.571970   -2.637100   -0.222355
     23          1           0       -6.057962   -0.181862   -0.097045
     24          1           0       -1.850586    0.656725    0.029551
     25          1           0       -1.350870   -1.795777   -0.095346
     26          7           0       -4.265405    1.786523    0.045230
     27          8           0       -3.307231    2.553913    0.105665
     28          8           0       -5.446209    2.127586    0.041306
 ---------------------------------------------------------------------

 SCF Done:  E(RHF) =  -868.341085490     A.U. after   16 cycles
 E2 =    -0.2598269032D+01 EUMP2 =    -0.87093935452164D+03

 The electronic state is 1-A.
 Alpha  occ. eigenvalues --  -20.61695 -20.61689 -20.59923 -20.59915 -15.86683
 Alpha  occ. eigenvalues --  -15.84961 -11.31714 -11.30095 -11.28244 -11.28233
 Alpha  occ. eigenvalues --  -11.27925 -11.27181 -11.27171 -11.26679 -11.26492
 Alpha  occ. eigenvalues --  -11.26292 -11.25695 -11.25316  -1.60744  -1.59000
 Alpha  occ. eigenvalues --   -1.40302  -1.38559  -1.19854  -1.18221  -1.09316
 Alpha  occ. eigenvalues --   -1.07667  -1.05205  -1.03550  -0.96206  -0.94547
 Alpha  occ. eigenvalues --   -0.86620  -0.84970  -0.83049  -0.81359  -0.78132
 Alpha  occ. eigenvalues --   -0.76433  -0.72917  -0.72028  -0.71189  -0.70959
 Alpha  occ. eigenvalues --   -0.70318  -0.69348  -0.65511  -0.65207  -0.63857
 Alpha  occ. eigenvalues --   -0.63509  -0.62555  -0.60875  -0.55723  -0.54099
 Alpha  occ. eigenvalues --   -0.53551  -0.53293  -0.51943  -0.51612  -0.49685
 Alpha  occ. eigenvalues --   -0.49652  -0.47954  -0.47918  -0.45776  -0.44016
 Alpha  occ. eigenvalues --   -0.37814  -0.36790  -0.36222  -0.35149
 Alpha virt. eigenvalues --    0.04379   0.06037   0.10870   0.12488   0.15945
 Alpha virt. eigenvalues --    0.17600   0.21034   0.22720   0.26972   0.27878
 Alpha virt. eigenvalues --    0.28805   0.29407   0.30644   0.32073   0.32384

 Mulliken charges:
               1
     1  C   -0.169429
     2  C   -0.218440
     3  C   -0.170076
     4  C    0.157658
     5  C   -0.169909
     6  C   -0.218507
     7  H    0.227857
     8  H    0.225424
     9  H    0.275687
    10  H    0.276565
    11  H    0.225548
    12  N    0.489448
    13  O   -0.458952
    14  O   -0.468544
    15  C   -0.172702
    16  C   -0.218654
    17  C   -0.173863
    18  C    0.157760
    19  C   -0.172828
    20  C   -0.225372
    21  H    0.223500
    22  H    0.218819
    23  H    0.271318
    24  H    0.276988
    25  H    0.249109
    26  N    0.488166
    27  O   -0.462346
    28  O   -0.464227
 Sum of Mulliken charges =  -0.00000

 Dipole moment (field-independent basis, Debye):
    X=              6.3866    Y=             -3.0579    Z=             -1.1168  Tot=              7.1684
 Quadrupole moment (field-independent basis, Debye-Ang):
   XX=            -74.3374   YY=           -110.5598   ZZ=           -100.8380
   XY=             29.2212   XZ=             -0.8990   YZ=              0.7017

 Normal termination of Gaussian 16 at Fri May  7 09:27:19 2021.
