 Gaussian 16, Revision A.03,
 Gaussian 16:  EM64L-G16RevA.03 25-Dec-2016

 -------------
 #p 6-31g* mp2
 -------------

 ------------------------------------------------------
 Input file generated by CHIRIPA (05-May-2021 14:57:22)
 ------------------------------------------------------
 Symbolic Z-matrix:
 Charge =  0 Multiplicity = 1

                         Standard orientation:
 ---------------------------------------------------------------------
 Center     Atomic      Atomic             Coordinates (Angstroms)
 Number     Number       Type             X           Y           Z
 ---------------------------------------------------------------------
      1          6           0        2.022564    2.450370    0.878752
      2          6           0        3.081248    2.485918   -0.034728
      3          6           0        3.703655    1.303746   -0.446585
      4          6           0        3.239742    0.098181    0.077522
      5          6           0        2.187256    0.030032    0.989069
      6          6           0        1.579728    1.224702    1.386840
      7          1           0        1.544842    3.373565    1.193221
      8          1           0        3.427260    3.436346   -0.430970
      9          1           0        4.525287    1.302384   -1.152514
     10          1           0        1.864460   -0.932604    1.366631
     11          1           0        0.757753    1.194068    2.096392
     12          7           0        3.890781   -1.159947   -0.351036
     13          8           0        3.463394   -2.209217    0.125421
     14          8           0        4.816125   -1.072976   -1.155281
     15          6           0       -0.963767   -1.583958    0.020376
     16          6           0       -2.119222   -2.081968    0.631465
     17          6           0       -3.326342   -1.382063    0.544604
     18          6           0       -3.342103   -0.181942   -0.164447
     19          6           0       -2.207806    0.340225   -0.784124
     20          6           0       -1.011662   -0.376580   -0.684227
     21          1           0       -0.030312   -2.134226    0.092916
     22          1           0       -2.084983   -3.019373    1.179320
     23          1           0       -4.235778   -1.744675    1.008127
     24          1           0       -2.273082    1.277426   -1.323395
     25          1           0       -0.115884    0.012585   -1.159807
     26          7           0       -4.614216    0.567961   -0.263304
     27          8           0       -4.601808    1.622948   -0.893768
     28          8           0       -5.599619    0.086550    0.291549
 ---------------------------------------------------------------------

 SCF Done:  E(RHF) =  -868.337812071     A.U. after   16 cycles
 E2 =    -0.2602245967D+01 EUMP2 =    -0.87094005803808D+03

 The electronic state is 1-A.
 Alpha  occ. eigenvalues --  -20.61794 -20.61751 -20.61045 -20.61037 -15.86814
 Alpha  occ. eigenvalues --  -15.86094 -11.32152 -11.31461 -11.28688 -11.28619
 Alpha  occ. eigenvalues --  -11.28295 -11.27985 -11.27981 -11.27643 -11.27620
 Alpha  occ. eigenvalues --  -11.27606 -11.27001 -11.26950  -1.60842  -1.60120
 Alpha  occ. eigenvalues --   -1.40399  -1.39673  -1.20295  -1.19611  -1.09667
 Alpha  occ. eigenvalues --   -1.09003  -1.05668  -1.04993  -0.96520  -0.95835
 Alpha  occ. eigenvalues --   -0.87051  -0.86388  -0.83332  -0.82662  -0.78419
 Alpha  occ. eigenvalues --   -0.77721  -0.73022  -0.72310  -0.72174  -0.71446
 Alpha  occ. eigenvalues --   -0.71397  -0.70635  -0.65907  -0.65615  -0.65240
 Alpha  occ. eigenvalues --   -0.64982  -0.62998  -0.62345  -0.56124  -0.55438
 Alpha  occ. eigenvalues --   -0.54158  -0.53684  -0.53293  -0.52974  -0.49796
 Alpha  occ. eigenvalues --   -0.49765  -0.49069  -0.49062  -0.45803  -0.45078
 Alpha  occ. eigenvalues --   -0.38269  -0.37970  -0.37139  -0.36313
 Alpha virt. eigenvalues --    0.04035   0.04783   0.10282   0.11029   0.15649
 Alpha virt. eigenvalues --    0.16205   0.20264   0.21544   0.25823   0.27076
 Alpha virt. eigenvalues --    0.27095   0.28614   0.30106   0.30837   0.32179

 Mulliken charges:
               1
     1  C   -0.173857
     2  C   -0.218454
     3  C   -0.172445
     4  C    0.156463
     5  C   -0.180434
     6  C   -0.215072
     7  H    0.230900
     8  H    0.227580
     9  H    0.278098
    10  H    0.271726
    11  H    0.230107
    12  N    0.488789
    13  O   -0.465874
    14  O   -0.454815
    15  C   -0.185237
    16  C   -0.219456
    17  C   -0.172259
    18  C    0.158530
    19  C   -0.175696
    20  C   -0.216863
    21  H    0.236438
    22  H    0.226043
    23  H    0.276089
    24  H    0.274218
    25  H    0.228175
    26  N    0.487942
    27  O   -0.461151
    28  O   -0.459483
 Sum of Mulliken charges =  -0.00000

 Dipole moment (field-independent basis, Debye):
    X=              2.3468    Y=              1.9302    Z=              1.8711  Tot=              3.5685
 Quadrupole moment (field-independent basis, Debye-Ang):
   XX=           -147.3536   YY=            -99.4541   ZZ=           -102.4813
   XY=             26.4835   XZ=             -0.8321   YZ=             -2.9256

 Normal termination of Gaussian 16 at Wed May  5 22:35:55 2021.
