 Gaussian 16, Revision A.03,
 Gaussian 16:  EM64L-G16RevA.03 25-Dec-2016

 -------------
 #p 6-31g* mp2
 -------------

 ------------------------------------------------------
 Input file generated by CHIRIPA (05-May-2021 14:53:14)
 ------------------------------------------------------
 Symbolic Z-matrix:
 Charge =  0 Multiplicity = 1

                         Standard orientation:
 ---------------------------------------------------------------------
 Center     Atomic      Atomic             Coordinates (Angstroms)
 Number     Number       Type             X           Y           Z
 ---------------------------------------------------------------------
      1          6           0       -2.092294    0.644306   -0.386939
      2          6           0       -2.697039    1.946309   -0.913301
      3          6           0       -1.710173    3.113600   -0.876986
      4          1           0       -1.743570    0.799579    0.643220
      5          1           0       -1.204048    0.393393   -0.983142
      6          1           0       -3.584680    2.193961   -0.317166
      7          1           0       -3.044537    1.787864   -1.942260
      8          1           0       -0.828524    2.891808   -1.486991
      9          1           0       -1.371737    3.300212    0.147337
     10          1           0       -2.163209    4.034316   -1.257644
     11          6           0       -3.066709   -0.531851   -0.416900
     12          6           0       -2.461964   -1.833854    0.109462
     13          6           0       -3.448830   -3.001145    0.073147
     14          1           0       -3.954955   -0.280938    0.179302
     15          1           0       -3.415433   -0.687124   -1.447059
     16          1           0       -2.114465   -1.675409    1.138421
     17          1           0       -1.574322   -2.081506   -0.486673
     18          1           0       -3.787266   -3.187757   -0.951176
     19          1           0       -4.330478   -2.779353    0.683151
     20          1           0       -2.995794   -3.921861    0.453805
     21          6           0        0.639808    1.171586    2.045083
     22          6           0        1.360859    1.895236    1.089607
     23          6           0        2.126327    1.232252    0.125731
     24          6           0        2.148207   -0.161439    0.146645
     25          6           0        1.440690   -0.910537    1.085561
     26          6           0        0.681951   -0.226527    2.040020
     27          1           0        0.047787    1.694775    2.790188
     28          1           0        1.329991    2.981096    1.091139
     29          1           0        2.694146    1.767678   -0.625480
     30          1           0        1.491059   -1.992278    1.058734
     31          1           0        0.122979   -0.791125    2.780848
     32          7           0        2.955012   -0.874441   -0.868783
     33          8           0        2.957743   -2.102874   -0.828999
     34          8           0        3.569378   -0.191358   -1.685233
 ---------------------------------------------------------------------

 SCF Done:  E(RHF) =  -669.533483173     A.U. after   15 cycles
 E2 =    -0.2096166864D+01 EUMP2 =    -0.67162965003722D+03

 The electronic state is 1-A.
 Alpha  occ. eigenvalues --  -20.60816 -20.60811 -15.85870 -11.31243 -11.27803
 Alpha  occ. eigenvalues --  -11.27790 -11.27503 -11.26794 -11.26783 -11.21931
 Alpha  occ. eigenvalues --  -11.21921 -11.21630 -11.21565 -11.21479 -11.21325
 Alpha  occ. eigenvalues --   -1.59893  -1.39445  -1.19410  -1.08861  -1.08658
 Alpha  occ. eigenvalues --   -1.04806  -1.03860  -0.96304  -0.95645  -0.87332
 Alpha  occ. eigenvalues --   -0.86207  -0.82468  -0.79935  -0.78538  -0.77508
 Alpha  occ. eigenvalues --   -0.72086  -0.71217  -0.70527  -0.65381  -0.65061
 Alpha  occ. eigenvalues --   -0.64790  -0.62161  -0.61270  -0.59673  -0.57927
 Alpha  occ. eigenvalues --   -0.55609  -0.55317  -0.53394  -0.52927  -0.52914
 Alpha  occ. eigenvalues --   -0.52674  -0.50264  -0.48845  -0.48841  -0.48252
 Alpha  occ. eigenvalues --   -0.46975  -0.46059  -0.45918  -0.44849  -0.44078
 Alpha  occ. eigenvalues --   -0.37213  -0.36336
 Alpha virt. eigenvalues --    0.04960   0.11075   0.16345   0.20304   0.22971
 Alpha virt. eigenvalues --    0.23424   0.25978   0.26263   0.27469   0.27925
 Alpha virt. eigenvalues --    0.28845   0.30056   0.30779   0.31669   0.31955

 Mulliken charges:
               1
     1  C   -0.300019
     2  C   -0.299766
     3  C   -0.473606
     4  H    0.149803
     5  H    0.152629
     6  H    0.150030
     7  H    0.154176
     8  H    0.156406
     9  H    0.144908
    10  H    0.160766
    11  C   -0.298347
    12  C   -0.299650
    13  C   -0.475788
    14  H    0.147248
    15  H    0.151651
    16  H    0.142520
    17  H    0.156108
    18  H    0.158170
    19  H    0.154113
    20  H    0.160142
    21  C   -0.175202
    22  C   -0.210798
    23  C   -0.173394
    24  C    0.158187
    25  C   -0.169188
    26  C   -0.213522
    27  H    0.225348
    28  H    0.224704
    29  H    0.275779
    30  H    0.275977
    31  H    0.223513
    32  N    0.487824
    33  O   -0.460338
    34  O   -0.460383
 Sum of Mulliken charges =  -0.00000

 Dipole moment (field-independent basis, Debye):
    X=             -2.7633    Y=              2.4755    Z=              3.5332  Tot=              5.1232
 Quadrupole moment (field-independent basis, Debye-Ang):
   XX=           -107.8431   YY=            -92.9245   ZZ=            -92.5954
   XY=              6.8302   XZ=              6.6119   YZ=             -1.8150

 Normal termination of Gaussian 16 at Wed May  5 23:26:25 2021.
