 Gaussian 16, Revision A.03,
 Gaussian 16:  EM64L-G16RevA.03 25-Dec-2016

 -------------
 #p 6-31g* mp2
 -------------

 ------------------------------------------------------
 Input file generated by CHIRIPA (05-May-2021 14:57:24)
 ------------------------------------------------------
 Symbolic Z-matrix:
 Charge =  0 Multiplicity = 1

                         Standard orientation:
 ---------------------------------------------------------------------
 Center     Atomic      Atomic             Coordinates (Angstroms)
 Number     Number       Type             X           Y           Z
 ---------------------------------------------------------------------
      1          6           0        3.071886    2.461879    0.754142
      2          6           0        3.619241    2.098063   -0.480589
      3          6           0        3.628386    0.760326   -0.886699
      4          6           0        3.079288   -0.191876   -0.029324
      5          6           0        2.526610    0.139161    1.206900
      6          6           0        2.528276    1.482992    1.592468
      7          1           0        3.068980    3.503432    1.061639
      8          1           0        4.042108    2.856144   -1.133691
      9          1           0        4.045658    0.450929   -1.837265
     10          1           0        2.112371   -0.639031    1.836378
     11          1           0        2.102514    1.762629    2.551935
     12          7           0        3.083247   -1.611304   -0.448381
     13          8           0        2.593331   -2.431200    0.325175
     14          8           0        3.576191   -1.877078   -1.542460
     15          6           0       -2.580770   -2.458203    0.489709
     16          6           0       -1.537705   -1.529607    0.410681
     17          6           0       -1.801860   -0.188301    0.117992
     18          6           0       -3.126767    0.191521   -0.090927
     19          6           0       -4.187653   -0.709949   -0.019075
     20          6           0       -3.900089   -2.046137    0.274958
     21          1           0       -2.366474   -3.498175    0.717598
     22          1           0       -0.512138   -1.846781    0.576993
     23          1           0       -1.013461    0.551513    0.050734
     24          1           0       -5.199818   -0.363824   -0.189778
     25          1           0       -4.712150   -2.765104    0.335695
     26          7           0       -3.418808    1.608793   -0.401494
     27          8           0       -4.594639    1.918130   -0.581402
     28          8           0       -2.466347    2.383477   -0.459129
 ---------------------------------------------------------------------

 SCF Done:  E(RHF) =  -868.340177032     A.U. after   16 cycles
 E2 =    -0.2599418389D+01 EUMP2 =    -0.87093959542081D+03

 The electronic state is 1-A.
 Alpha  occ. eigenvalues --  -20.61603 -20.61536 -20.60739 -20.60723 -15.86584
 Alpha  occ. eigenvalues --  -15.85780 -11.31751 -11.30996 -11.28331 -11.28219
 Alpha  occ. eigenvalues --  -11.27886 -11.27545 -11.27514 -11.27235 -11.27183
 Alpha  occ. eigenvalues --  -11.27166 -11.26522 -11.26391  -1.60624  -1.59812
 Alpha  occ. eigenvalues --   -1.40187  -1.39370  -1.19880  -1.19135  -1.09291
 Alpha  occ. eigenvalues --   -1.08544  -1.05244  -1.04511  -0.96167  -0.95414
 Alpha  occ. eigenvalues --   -0.86641  -0.85901  -0.83006  -0.82251  -0.78104
 Alpha  occ. eigenvalues --   -0.77327  -0.72802  -0.72004  -0.71934  -0.71132
 Alpha  occ. eigenvalues --   -0.70942  -0.70220  -0.65520  -0.65217  -0.64778
 Alpha  occ. eigenvalues --   -0.64471  -0.62599  -0.61847  -0.55692  -0.54976
 Alpha  occ. eigenvalues --   -0.53581  -0.53314  -0.52857  -0.52571  -0.49580
 Alpha  occ. eigenvalues --   -0.49535  -0.48768  -0.48742  -0.45617  -0.44810
 Alpha  occ. eigenvalues --   -0.37804  -0.37091  -0.36847  -0.36120
 Alpha virt. eigenvalues --    0.04368   0.05187   0.10752   0.11539   0.15929
 Alpha virt. eigenvalues --    0.16727   0.20695   0.21887   0.26078   0.27379
 Alpha virt. eigenvalues --    0.28373   0.28631   0.30088   0.31322   0.32263

 Mulliken charges:
               1
     1  C   -0.167749
     2  C   -0.216892
     3  C   -0.170128
     4  C    0.157560
     5  C   -0.179888
     6  C   -0.218042
     7  H    0.230980
     8  H    0.227458
     9  H    0.277285
    10  H    0.272002
    11  H    0.227219
    12  N    0.488669
    13  O   -0.468455
    14  O   -0.453977
    15  C   -0.171220
    16  C   -0.227221
    17  C   -0.175352
    18  C    0.158633
    19  C   -0.171908
    20  C   -0.218578
    21  H    0.229512
    22  H    0.236700
    23  H    0.272650
    24  H    0.274331
    25  H    0.223021
    26  N    0.488220
    27  O   -0.460767
    28  O   -0.464062
 Sum of Mulliken charges =  -0.00000

 Dipole moment (field-independent basis, Debye):
    X=              1.3167    Y=              0.1085    Z=              2.5101  Tot=              2.8366
 Quadrupole moment (field-independent basis, Debye-Ang):
   XX=           -105.7041   YY=           -108.6404   ZZ=           -102.3246
   XY=             34.2558   XZ=             -1.1530   YZ=             -0.7565

 Normal termination of Gaussian 16 at Thu May  6 21:14:32 2021.
