 Gaussian 16, Revision A.03,
 Gaussian 16:  EM64L-G16RevA.03 25-Dec-2016

 -------------
 #p 6-31g* mp2
 -------------

 ------------------------------------------------------
 Input file generated by CHIRIPA (05-May-2021 14:53:18)
 ------------------------------------------------------
 Symbolic Z-matrix:
 Charge =  0 Multiplicity = 1

                         Standard orientation:
 ---------------------------------------------------------------------
 Center     Atomic      Atomic             Coordinates (Angstroms)
 Number     Number       Type             X           Y           Z
 ---------------------------------------------------------------------
      1          6           0        3.197768   -0.570296   -0.259751
      2          6           0        4.104923   -1.796969   -0.361378
      3          6           0        3.321275   -3.100185   -0.520496
      4          1           0        2.515772   -0.696090    0.592307
      5          1           0        2.568019   -0.513167   -1.158388
      6          1           0        4.733749   -1.850992    0.536550
      7          1           0        4.784967   -1.668155   -1.213177
      8          1           0        2.706173   -3.071761   -1.425727
      9          1           0        2.654664   -3.255637    0.333942
     10          1           0        3.989289   -3.964253   -0.591233
     11          6           0        3.966536    0.740163   -0.100311
     12          6           0        3.059381    1.966836    0.001315
     13          6           0        3.843029    3.270051    0.160434
     14          1           0        4.596285    0.683034    0.798325
     15          1           0        4.648531    0.865956   -0.952370
     16          1           0        2.379336    1.838021    0.853115
     17          1           0        2.430554    2.020859   -0.896613
     18          1           0        4.509640    3.425504   -0.694005
     19          1           0        4.458131    3.241627    1.065664
     20          1           0        3.175015    4.134119    0.231170
     21          6           0       -1.536558   -0.528330    2.276033
     22          6           0       -0.887034   -0.635569    1.041878
     23          6           0       -1.576383   -0.381929   -0.147665
     24          6           0       -2.920561   -0.021692   -0.065791
     25          6           0       -3.595497    0.093556    1.148486
     26          6           0       -2.886337   -0.164751    2.325312
     27          1           0       -0.993361   -0.727177    3.195158
     28          1           0        0.161163   -0.917744    1.000576
     29          1           0       -1.098071   -0.457535   -1.116645
     30          1           0       -4.641014    0.376798    1.157715
     31          1           0       -3.393337   -0.080690    3.282354
     32          7           0       -3.660831    0.249296   -1.318375
     33          8           0       -4.844528    0.565013   -1.219277
     34          8           0       -3.043340    0.140849   -2.375533
 ---------------------------------------------------------------------

 SCF Done:  E(RHF) =  -669.535629395     A.U. after   15 cycles
 E2 =    -0.2091440242D+01 EUMP2 =    -0.67162706963714D+03

 The electronic state is 1-A.
 Alpha  occ. eigenvalues --  -20.60718 -20.60713 -15.85770 -11.31120 -11.27691
 Alpha  occ. eigenvalues --  -11.27672 -11.27428 -11.26709 -11.26646 -11.22363
 Alpha  occ. eigenvalues --  -11.22301 -11.22159 -11.22033 -11.21783 -11.21485
 Alpha  occ. eigenvalues --   -1.59794  -1.39348  -1.19289  -1.09161  -1.08690
 Alpha  occ. eigenvalues --   -1.04685  -1.04162  -0.96625  -0.95528  -0.87635
 Alpha  occ. eigenvalues --   -0.86091  -0.82359  -0.80235  -0.79012  -0.77398
 Alpha  occ. eigenvalues --   -0.71990  -0.71116  -0.70406  -0.65817  -0.64940
 Alpha  occ. eigenvalues --   -0.64678  -0.62046  -0.61545  -0.59990  -0.58235
 Alpha  occ. eigenvalues --   -0.55923  -0.55200  -0.53278  -0.53088  -0.53019
 Alpha  occ. eigenvalues --   -0.52752  -0.50561  -0.48756  -0.48745  -0.48538
 Alpha  occ. eigenvalues --   -0.47272  -0.46503  -0.46434  -0.44757  -0.44451
 Alpha  occ. eigenvalues --   -0.37276  -0.36284
 Alpha virt. eigenvalues --    0.05122   0.11334   0.16596   0.19647   0.22730
 Alpha virt. eigenvalues --    0.23626   0.24769   0.25698   0.27353   0.28483
 Alpha virt. eigenvalues --    0.29509   0.30309   0.31279   0.31301   0.31862

 Mulliken charges:
               1
     1  C   -0.304027
     2  C   -0.299460
     3  C   -0.476968
     4  H    0.142079
     5  H    0.150533
     6  H    0.153290
     7  H    0.156416
     8  H    0.157396
     9  H    0.150233
    10  H    0.164541
    11  C   -0.297896
    12  C   -0.300798
    13  C   -0.476179
    14  H    0.150441
    15  H    0.153666
    16  H    0.148916
    17  H    0.154645
    18  H    0.157226
    19  H    0.155046
    20  H    0.162871
    21  C   -0.172959
    22  C   -0.224821
    23  C   -0.173529
    24  C    0.158763
    25  C   -0.171309
    26  C   -0.218438
    27  H    0.225215
    28  H    0.234315
    29  H    0.275747
    30  H    0.275295
    31  H    0.223020
    32  N    0.488131
    33  O   -0.460713
    34  O   -0.460689
 Sum of Mulliken charges =  -0.00000

 Dipole moment (field-independent basis, Debye):
    X=              2.8238    Y=             -0.9164    Z=              4.3324  Tot=              5.2520
 Quadrupole moment (field-independent basis, Debye-Ang):
   XX=           -106.2306   YY=            -96.0592   ZZ=            -93.3565
   XY=              1.3861   XZ=            -16.0527   YZ=              0.3785

 Normal termination of Gaussian 16 at Wed May  5 17:17:37 2021.
