 Gaussian 16, Revision A.03,
 Gaussian 16:  EM64L-G16RevA.03 25-Dec-2016

 -------------
 #p 6-31g* mp2
 -------------

 ------------------------------------------------------
 Input file generated by CHIRIPA (05-May-2021 14:55:19)
 ------------------------------------------------------
 Symbolic Z-matrix:
 Charge =  0 Multiplicity = 1

                         Standard orientation:
 ---------------------------------------------------------------------
 Center     Atomic      Atomic             Coordinates (Angstroms)
 Number     Number       Type             X           Y           Z
 ---------------------------------------------------------------------
      1          6           0        1.401565   -0.247328    2.272606
      2          6           0        2.795278   -0.140636    2.324577
      3          6           0        3.549050   -0.105445    1.147659
      4          6           0        2.873442   -0.179432   -0.069456
      5          6           0        1.486098   -0.286250   -0.154052
      6          6           0        0.752567   -0.319666    1.035638
      7          1           0        0.823878   -0.273975    3.191826
      8          1           0        3.301980   -0.084279    3.283807
      9          1           0        4.629117   -0.023305    1.158937
     10          1           0        1.009251   -0.340564   -1.125178
     11          1           0       -0.329694   -0.402573    0.992242
     12          7           0        3.660713   -0.143116   -1.322167
     13          8           0        3.041643   -0.209873   -2.381853
     14          8           0        4.881938   -0.048582   -1.220637
     15          6           0       -3.580749    0.958830   -0.416484
     16          6           0       -2.603102    1.920191    0.260258
     17          6           0       -2.753004    3.359787   -0.232577
     18          1           0       -3.426095    0.993716   -1.503595
     19          1           0       -4.608098    1.304168   -0.235680
     20          1           0       -1.577954    1.572374    0.079396
     21          1           0       -2.759971    1.882870    1.345898
     22          1           0       -3.764595    3.730328   -0.037686
     23          1           0       -2.575863    3.418068   -1.311384
     24          1           0       -2.044615    4.030025    0.264241
     25          6           0       -3.443098   -0.484163    0.065749
     26          6           0       -4.420744   -1.445524   -0.610993
     27          6           0       -4.270843   -2.885120   -0.118159
     28          1           0       -2.415748   -0.829500   -0.115055
     29          1           0       -3.597752   -0.519048    1.152860
     30          1           0       -4.263876   -1.408203   -1.696633
     31          1           0       -5.445892   -1.097707   -0.430131
     32          1           0       -4.447985   -2.943401    0.960648
     33          1           0       -3.259251   -3.255662   -0.313049
     34          1           0       -4.979232   -3.555357   -0.614976
 ---------------------------------------------------------------------

 SCF Done:  E(RHF) =  -669.535206753     A.U. after   15 cycles
 E2 =    -0.2092313591D+01 EUMP2 =    -0.67162752034322D+03

 The electronic state is 1-A.
 Alpha  occ. eigenvalues --  -20.60744 -20.60739 -15.85797 -11.31156 -11.27723
 Alpha  occ. eigenvalues --  -11.27717 -11.27442 -11.26737 -11.26652 -11.22385
 Alpha  occ. eigenvalues --  -11.22368 -11.22276 -11.22116 -11.21670 -11.21596
 Alpha  occ. eigenvalues --   -1.59820  -1.39374  -1.19322  -1.09232  -1.08713
 Alpha  occ. eigenvalues --   -1.04726  -1.04212  -0.96658  -0.95554  -0.87668
 Alpha  occ. eigenvalues --   -0.86122  -0.82397  -0.80297  -0.79111  -0.77425
 Alpha  occ. eigenvalues --   -0.72015  -0.71143  -0.70429  -0.65915  -0.64969
 Alpha  occ. eigenvalues --   -0.64691  -0.62086  -0.61595  -0.60023  -0.58281
 Alpha  occ. eigenvalues --   -0.55944  -0.55219  -0.53334  -0.53119  -0.53026
 Alpha  occ. eigenvalues --   -0.52804  -0.50594  -0.48780  -0.48772  -0.48604
 Alpha  occ. eigenvalues --   -0.47335  -0.46551  -0.46497  -0.44781  -0.44503
 Alpha  occ. eigenvalues --   -0.37294  -0.36309
 Alpha virt. eigenvalues --    0.05073   0.11298   0.16469   0.19794   0.22649
 Alpha virt. eigenvalues --    0.23734   0.24736   0.25955   0.27281   0.28299
 Alpha virt. eigenvalues --    0.29657   0.30775   0.31154   0.31379   0.31973

 Mulliken charges:
               1
     1  C   -0.173336
     2  C   -0.218385
     3  C   -0.171141
     4  C    0.158799
     5  C   -0.174929
     6  C   -0.224620
     7  H    0.226268
     8  H    0.223222
     9  H    0.275477
    10  H    0.274385
    11  H    0.237043
    12  N    0.488150
    13  O   -0.460675
    14  O   -0.460562
    15  C   -0.298646
    16  C   -0.304697
    17  C   -0.475832
    18  H    0.153439
    19  H    0.153162
    20  H    0.149805
    21  H    0.149513
    22  H    0.156745
    23  H    0.158737
    24  H    0.162543
    25  C   -0.303410
    26  C   -0.299577
    27  C   -0.476643
    28  H    0.142418
    29  H    0.148609
    30  H    0.155483
    31  H    0.154982
    32  H    0.154632
    33  H    0.155152
    34  H    0.163888
 Sum of Mulliken charges =  -0.00000

 Dipole moment (field-independent basis, Debye):
    X=             -2.9708    Y=             -0.0864    Z=              4.3670  Tot=              5.2824
 Quadrupole moment (field-independent basis, Debye-Ang):
   XX=           -106.0310   YY=            -96.2973   ZZ=            -93.8530
   XY=              0.3409   XZ=             15.3706   YZ=             -0.1833

 Normal termination of Gaussian 16 at Wed May  5 17:21:21 2021.
