 Gaussian 16, Revision A.03,
 Gaussian 16:  EM64L-G16RevA.03 25-Dec-2016

 -------------
 #p 6-31g* mp2
 -------------

 ------------------------------------------------------
 Input file generated by CHIRIPA (05-May-2021 14:51:11)
 ------------------------------------------------------
 Symbolic Z-matrix:
 Charge =  0 Multiplicity = 1

                         Standard orientation:
 ---------------------------------------------------------------------
 Center     Atomic      Atomic             Coordinates (Angstroms)
 Number     Number       Type             X           Y           Z
 ---------------------------------------------------------------------
      1          6           0       -2.877169   -1.000966   -0.060120
      2          6           0       -1.394255   -0.641097   -0.157301
      3          6           0       -0.489070   -1.872398   -0.205613
      4          1           0       -3.041203   -1.613827    0.836785
      5          1           0       -3.152735   -1.626244   -0.920636
      6          1           0       -1.121895   -0.015537    0.702414
      7          1           0       -1.233764   -0.028862   -1.053976
      8          1           0       -0.732373   -2.495631   -1.072207
      9          1           0       -0.619869   -2.482230    0.694163
     10          1           0        0.566623   -1.592113   -0.274980
     11          6           0       -3.794763    0.219415   -0.010935
     12          6           0       -5.277678   -0.140455    0.086246
     13          6           0       -6.182862    1.090846    0.134558
     14          1           0       -3.519198    0.844692    0.849581
     15          1           0       -3.630729    0.832275   -0.907840
     16          1           0       -5.438168   -0.752690    0.982921
     17          1           0       -5.550037   -0.766015   -0.773469
     18          1           0       -6.052064    1.700678   -0.765218
     19          1           0       -5.939559    1.714079    1.001152
     20          1           0       -7.238556    0.810561    0.203925
     21          6           0        3.441164   -0.256025    0.427974
     22          6           0        3.649020   -1.479922   -0.464694
     23          6           0        3.858123   -2.766220    0.334998
     24          1           0        4.310536   -0.140844    1.089692
     25          1           0        2.573316   -0.429090    1.079346
     26          1           0        4.515380   -1.304035   -1.115155
     27          1           0        2.779138   -1.592090   -1.124497
     28          1           0        2.991217   -2.968937    0.972165
     29          1           0        4.737325   -2.679245    0.981559
     30          1           0        4.004731   -3.628564   -0.322823
     31          6           0        3.230769    1.037576   -0.356920
     32          6           0        3.022913    2.261474    0.535749
     33          6           0        2.813809    3.547772   -0.263943
     34          1           0        4.098616    1.210642   -1.008291
     35          1           0        2.361396    0.922396   -1.018638
     36          1           0        3.892795    2.373642    1.195552
     37          1           0        2.156552    2.085587    1.186211
     38          1           0        1.934608    3.460797   -0.910505
     39          1           0        3.680715    3.750489   -0.901110
     40          1           0        2.667201    4.410116    0.393877
 ---------------------------------------------------------------------

 SCF Done:  E(RHF) =  -470.733110335     A.U. after   11 cycles
 E2 =    -0.1583352913D+01 EUMP2 =    -0.47231646324749D+03

 The electronic state is 1-A.
 Alpha  occ. eigenvalues --  -11.21676 -11.21628 -11.21596 -11.21583 -11.21448
 Alpha  occ. eigenvalues --  -11.21403 -11.21387 -11.21344 -11.21111 -11.21091
 Alpha  occ. eigenvalues --  -11.21062 -11.21037  -1.08483  -1.08425  -1.03591
 Alpha  occ. eigenvalues --   -1.03508  -0.96026  -0.95966  -0.87059  -0.86970
 Alpha  occ. eigenvalues --   -0.79651  -0.79573  -0.78286  -0.78243  -0.65136
 Alpha  occ. eigenvalues --   -0.65099  -0.61020  -0.60971  -0.59342  -0.59312
 Alpha  occ. eigenvalues --   -0.57619  -0.57572  -0.55308  -0.55255  -0.52729
 Alpha  occ. eigenvalues --   -0.52650  -0.52447  -0.52388  -0.49969  -0.49898
 Alpha  occ. eigenvalues --   -0.48006  -0.47842  -0.46703  -0.46588  -0.45829
 Alpha  occ. eigenvalues --   -0.45773  -0.45758  -0.45706  -0.43801  -0.43769
 Alpha virt. eigenvalues --    0.20152   0.23084   0.23882   0.24915   0.26235
 Alpha virt. eigenvalues --    0.26422   0.27275   0.27377   0.27971   0.29275
 Alpha virt. eigenvalues --    0.30657   0.31292   0.31736   0.31885   0.32245

 Mulliken charges:
               1
     1  C   -0.298488
     2  C   -0.299303
     3  C   -0.486148
     4  H    0.149855
     5  H    0.149775
     6  H    0.151528
     7  H    0.151625
     8  H    0.155485
     9  H    0.155227
    10  H    0.171190
    11  C   -0.298285
    12  C   -0.299684
    13  C   -0.475736
    14  H    0.149552
    15  H    0.149671
    16  H    0.152011
    17  H    0.152003
    18  H    0.155231
    19  H    0.155233
    20  H    0.160359
    21  C   -0.301001
    22  C   -0.303621
    23  C   -0.476342
    24  H    0.150306
    25  H    0.150831
    26  H    0.152858
    27  H    0.153745
    28  H    0.156524
    29  H    0.155038
    30  H    0.160390
    31  C   -0.298841
    32  C   -0.299525
    33  C   -0.475747
    34  H    0.149667
    35  H    0.150017
    36  H    0.151867
    37  H    0.152029
    38  H    0.155406
    39  H    0.155090
    40  H    0.160207
 Sum of Mulliken charges =  -0.00000

 Dipole moment (field-independent basis, Debye):
    X=             -0.0063    Y=             -0.0063    Z=             -0.0004  Tot=              0.0089
 Quadrupole moment (field-independent basis, Debye-Ang):
   XX=            -84.3732   YY=            -86.4045   ZZ=            -83.9170
   XY=              0.9475   XZ=              0.0445   YZ=              0.4139

 Normal termination of Gaussian 16 at Wed May  5 16:44:32 2021.
