 Gaussian 16, Revision A.03,
 Gaussian 16:  EM64L-G16RevA.03 25-Dec-2016

 -------------
 #p 6-31g* mp2
 -------------

 ------------------------------------------------------
 Input file generated by CHIRIPA (05-May-2021 14:51:08)
 ------------------------------------------------------
 Symbolic Z-matrix:
 Charge =  0 Multiplicity = 1

                         Standard orientation:
 ---------------------------------------------------------------------
 Center     Atomic      Atomic             Coordinates (Angstroms)
 Number     Number       Type             X           Y           Z
 ---------------------------------------------------------------------
      1          6           0       -2.338207   -1.532458   -0.051594
      2          6           0       -1.252723   -1.954989   -1.042137
      3          6           0       -1.015080   -3.465373   -1.049968
      4          1           0       -2.055751   -1.865865    0.956376
      5          1           0       -3.274468   -2.050591   -0.301291
      6          1           0       -0.319146   -1.435157   -0.791487
      7          1           0       -1.537704   -1.620370   -2.047836
      8          1           0       -1.932012   -3.998213   -1.321849
      9          1           0       -0.706531   -3.811948   -0.058361
     10          1           0       -0.235263   -3.745379   -1.765049
     11          6           0       -2.587249   -0.025364   -0.032221
     12          6           0       -3.672734    0.397167    0.958322
     13          6           0       -3.910376    1.907551    0.966153
     14          1           0       -1.650989    0.492769    0.217477
     15          1           0       -2.869706    0.308043   -1.040190
     16          1           0       -3.387753    0.062548    1.964022
     17          1           0       -4.606311   -0.122665    0.707672
     18          1           0       -4.218926    2.254126   -0.025453
     19          1           0       -2.993445    2.440391    1.238034
     20          1           0       -4.690194    2.187557    1.681235
     21          6           0        2.561238    0.246443    0.580614
     22          6           0        3.657402   -0.764076    0.241109
     23          6           0        3.842610   -1.822965    1.328420
     24          1           0        2.805009    0.735977    1.533440
     25          1           0        1.614543   -0.288874    0.737455
     26          1           0        4.601448   -0.226878    0.083597
     27          1           0        3.411089   -1.251124   -0.711114
     28          1           0        2.915306   -2.384540    1.481200
     29          1           0        4.112429   -1.354475    2.280427
     30          1           0        4.631009   -2.535018    1.065230
     31          6           0        2.364219    1.311379   -0.496800
     32          6           0        1.268055    2.321898   -0.157295
     33          6           0        1.082846    3.380787   -1.244606
     34          1           0        3.310914    1.846696   -0.653641
     35          1           0        2.120447    0.821845   -1.449625
     36          1           0        1.514367    2.808946    0.794929
     37          1           0        0.324009    1.784700    0.000218
     38          1           0        0.813028    2.912297   -2.196612
     39          1           0        2.010150    3.942362   -1.397386
     40          1           0        0.294448    4.092840   -0.981415
 ---------------------------------------------------------------------

 SCF Done:  E(RHF) =  -470.733279097     A.U. after   11 cycles
 E2 =    -0.1584002888D+01 EUMP2 =    -0.47231728198518D+03

 The electronic state is 1-A.
 Alpha  occ. eigenvalues --  -11.21680 -11.21632 -11.21628 -11.21598 -11.21457
 Alpha  occ. eigenvalues --  -11.21438 -11.21395 -11.21373 -11.21135 -11.21093
 Alpha  occ. eigenvalues --  -11.21087 -11.21061  -1.08504  -1.08440  -1.03582
 Alpha  occ. eigenvalues --   -1.03541  -0.96027  -0.95992  -0.87047  -0.87003
 Alpha  occ. eigenvalues --   -0.79673  -0.79586  -0.78395  -0.78187  -0.65330
 Alpha  occ. eigenvalues --   -0.64892  -0.61057  -0.60873  -0.59404  -0.59351
 Alpha  occ. eigenvalues --   -0.57645  -0.57597  -0.55338  -0.55260  -0.52720
 Alpha  occ. eigenvalues --   -0.52682  -0.52475  -0.52397  -0.50049  -0.49865
 Alpha  occ. eigenvalues --   -0.48038  -0.47880  -0.46832  -0.46591  -0.46224
 Alpha  occ. eigenvalues --   -0.45811  -0.45778  -0.45161  -0.43833  -0.43799
 Alpha virt. eigenvalues --    0.19202   0.22698   0.23632   0.24970   0.25279
 Alpha virt. eigenvalues --    0.26830   0.27138   0.27408   0.28166   0.29594
 Alpha virt. eigenvalues --    0.31453   0.31593   0.31783   0.31862   0.32066

 Mulliken charges:
               1
     1  C   -0.297371
     2  C   -0.304957
     3  C   -0.475534
     4  H    0.149562
     5  H    0.150024
     6  H    0.155381
     7  H    0.152213
     8  H    0.155686
     9  H    0.155122
    10  H    0.160330
    11  C   -0.308747
    12  C   -0.298894
    13  C   -0.476138
    14  H    0.158863
    15  H    0.149711
    16  H    0.152037
    17  H    0.152098
    18  H    0.155247
    19  H    0.155532
    20  H    0.160416
    21  C   -0.302156
    22  C   -0.299743
    23  C   -0.475670
    24  H    0.149906
    25  H    0.151476
    26  H    0.152221
    27  H    0.152273
    28  H    0.154998
    29  H    0.155137
    30  H    0.160493
    31  C   -0.297960
    32  C   -0.309657
    33  C   -0.475001
    34  H    0.149802
    35  H    0.150332
    36  H    0.151668
    37  H    0.160343
    38  H    0.155512
    39  H    0.155059
    40  H    0.160386
 Sum of Mulliken charges =  -0.00000

 Dipole moment (field-independent basis, Debye):
    X=             -0.0129    Y=             -0.0011    Z=             -0.0069  Tot=              0.0147
 Quadrupole moment (field-independent basis, Debye-Ang):
   XX=            -83.8734   YY=            -86.2444   ZZ=            -84.5125
   XY=              1.0054   XZ=              0.6996   YZ=              0.8106

 Normal termination of Gaussian 16 at Wed May  5 21:19:41 2021.
