 Gaussian 16, Revision A.03,
 Gaussian 16:  EM64L-G16RevA.03 25-Dec-2016

 -------------
 #p 6-31g* mp2
 -------------

 ------------------------------------------------------
 Input file generated by CHIRIPA (05-May-2021 14:51:10)
 ------------------------------------------------------
 Symbolic Z-matrix:
 Charge =  0 Multiplicity = 1

                         Standard orientation:
 ---------------------------------------------------------------------
 Center     Atomic      Atomic             Coordinates (Angstroms)
 Number     Number       Type             X           Y           Z
 ---------------------------------------------------------------------
      1          6           0       -2.773079    0.565680    0.265374
      2          6           0       -2.604889    1.652998   -0.796435
      3          6           0       -3.099414    3.020928   -0.325257
      4          1           0       -3.832969    0.497197    0.546247
      5          1           0       -2.227819    0.861240    1.172419
      6          1           0       -3.149161    1.354830   -1.701686
      7          1           0       -1.545305    1.718769   -1.074952
      8          1           0       -2.549215    3.343980    0.564417
      9          1           0       -4.162183    2.977972   -0.065878
     10          1           0       -2.969763    3.783301   -1.099748
     11          6           0       -2.283217   -0.807510   -0.190818
     12          6           0       -2.451407   -1.894828    0.870990
     13          6           0       -1.956882   -3.262757    0.399812
     14          1           0       -2.828477   -1.103070   -1.097863
     15          1           0       -1.223328   -0.739027   -0.471692
     16          1           0       -3.510991   -1.960599    1.149508
     17          1           0       -1.907135   -1.596659    1.776241
     18          1           0       -0.894113   -3.219802    0.140433
     19          1           0       -2.507081   -3.585809   -0.489861
     20          1           0       -2.086533   -4.025131    1.174304
     21          6           0        2.254098    0.825799   -0.144361
     22          6           0        3.032417    1.900819    0.614939
     23          6           0        2.472161    3.305671    0.390670
     24          1           0        2.268446    1.060829   -1.217441
     25          1           0        1.201084    0.855814    0.168139
     26          1           0        4.083927    1.867865    0.302115
     27          1           0        3.016377    1.663098    1.686316
     28          1           0        1.429638    3.361795    0.720208
     29          1           0        2.503253    3.567725   -0.671856
     30          1           0        3.043441    4.058552    0.942639
     31          6           0        2.802198   -0.583969    0.069805
     32          6           0        2.023879   -1.658989   -0.689495
     33          6           0        2.584135   -3.063842   -0.465225
     34          1           0        3.855212   -0.613985   -0.242694
     35          1           0        2.787850   -0.819000    1.142885
     36          1           0        2.039919   -1.421269   -1.760871
     37          1           0        0.972370   -1.626037   -0.376671
     38          1           0        2.553043   -3.325897    0.597301
     39          1           0        3.626658   -3.119965   -0.794764
     40          1           0        2.012855   -3.816723   -1.017194
 ---------------------------------------------------------------------

 SCF Done:  E(RHF) =  -470.732959106     A.U. after   11 cycles
 E2 =    -0.1584427420D+01 EUMP2 =    -0.47231738652610D+03

 The electronic state is 1-A.
 Alpha  occ. eigenvalues --  -11.21666 -11.21647 -11.21616 -11.21586 -11.21485
 Alpha  occ. eigenvalues --  -11.21423 -11.21403 -11.21337 -11.21123 -11.21120
 Alpha  occ. eigenvalues --  -11.21064 -11.21061  -1.08519  -1.08423  -1.03611
 Alpha  occ. eigenvalues --   -1.03517  -0.96049  -0.95971  -0.87062  -0.86989
 Alpha  occ. eigenvalues --   -0.79702  -0.79560  -0.78426  -0.78149  -0.65356
 Alpha  occ. eigenvalues --   -0.64878  -0.61197  -0.60758  -0.59442  -0.59304
 Alpha  occ. eigenvalues --   -0.57691  -0.57553  -0.55422  -0.55176  -0.52732
 Alpha  occ. eigenvalues --   -0.52671  -0.52492  -0.52378  -0.50013  -0.49900
 Alpha  occ. eigenvalues --   -0.48112  -0.47834  -0.46924  -0.46485  -0.46293
 Alpha  occ. eigenvalues --   -0.45816  -0.45751  -0.45076  -0.43847  -0.43780
 Alpha virt. eigenvalues --    0.19703   0.21799   0.23718   0.25138   0.25333
 Alpha virt. eigenvalues --    0.26301   0.26895   0.27303   0.28899   0.30018
 Alpha virt. eigenvalues --    0.30772   0.31466   0.31705   0.31876   0.32188

 Mulliken charges:
               1
     1  C   -0.297331
     2  C   -0.301872
     3  C   -0.475503
     4  H    0.149780
     5  H    0.148457
     6  H    0.152016
     7  H    0.154244
     8  H    0.154698
     9  H    0.155127
    10  H    0.160536
    11  C   -0.307916
    12  C   -0.299102
    13  C   -0.481560
    14  H    0.149832
    15  H    0.158033
    16  H    0.152243
    17  H    0.150920
    18  H    0.160808
    19  H    0.155324
    20  H    0.160336
    21  C   -0.301877
    22  C   -0.299713
    23  C   -0.475858
    24  H    0.150032
    25  H    0.151561
    26  H    0.152433
    27  H    0.152020
    28  H    0.155013
    29  H    0.155442
    30  H    0.160627
    31  C   -0.297509
    32  C   -0.311655
    33  C   -0.475788
    34  H    0.150040
    35  H    0.149494
    36  H    0.152347
    37  H    0.162185
    38  H    0.155331
    39  H    0.155581
    40  H    0.161224
 Sum of Mulliken charges =  -0.00000

 Dipole moment (field-independent basis, Debye):
    X=              0.0355    Y=             -0.0044    Z=             -0.0228  Tot=              0.0424
 Quadrupole moment (field-independent basis, Debye-Ang):
   XX=            -83.6602   YY=            -86.9481   ZZ=            -84.0367
   XY=              0.9098   XZ=             -0.0900   YZ=             -0.1450

 Normal termination of Gaussian 16 at Thu May  6 02:13:17 2021.
