 Gaussian 16, Revision A.03,
 Gaussian 16:  EM64L-G16RevA.03 25-Dec-2016

 -------------
 #p 6-31g* mp2
 -------------

 ------------------------------------------------------
 Input file generated by CHIRIPA (05-May-2021 14:57:22)
 ------------------------------------------------------
 Symbolic Z-matrix:
 Charge =  0 Multiplicity = 1

                         Standard orientation:
 ---------------------------------------------------------------------
 Center     Atomic      Atomic             Coordinates (Angstroms)
 Number     Number       Type             X           Y           Z
 ---------------------------------------------------------------------
      1          6           0       -0.402342   -2.422652    0.584153
      2          6           0       -0.531395   -1.393021    1.522089
      3          6           0       -1.499089   -0.397874    1.355355
      4          6           0       -2.324662   -0.463474    0.234010
      5          6           0       -2.220686   -1.476448   -0.718022
      6          6           0       -1.245912   -2.461012   -0.530944
      7          1           0        0.352135   -3.191595    0.721578
      8          1           0        0.122354   -1.360697    2.389045
      9          1           0       -1.620706    0.410592    2.065996
     10          1           0       -2.886893   -1.481984   -1.572162
     11          1           0       -1.147963   -3.259446   -1.260980
     12          7           0       -3.352863    0.584441    0.046727
     13          8           0       -4.067938    0.504117   -0.949694
     14          8           0       -3.424224    1.466279    0.899901
     15          6           0        0.499925    2.529853   -0.464871
     16          6           0        0.306324    1.351105   -1.192601
     17          6           0        1.217019    0.295376   -1.089548
     18          6           0        2.315228    0.453110   -0.245542
     19          6           0        2.535636    1.615067    0.492407
     20          6           0        1.612003    2.657847    0.373832
     21          1           0       -0.212550    3.344939   -0.550954
     22          1           0       -0.556426    1.248909   -1.844724
     23          1           0        1.091421   -0.628166   -1.641556
     24          1           0        3.405199    1.687497    1.134303
     25          1           0        1.764900    3.572126    0.940189
     26          7           0        3.286189   -0.657687   -0.128227
     27          8           0        4.245664   -0.493865    0.622244
     28          8           0        3.069367   -1.671120   -0.788969
 ---------------------------------------------------------------------

 SCF Done:  E(RHF) =  -868.337987433     A.U. after   16 cycles
 E2 =    -0.2606381832D+01 EUMP2 =    -0.87094436926496D+03

 The electronic state is 1-A.
 Alpha  occ. eigenvalues --  -20.61419 -20.61413 -20.61293 -20.61274 -15.86449
 Alpha  occ. eigenvalues --  -15.86314 -11.31566 -11.31352 -11.28189 -11.28101
 Alpha  occ. eigenvalues --  -11.27950 -11.27858 -11.27698 -11.27535 -11.27066
 Alpha  occ. eigenvalues --  -11.26980 -11.26851 -11.26767  -1.60505  -1.60364
 Alpha  occ. eigenvalues --   -1.40060  -1.39926  -1.19808  -1.19481  -1.09173
 Alpha  occ. eigenvalues --   -1.08950  -1.05120  -1.04889  -0.96024  -0.95844
 Alpha  occ. eigenvalues --   -0.86504  -0.86297  -0.82862  -0.82698  -0.77970
 Alpha  occ. eigenvalues --   -0.77802  -0.72666  -0.72545  -0.71863  -0.71703
 Alpha  occ. eigenvalues --   -0.70744  -0.70582  -0.65374  -0.65167  -0.65081
 Alpha  occ. eigenvalues --   -0.64878  -0.62460  -0.62272  -0.55500  -0.55355
 Alpha  occ. eigenvalues --   -0.54385  -0.53171  -0.52979  -0.52305  -0.49443
 Alpha  occ. eigenvalues --   -0.49406  -0.49315  -0.49265  -0.45510  -0.45400
 Alpha  occ. eigenvalues --   -0.38310  -0.36964  -0.36797  -0.36168
 Alpha virt. eigenvalues --    0.04495   0.04734   0.10612   0.11372   0.16033
 Alpha virt. eigenvalues --    0.16318   0.21117   0.21519   0.26853   0.27293
 Alpha virt. eigenvalues --    0.28002   0.28581   0.30672   0.31187   0.31978

 Mulliken charges:
               1
     1  C   -0.168255
     2  C   -0.220115
     3  C   -0.164969
     4  C    0.157504
     5  C   -0.179946
     6  C   -0.225776
     7  H    0.239870
     8  H    0.227470
     9  H    0.274219
    10  H    0.274680
    11  H    0.227918
    12  N    0.486031
    13  O   -0.462072
    14  O   -0.461648
    15  C   -0.170313
    16  C   -0.223397
    17  C   -0.163296
    18  C    0.155500
    19  C   -0.174401
    20  C   -0.221351
    21  H    0.234610
    22  H    0.226786
    23  H    0.272065
    24  H    0.274088
    25  H    0.224763
    26  N    0.487215
    27  O   -0.460266
    28  O   -0.466913
 Sum of Mulliken charges =  -0.00000

 Dipole moment (field-independent basis, Debye):
    X=              0.1792    Y=              0.1590    Z=              0.3582  Tot=              0.4309
 Quadrupole moment (field-independent basis, Debye-Ang):
   XX=           -137.8591   YY=            -95.5740   ZZ=            -99.2992
   XY=             16.8769   XZ=              2.5988   YZ=              1.5538

 Normal termination of Gaussian 16 at Wed May  5 22:35:00 2021.
