 Gaussian 16, Revision A.03,
 Gaussian 16:  EM64L-G16RevA.03 25-Dec-2016

 -------------
 #p 6-31g* mp2
 -------------

 ------------------------------------------------------
 Input file generated by CHIRIPA (05-May-2021 14:57:25)
 ------------------------------------------------------
 Symbolic Z-matrix:
 Charge =  0 Multiplicity = 1

                         Standard orientation:
 ---------------------------------------------------------------------
 Center     Atomic      Atomic             Coordinates (Angstroms)
 Number     Number       Type             X           Y           Z
 ---------------------------------------------------------------------
      1          6           0       -5.352016    0.534787    0.172501
      2          6           0       -5.143364   -0.830893   -0.046367
      3          6           0       -3.846594   -1.347367   -0.125051
      4          6           0       -2.776690   -0.465626    0.020302
      5          6           0       -2.952101    0.899871    0.239253
      6          6           0       -4.257647    1.394295    0.314362
      7          1           0       -6.362787    0.927432    0.232237
      8          1           0       -5.991374   -1.500747   -0.156909
      9          1           0       -3.656409   -2.400364   -0.293709
     10          1           0       -2.086840    1.542869    0.345535
     11          1           0       -4.416685    2.455348    0.484420
     12          7           0       -1.399213   -1.000721   -0.061105
     13          8           0       -0.473446   -0.203014    0.070254
     14          8           0       -1.271395   -2.207705   -0.254730
     15          6           0        4.535670   -1.584986    0.376089
     16          6           0        4.094531   -0.805073    1.450171
     17          6           0        3.245538    0.284608    1.234873
     18          6           0        2.855611    0.567155   -0.073338
     19          6           0        3.278088   -0.190980   -1.164225
     20          6           0        4.126762   -1.275994   -0.925388
     21          1           0        5.195064   -2.429664    0.552481
     22          1           0        4.410478   -1.042699    2.461980
     23          1           0        2.888986    0.905077    2.048080
     24          1           0        2.946102    0.070563   -2.161621
     25          1           0        4.467781   -1.879935   -1.761453
     26          7           0        1.956990    1.718282   -0.313725
     27          8           0        1.627846    1.946381   -1.475737
     28          8           0        1.598810    2.370639    0.664423
 ---------------------------------------------------------------------

 SCF Done:  E(RHF) =  -868.339764395     A.U. after   16 cycles
 E2 =    -0.2600561466D+01 EUMP2 =    -0.87094032586145D+03

 The electronic state is 1-A.
 Alpha  occ. eigenvalues --  -20.60586 -20.60563 -20.59533 -20.59520 -15.85628
 Alpha  occ. eigenvalues --  -15.84573 -11.30781 -11.29826 -11.27404 -11.27227
 Alpha  occ. eigenvalues --  -11.27109 -11.26438 -11.26414 -11.26383 -11.26279
 Alpha  occ. eigenvalues --  -11.26240 -11.25516 -11.25491  -1.59645  -1.58560
 Alpha  occ. eigenvalues --   -1.39203  -1.38140  -1.18954  -1.18009  -1.08402
 Alpha  occ. eigenvalues --   -1.07441  -1.04323  -1.03455  -0.95268  -0.94308
 Alpha  occ. eigenvalues --   -0.85734  -0.84866  -0.82122  -0.81183  -0.77166
 Alpha  occ. eigenvalues --   -0.76213  -0.72087  -0.70951  -0.70862  -0.70094
 Alpha  occ. eigenvalues --   -0.69524  -0.69218  -0.64607  -0.64332  -0.63723
 Alpha  occ. eigenvalues --   -0.63526  -0.61651  -0.60841  -0.54866  -0.54024
 Alpha  occ. eigenvalues --   -0.52678  -0.52411  -0.51742  -0.51602  -0.48601
 Alpha  occ. eigenvalues --   -0.48588  -0.47601  -0.47587  -0.44713  -0.43534
 Alpha  occ. eigenvalues --   -0.36954  -0.35944  -0.35919  -0.35036
 Alpha virt. eigenvalues --    0.05359   0.06418   0.11735   0.12620   0.16874
 Alpha virt. eigenvalues --    0.17872   0.21872   0.22525   0.27815   0.28397
 Alpha virt. eigenvalues --    0.28773   0.29432   0.31395   0.32003   0.33151

 Mulliken charges:
               1
     1  C   -0.170405
     2  C   -0.219416
     3  C   -0.171201
     4  C    0.155729
     5  C   -0.171361
     6  C   -0.219773
     7  H    0.224508
     8  H    0.221467
     9  H    0.273120
    10  H    0.289392
    11  H    0.225477
    12  N    0.495959
    13  O   -0.468371
    14  O   -0.463697
    15  C   -0.170556
    16  C   -0.218540
    17  C   -0.167969
    18  C    0.174381
    19  C   -0.166084
    20  C   -0.217618
    21  H    0.220606
    22  H    0.218019
    23  H    0.270839
    24  H    0.272079
    25  H    0.218934
    26  N    0.499573
    27  O   -0.465473
    28  O   -0.469620
 Sum of Mulliken charges =  -0.00000

 Dipole moment (field-independent basis, Debye):
    X=             -1.9064    Y=             -2.0762    Z=              1.0999  Tot=              3.0257
 Quadrupole moment (field-independent basis, Debye-Ang):
   XX=            -61.8067   YY=           -108.0396   ZZ=           -101.1569
   XY=            -11.4911   XZ=              1.3761   YZ=              2.6306

 Normal termination of Gaussian 16 at Wed May  5 16:26:30 2021.
