 Gaussian 16, Revision A.03,
 Gaussian 16:  EM64L-G16RevA.03 25-Dec-2016

 -------------
 #p 6-31g* mp2
 -------------

 ------------------------------------------------------
 Input file generated by CHIRIPA (05-May-2021 14:57:21)
 ------------------------------------------------------
 Symbolic Z-matrix:
 Charge =  0 Multiplicity = 1

                         Standard orientation:
 ---------------------------------------------------------------------
 Center     Atomic      Atomic             Coordinates (Angstroms)
 Number     Number       Type             X           Y           Z
 ---------------------------------------------------------------------
      1          6           0        4.150922   -2.334595   -0.691867
      2          6           0        2.955538   -2.043876   -0.026240
      3          6           0        2.630762   -0.725459    0.306695
      4          6           0        3.528463    0.282171   -0.042737
      5          6           0        4.727159    0.024448   -0.706060
      6          6           0        5.031366   -1.301327   -1.029058
      7          1           0        4.395227   -3.361631   -0.946640
      8          1           0        2.269879   -2.844306    0.236874
      9          1           0        1.712133   -0.472223    0.821876
     10          1           0        5.390685    0.843640   -0.955208
     11          1           0        5.960429   -1.524150   -1.546006
     12          7           0        3.195525    1.681814    0.304467
     13          8           0        4.003264    2.551568   -0.014475
     14          8           0        2.133134    1.882599    0.888972
     15          6           0       -5.710781    0.239353   -1.224919
     16          6           0       -4.690440    1.191264   -1.321310
     17          6           0       -3.507393    1.040343   -0.591812
     18          6           0       -3.377662   -0.079611    0.228045
     19          6           0       -4.376125   -1.045328    0.345311
     20          6           0       -5.550650   -0.873942   -0.393383
     21          1           0       -6.626490    0.364541   -1.795183
     22          1           0       -4.812044    2.056858   -1.966295
     23          1           0       -2.701484    1.762011   -0.647701
     24          1           0       -4.225852   -1.897717    0.996670
     25          1           0       -6.341383   -1.614809   -0.316561
     26          7           0       -2.129735   -0.250216    1.005200
     27          8           0       -2.039971   -1.245742    1.720398
     28          8           0       -1.265001    0.614819    0.884420
 ---------------------------------------------------------------------

 SCF Done:  E(RHF) =  -868.338654685     A.U. after   16 cycles
 E2 =    -0.2599404059D+01 EUMP2 =    -0.87093805874422D+03

 The electronic state is 1-A.
 Alpha  occ. eigenvalues --  -20.60950 -20.60856 -20.59716 -20.59635 -15.85908
 Alpha  occ. eigenvalues --  -15.84726 -11.31211 -11.30149 -11.27802 -11.27729
 Alpha  occ. eigenvalues --  -11.27517 -11.26839 -11.26794 -11.26748 -11.26596
 Alpha  occ. eigenvalues --  -11.26559 -11.25877 -11.25731  -1.59974  -1.58767
 Alpha  occ. eigenvalues --   -1.39518  -1.38305  -1.19382  -1.18360  -1.08796
 Alpha  occ. eigenvalues --   -1.07767  -1.04770  -1.03758  -0.95634  -0.94571
 Alpha  occ. eigenvalues --   -0.86171  -0.85159  -0.82456  -0.81385  -0.77516
 Alpha  occ. eigenvalues --   -0.76397  -0.72108  -0.71291  -0.70930  -0.70486
 Alpha  occ. eigenvalues --   -0.70101  -0.69469  -0.65030  -0.64772  -0.64007
 Alpha  occ. eigenvalues --   -0.63767  -0.62110  -0.61063  -0.55283  -0.54310
 Alpha  occ. eigenvalues --   -0.53111  -0.52857  -0.52122  -0.51840  -0.48918
 Alpha  occ. eigenvalues --   -0.48875  -0.47742  -0.47663  -0.44933  -0.43697
 Alpha  occ. eigenvalues --   -0.37368  -0.36400  -0.36371  -0.35376
 Alpha virt. eigenvalues --    0.04983   0.06101   0.11284   0.12269   0.16484
 Alpha virt. eigenvalues --    0.17549   0.21431   0.22413   0.27359   0.28256
 Alpha virt. eigenvalues --    0.28397   0.29394   0.30997   0.31903   0.32597

 Mulliken charges:
               1
     1  C   -0.171478
     2  C   -0.221949
     3  C   -0.177385
     4  C    0.154965
     5  C   -0.172083
     6  C   -0.219910
     7  H    0.221600
     8  H    0.224945
     9  H    0.298092
    10  H    0.272251
    11  H    0.219154
    12  N    0.485984
    13  O   -0.468497
    14  O   -0.449358
    15  C   -0.170552
    16  C   -0.218886
    17  C   -0.171120
    18  C    0.157187
    19  C   -0.171370
    20  C   -0.218818
    21  H    0.225790
    22  H    0.224900
    23  H    0.280982
    24  H    0.274217
    25  H    0.222978
    26  N    0.486838
    27  O   -0.466668
    28  O   -0.451811
 Sum of Mulliken charges =  -0.00000

 Dipole moment (field-independent basis, Debye):
    X=             -3.6182    Y=             -4.1766    Z=             -3.8549  Tot=              6.7377
 Quadrupole moment (field-independent basis, Debye-Ang):
   XX=            -65.0633   YY=           -104.7271   ZZ=           -105.8379
   XY=            -15.9340   XZ=              1.7840   YZ=             -2.4112

 Normal termination of Gaussian 16 at Wed May  5 16:11:11 2021.
