 Gaussian 16, Revision A.03,
 Gaussian 16:  EM64L-G16RevA.03 25-Dec-2016

 -------------
 #p 6-31g* mp2
 -------------

 ------------------------------------------------------
 Input file generated by CHIRIPA (05-May-2021 14:55:18)
 ------------------------------------------------------
 Symbolic Z-matrix:
 Charge =  0 Multiplicity = 1

                         Standard orientation:
 ---------------------------------------------------------------------
 Center     Atomic      Atomic             Coordinates (Angstroms)
 Number     Number       Type             X           Y           Z
 ---------------------------------------------------------------------
      1          6           0        3.548769    2.480588   -0.057698
      2          6           0        2.797082    1.868764    0.950845
      3          6           0        2.545841    0.493959    0.914295
      4          6           0        3.063836   -0.242013   -0.150278
      5          6           0        3.816323    0.338546   -1.170084
      6          6           0        4.055098    1.714876   -1.113083
      7          1           0        3.739097    3.549162   -0.021362
      8          1           0        2.402609    2.460936    1.771679
      9          1           0        1.967054   -0.005298    1.681866
     10          1           0        4.196370   -0.278001   -1.975598
     11          1           0        4.639197    2.187343   -1.897715
     12          7           0        2.804457   -1.698265   -0.199797
     13          8           0        3.271941   -2.324503   -1.148440
     14          8           0        2.138584   -2.185864    0.710970
     15          6           0       -3.344614   -0.415261    0.280207
     16          6           0       -2.344819    0.216138    1.249605
     17          6           0       -1.086022   -0.631522    1.435878
     18          1           0       -3.623267   -1.412083    0.648507
     19          1           0       -2.856155   -0.566657   -0.692357
     20          1           0       -2.835433    0.367570    2.219647
     21          1           0       -2.068661    1.211650    0.879055
     22          1           0       -0.571298   -0.772097    0.479897
     23          1           0       -1.342427   -1.620973    1.828108
     24          1           0       -0.385033   -0.161552    2.132729
     25          6           0       -4.608243    0.420394    0.083612
     26          6           0       -5.608037   -0.211005   -0.885785
     27          6           0       -6.866834    0.636655   -1.072058
     28          1           0       -5.096702    0.571790    1.056177
     29          1           0       -4.329590    1.417216   -0.284687
     30          1           0       -5.884196   -1.206517   -0.515235
     31          1           0       -5.117424   -0.362437   -1.855828
     32          1           0       -6.610430    1.626107   -1.464288
     33          1           0       -7.381559    0.777230   -0.116078
     34          1           0       -7.567824    0.166685   -1.768909
 ---------------------------------------------------------------------

 SCF Done:  E(RHF) =  -669.535122893     A.U. after   15 cycles
 E2 =    -0.2091950554D+01 EUMP2 =    -0.67162707344661D+03

 The electronic state is 1-A.
 Alpha  occ. eigenvalues --  -20.60794 -20.60771 -15.85816 -11.31158 -11.27747
 Alpha  occ. eigenvalues --  -11.27692 -11.27492 -11.26753 -11.26736 -11.21494
 Alpha  occ. eigenvalues --  -11.21490 -11.21295 -11.21210 -11.21001 -11.20841
 Alpha  occ. eigenvalues --   -1.59849  -1.39402  -1.19342  -1.08743  -1.08311
 Alpha  occ. eigenvalues --   -1.04743  -1.03410  -0.95864  -0.95566  -0.86876
 Alpha  occ. eigenvalues --   -0.86131  -0.82410  -0.79476  -0.78122  -0.77444
 Alpha  occ. eigenvalues --   -0.72037  -0.71170  -0.70461  -0.64996  -0.64946
 Alpha  occ. eigenvalues --   -0.64753  -0.62134  -0.60795  -0.59235  -0.57472
 Alpha  occ. eigenvalues --   -0.55276  -0.55101  -0.53094  -0.52969  -0.52400
 Alpha  occ. eigenvalues --   -0.52250  -0.49768  -0.48800  -0.48796  -0.47776
 Alpha  occ. eigenvalues --   -0.46505  -0.45667  -0.45593  -0.44746  -0.43670
 Alpha  occ. eigenvalues --   -0.37328  -0.36330
 Alpha virt. eigenvalues --    0.05058   0.11274   0.16522   0.21023   0.23002
 Alpha virt. eigenvalues --    0.24270   0.26308   0.26781   0.27635   0.27848
 Alpha virt. eigenvalues --    0.28813   0.30644   0.31507   0.31597   0.32020

 Mulliken charges:
               1
     1  C   -0.170550
     2  C   -0.220807
     3  C   -0.170888
     4  C    0.155983
     5  C   -0.170772
     6  C   -0.218984
     7  H    0.225466
     8  H    0.223216
     9  H    0.282254
    10  H    0.275403
    11  H    0.223249
    12  N    0.487429
    13  O   -0.460387
    14  O   -0.458632
    15  C   -0.298616
    16  C   -0.301197
    17  C   -0.470312
    18  H    0.152068
    19  H    0.151040
    20  H    0.150208
    21  H    0.147179
    22  H    0.160962
    23  H    0.163433
    24  H    0.144909
    25  C   -0.297969
    26  C   -0.299694
    27  C   -0.475598
    28  H    0.148884
    29  H    0.147848
    30  H    0.152966
    31  H    0.152436
    32  H    0.154213
    33  H    0.154846
    34  H    0.160412
 Sum of Mulliken charges =  -0.00000

 Dipole moment (field-independent basis, Debye):
    X=              0.9242    Y=              5.0008    Z=              0.1488  Tot=              5.0877
 Quadrupole moment (field-independent basis, Debye-Ang):
   XX=            -89.3570   YY=            -97.7833   ZZ=            -91.0034
   XY=             16.4667   XZ=             -2.7341   YZ=             -0.9216

 Normal termination of Gaussian 16 at Wed May  5 23:42:00 2021.
