 Gaussian 16, Revision A.03,
 Gaussian 16:  EM64L-G16RevA.03 25-Dec-2016

 -------------
 #p 6-31g* mp2
 -------------

 ------------------------------------------------------
 Input file generated by CHIRIPA (05-May-2021 14:55:25)
 ------------------------------------------------------
 Symbolic Z-matrix:
 Charge =  0 Multiplicity = 1

                         Standard orientation:
 ---------------------------------------------------------------------
 Center     Atomic      Atomic             Coordinates (Angstroms)
 Number     Number       Type             X           Y           Z
 ---------------------------------------------------------------------
      1          6           0       -1.886657   -2.632371    0.350580
      2          6           0       -2.719717   -2.099440   -0.638620
      3          6           0       -2.867649   -0.715701   -0.772524
      4          6           0       -2.164492    0.109555    0.103725
      5          6           0       -1.326986   -0.391064    1.099342
      6          6           0       -1.194171   -1.777988    1.214880
      7          1           0       -1.777611   -3.708530    0.447466
      8          1           0       -3.258733   -2.760561   -1.311245
      9          1           0       -3.505952   -0.276341   -1.529459
     10          1           0       -0.802548    0.293300    1.755108
     11          1           0       -0.546511   -2.189062    1.984035
     12          7           0       -2.313099    1.576144   -0.028312
     13          8           0       -1.682743    2.281814    0.756110
     14          8           0       -3.057120    1.992216   -0.913724
     15          6           0        3.010818    0.860188    0.018641
     16          6           0        2.027081    1.993307   -0.275105
     17          6           0        2.584863    3.369613    0.088841
     18          1           0        3.275349    0.879986    1.084744
     19          1           0        3.941460    1.038505   -0.537688
     20          1           0        1.098061    1.812182    0.280531
     21          1           0        1.764713    1.970691   -1.340595
     22          1           0        3.500092    3.575881   -0.475436
     23          1           0        2.829653    3.416471    1.154901
     24          1           0        1.865304    4.164917   -0.129299
     25          6           0        2.467581   -0.521869   -0.339885
     26          6           0        3.451319   -1.654988   -0.046139
     27          6           0        2.893536   -3.031293   -0.410086
     28          1           0        1.536939   -0.700185    0.216444
     29          1           0        2.203050   -0.541666   -1.405989
     30          1           0        3.713685   -1.632371    1.019350
     31          1           0        4.380338   -1.473862   -0.601776
     32          1           0        2.648747   -3.078151   -1.476145
     33          1           0        1.978307   -3.237561    0.154191
     34          1           0        3.613095   -3.826597   -0.191945
 ---------------------------------------------------------------------

 SCF Done:  E(RHF) =  -669.535611331     A.U. after   15 cycles
 E2 =    -0.2094230439D+01 EUMP2 =    -0.67162984176997D+03

 The electronic state is 1-A.
 Alpha  occ. eigenvalues --  -20.60953 -20.60946 -15.85969 -11.31307 -11.27890
 Alpha  occ. eigenvalues --  -11.27869 -11.27611 -11.26896 -11.26869 -11.21805
 Alpha  occ. eigenvalues --  -11.21469 -11.21360 -11.21179 -11.21026 -11.20448
 Alpha  occ. eigenvalues --   -1.60001  -1.39560  -1.19486  -1.08879  -1.08338
 Alpha  occ. eigenvalues --   -1.04892  -1.03385  -0.95858  -0.95721  -0.86883
 Alpha  occ. eigenvalues --   -0.86285  -0.82561  -0.79489  -0.78135  -0.77578
 Alpha  occ. eigenvalues --   -0.72199  -0.71307  -0.70590  -0.65145  -0.65009
 Alpha  occ. eigenvalues --   -0.64888  -0.62233  -0.60795  -0.59259  -0.57427
 Alpha  occ. eigenvalues --   -0.55381  -0.55189  -0.53232  -0.52979  -0.52528
 Alpha  occ. eigenvalues --   -0.52279  -0.49849  -0.48981  -0.48952  -0.47786
 Alpha  occ. eigenvalues --   -0.46558  -0.45766  -0.45602  -0.44707  -0.43628
 Alpha  occ. eigenvalues --   -0.37444  -0.36398
 Alpha virt. eigenvalues --    0.04870   0.11011   0.16275   0.20391   0.23185
 Alpha virt. eigenvalues --    0.24054   0.25953   0.27175   0.27271   0.28458
 Alpha virt. eigenvalues --    0.29359   0.29947   0.31437   0.31691   0.32428

 Mulliken charges:
               1
     1  C   -0.170227
     2  C   -0.218309
     3  C   -0.170644
     4  C    0.159806
     5  C   -0.170400
     6  C   -0.217864
     7  H    0.226713
     8  H    0.224111
     9  H    0.275981
    10  H    0.276129
    11  H    0.224505
    12  N    0.488681
    13  O   -0.459380
    14  O   -0.458604
    15  C   -0.298336
    16  C   -0.307616
    17  C   -0.474964
    18  H    0.146052
    19  H    0.148917
    20  H    0.162982
    21  H    0.150922
    22  H    0.151142
    23  H    0.152575
    24  H    0.168858
    25  C   -0.302613
    26  C   -0.299231
    27  C   -0.474019
    28  H    0.148465
    29  H    0.150249
    30  H    0.149404
    31  H    0.153869
    32  H    0.156516
    33  H    0.146282
    34  H    0.160045
 Sum of Mulliken charges =  -0.00000

 Dipole moment (field-independent basis, Debye):
    X=              0.2898    Y=             -5.0599    Z=              0.4199  Tot=              5.0856
 Quadrupole moment (field-independent basis, Debye-Ang):
   XX=            -95.7636   YY=            -97.3674   ZZ=            -91.2245
   XY=             11.7010   XZ=              1.3672   YZ=             -0.1781

 Normal termination of Gaussian 16 at Thu May  6 00:02:45 2021.
