 Gaussian 16, Revision A.03,
 Gaussian 16:  EM64L-G16RevA.03 25-Dec-2016

 -------------
 #p 6-31g* mp2
 -------------

 ------------------------------------------------------
 Input file generated by CHIRIPA (05-May-2021 14:51:10)
 ------------------------------------------------------
 Symbolic Z-matrix:
 Charge =  0 Multiplicity = 1

                         Standard orientation:
 ---------------------------------------------------------------------
 Center     Atomic      Atomic             Coordinates (Angstroms)
 Number     Number       Type             X           Y           Z
 ---------------------------------------------------------------------
      1          6           0       -3.250936    0.297908   -0.036114
      2          6           0       -4.749433    0.434954   -0.307608
      3          6           0       -5.164913    1.873373   -0.617646
      4          1           0       -2.975919    0.949766    0.804357
      5          1           0       -2.692347    0.661711   -0.909625
      6          1           0       -5.305047    0.069714    0.565609
      7          1           0       -5.020950   -0.217450   -1.147407
      8          1           0       -4.636536    2.244959   -1.501581
      9          1           0       -4.922247    2.533756    0.221168
     10          1           0       -6.239989    1.948442   -0.808527
     11          6           0       -2.820195   -1.134273    0.275409
     12          6           0       -1.321697   -1.271319    0.546903
     13          6           0       -0.906217   -2.709738    0.856941
     14          1           0       -3.378783   -1.498076    1.148920
     15          1           0       -3.095211   -1.786131   -0.565062
     16          1           0       -1.050181   -0.618914    1.386702
     17          1           0       -0.766083   -0.906079   -0.326314
     18          1           0       -1.148883   -3.370121    0.018127
     19          1           0       -1.434595   -3.081324    1.740877
     20          1           0        0.168859   -2.784807    1.047823
     21          6           0        3.429269   -0.199640   -0.335806
     22          6           0        2.602883   -1.485824   -0.307474
     23          6           0        3.404322   -2.713116   -0.742494
     24          1           0        3.818824   -0.043931   -1.351162
     25          1           0        4.303251   -0.319104    0.319386
     26          1           0        1.729979   -1.363470   -0.961450
     27          1           0        2.215092   -1.638388    0.707887
     28          1           0        4.266523   -2.863180   -0.084698
     29          1           0        3.778653   -2.586699   -1.763520
     30          1           0        2.794331   -3.621414   -0.714813
     31          6           0        2.641861    1.036006    0.096511
     32          6           0        3.468247    2.322188    0.068179
     33          6           0        2.666808    3.549481    0.503198
     34          1           0        1.767878    1.155469   -0.558682
     35          1           0        2.252307    0.880296    1.111866
     36          1           0        3.856039    2.474753   -0.947182
     37          1           0        4.341152    2.199835    0.722155
     38          1           0        2.292478    3.423064    1.524225
     39          1           0        1.804608    3.699545   -0.154596
     40          1           0        3.276799    4.457778    0.475519
 ---------------------------------------------------------------------

 SCF Done:  E(RHF) =  -470.732686904     A.U. after   11 cycles
 E2 =    -0.1583719331D+01 EUMP2 =    -0.47231640623456D+03

 The electronic state is 1-A.
 Alpha  occ. eigenvalues --  -11.21596 -11.21590 -11.21585 -11.21524 -11.21398
 Alpha  occ. eigenvalues --  -11.21373 -11.21338 -11.21311 -11.21077 -11.21064
 Alpha  occ. eigenvalues --  -11.21059 -11.20958  -1.08447  -1.08376  -1.03572
 Alpha  occ. eigenvalues --   -1.03448  -0.95998  -0.95918  -0.87002  -0.86947
 Alpha  occ. eigenvalues --   -0.79610  -0.79549  -0.78327  -0.78124  -0.65108
 Alpha  occ. eigenvalues --   -0.64987  -0.60993  -0.60844  -0.59598  -0.59114
 Alpha  occ. eigenvalues --   -0.57735  -0.57377  -0.55270  -0.55219  -0.52712
 Alpha  occ. eigenvalues --   -0.52596  -0.52429  -0.52337  -0.49923  -0.49878
 Alpha  occ. eigenvalues --   -0.47958  -0.47827  -0.46718  -0.46519  -0.45935
 Alpha  occ. eigenvalues --   -0.45750  -0.45685  -0.45431  -0.43794  -0.43708
 Alpha virt. eigenvalues --    0.21300   0.23219   0.23426   0.24690   0.25050
 Alpha virt. eigenvalues --    0.26377   0.26898   0.27395   0.28501   0.29326
 Alpha virt. eigenvalues --    0.30128   0.31059   0.31613   0.31685   0.32403

 Mulliken charges:
               1
     1  C   -0.298050
     2  C   -0.299602
     3  C   -0.475668
     4  H    0.149799
     5  H    0.148915
     6  H    0.151936
     7  H    0.151823
     8  H    0.155007
     9  H    0.155238
    10  H    0.160189
    11  C   -0.298241
    12  C   -0.301270
    13  C   -0.480804
    14  H    0.149356
    15  H    0.149307
    16  H    0.151573
    17  H    0.154384
    18  H    0.154120
    19  H    0.154253
    20  H    0.166703
    21  C   -0.297893
    22  C   -0.304215
    23  C   -0.476941
    24  H    0.149352
    25  H    0.149360
    26  H    0.155594
    27  H    0.153963
    28  H    0.155122
    29  H    0.155256
    30  H    0.161162
    31  C   -0.298582
    32  C   -0.299704
    33  C   -0.475625
    34  H    0.149998
    35  H    0.149855
    36  H    0.151828
    37  H    0.151882
    38  H    0.155095
    39  H    0.155348
    40  H    0.160176
 Sum of Mulliken charges =  -0.00000

 Dipole moment (field-independent basis, Debye):
    X=              0.0298    Y=              0.0035    Z=             -0.0016  Tot=              0.0300
 Quadrupole moment (field-independent basis, Debye-Ang):
   XX=            -85.2305   YY=            -86.7428   ZZ=            -82.9590
   XY=              0.7404   XZ=              0.1435   YZ=             -0.0131

 Normal termination of Gaussian 16 at Wed May  5 18:12:08 2021.
