 Gaussian 16, Revision A.03,
 Gaussian 16:  EM64L-G16RevA.03 25-Dec-2016

 -------------
 #p 6-31g* mp2
 -------------

 ------------------------------------------------------
 Input file generated by CHIRIPA (05-May-2021 14:53:14)
 ------------------------------------------------------
 Symbolic Z-matrix:
 Charge =  0 Multiplicity = 1

                         Standard orientation:
 ---------------------------------------------------------------------
 Center     Atomic      Atomic             Coordinates (Angstroms)
 Number     Number       Type             X           Y           Z
 ---------------------------------------------------------------------
      1          6           0        5.224565    0.021952    0.099680
      2          6           0        5.511587    1.502989   -0.149586
      3          6           0        7.006357    1.804991   -0.260273
      4          1           0        5.733045   -0.293534    1.021017
      5          1           0        5.659970   -0.571167   -0.716424
      6          1           0        5.074574    2.093248    0.666031
      7          1           0        5.002207    1.815034   -1.070333
      8          1           0        7.453181    1.241302   -1.085623
      9          1           0        7.525959    1.521097    0.660606
     10          1           0        7.188779    2.869344   -0.438415
     11          6           0        3.734585   -0.295725    0.212680
     12          6           0        3.447562   -1.776762    0.461946
     13          6           0        1.952792   -2.078764    0.572633
     14          1           0        3.299179    0.297394    1.028784
     15          1           0        3.226104    0.019762   -0.708657
     16          1           0        3.956942   -2.088807    1.382693
     17          1           0        3.884575   -2.367021   -0.353671
     18          1           0        1.433190   -1.794870   -0.348246
     19          1           0        1.505968   -1.515074    1.397983
     20          1           0        1.770370   -3.143117    0.750775
     21          6           0       -5.251879    1.837877    0.425290
     22          6           0       -3.942692    2.234937    0.133922
     23          6           0       -2.963663    1.284545   -0.170715
     24          6           0       -3.330270   -0.060398   -0.174927
     25          6           0       -4.626084   -0.487418    0.111099
     26          6           0       -5.588803    0.480360    0.412970
     27          1           0       -6.006078    2.582917    0.660864
     28          1           0       -3.678174    3.288501    0.142743
     29          1           0       -1.942580    1.564211   -0.400051
     30          1           0       -4.859632   -1.545055    0.094448
     31          1           0       -6.604742    0.169092    0.638856
     32          7           0       -2.302449   -1.075738   -0.495968
     33          8           0       -2.650874   -2.254393   -0.493046
     34          8           0       -1.167880   -0.673681   -0.744444
 ---------------------------------------------------------------------

 SCF Done:  E(RHF) =  -669.535904671     A.U. after   15 cycles
 E2 =    -0.2090871596D+01 EUMP2 =    -0.67162677626695D+03

 The electronic state is 1-A.
 Alpha  occ. eigenvalues --  -20.60895 -20.60875 -15.85921 -11.31262 -11.27826
 Alpha  occ. eigenvalues --  -11.27823 -11.27568 -11.26839 -11.26829 -11.21107
 Alpha  occ. eigenvalues --  -11.20717 -11.20675 -11.20504 -11.20441 -11.19382
 Alpha  occ. eigenvalues --   -1.59946  -1.39503  -1.19431  -1.08832  -1.07632
 Alpha  occ. eigenvalues --   -1.04830  -1.02641  -0.95674  -0.95055  -0.86231
 Alpha  occ. eigenvalues --   -0.86063  -0.82506  -0.78742  -0.77557  -0.77395
 Alpha  occ. eigenvalues --   -0.72146  -0.71261  -0.70540  -0.65087  -0.64834
 Alpha  occ. eigenvalues --   -0.64273  -0.62177  -0.60043  -0.58513  -0.56664
 Alpha  occ. eigenvalues --   -0.55335  -0.54339  -0.53162  -0.52923  -0.51750
 Alpha  occ. eigenvalues --   -0.51479  -0.49151  -0.48893  -0.48751  -0.47002
 Alpha  occ. eigenvalues --   -0.45788  -0.45022  -0.44864  -0.44761  -0.42909
 Alpha  occ. eigenvalues --   -0.37412  -0.36433
 Alpha virt. eigenvalues --    0.04975   0.11222   0.16467   0.21354   0.23595
 Alpha virt. eigenvalues --    0.25251   0.27271   0.27418   0.28143   0.28306
 Alpha virt. eigenvalues --    0.29053   0.30927   0.32318   0.32400   0.32577

 Mulliken charges:
               1
     1  C   -0.297507
     2  C   -0.298836
     3  C   -0.475162
     4  H    0.147831
     5  H    0.148796
     6  H    0.149863
     7  H    0.151240
     8  H    0.154937
     9  H    0.154386
    10  H    0.157997
    11  C   -0.296966
    12  C   -0.300464
    13  C   -0.478529
    14  H    0.146270
    15  H    0.151932
    16  H    0.146078
    17  H    0.149088
    18  H    0.180494
    19  H    0.148645
    20  H    0.156276
    21  C   -0.170676
    22  C   -0.218567
    23  C   -0.170937
    24  C    0.157914
    25  C   -0.170652
    26  C   -0.218595
    27  H    0.225853
    28  H    0.223729
    29  H    0.275861
    30  H    0.275834
    31  H    0.223694
    32  N    0.490036
    33  O   -0.459202
    34  O   -0.460663
 Sum of Mulliken charges =  -0.00000

 Dipole moment (field-independent basis, Debye):
    X=             -3.9442    Y=              3.5524    Z=              1.0300  Tot=              5.4071
 Quadrupole moment (field-independent basis, Debye-Ang):
   XX=            -70.9499   YY=            -93.1308   ZZ=            -95.1073
   XY=             -9.4563   XZ=             -3.8233   YZ=             -0.7539

 Normal termination of Gaussian 16 at Thu May  6 13:45:26 2021.
