 Gaussian 16, Revision A.03,
 Gaussian 16:  EM64L-G16RevA.03 25-Dec-2016

 -------------
 #p 6-31g* mp2
 -------------

 ------------------------------------------------------
 Input file generated by CHIRIPA (05-May-2021 14:51:13)
 ------------------------------------------------------
 Symbolic Z-matrix:
 Charge =  0 Multiplicity = 1

                         Standard orientation:
 ---------------------------------------------------------------------
 Center     Atomic      Atomic             Coordinates (Angstroms)
 Number     Number       Type             X           Y           Z
 ---------------------------------------------------------------------
      1          6           0       -4.616349    0.052009   -0.176414
      2          6           0       -5.223941    1.446019   -0.016559
      3          6           0       -6.606281    1.565592   -0.658926
      4          1           0       -4.547592   -0.190640   -1.245684
      5          1           0       -5.294177   -0.689111    0.269328
      6          1           0       -4.544516    2.184433   -0.461243
      7          1           0       -5.291083    1.685456    1.052448
      8          1           0       -7.303182    0.850973   -0.209205
      9          1           0       -6.552374    1.352785   -1.731497
     10          1           0       -7.022034    2.570137   -0.532839
     11          6           0       -3.234438   -0.083215    0.460582
     12          6           0       -2.626846   -1.477225    0.300728
     13          6           0       -1.244507   -1.596798    0.943094
     14          1           0       -2.556611    0.657905    0.014841
     15          1           0       -3.303195    0.159435    1.529852
     16          1           0       -2.559704   -1.716662   -0.768280
     17          1           0       -3.306271   -2.215638    0.745411
     18          1           0       -1.298414   -1.383990    2.015665
     19          1           0       -0.547605   -0.882179    0.493373
     20          1           0       -0.828754   -2.601343    0.817007
     21          6           0        4.013921    0.680368    0.223541
     22          6           0        5.131537    1.547526   -0.356938
     23          6           0        5.296419    2.874146    0.385146
     24          1           0        3.069340    1.240396    0.190664
     25          1           0        4.224487    0.484618    1.284078
     26          1           0        4.919632    1.740431   -1.416419
     27          1           0        6.073530    0.985297   -0.322851
     28          1           0        5.532041    2.698890    1.439835
     29          1           0        4.371586    3.458315    0.340053
     30          1           0        6.100644    3.478241   -0.046304
     31          6           0        3.836867   -0.649163   -0.507709
     32          6           0        2.719251   -1.516321    0.072770
     33          6           0        2.554369   -2.842940   -0.669315
     34          1           0        3.626300   -0.453412   -1.568247
     35          1           0        4.781447   -1.209191   -0.474832
     36          1           0        1.777257   -0.954091    0.038683
     37          1           0        2.931154   -1.709225    1.132250
     38          1           0        3.479200   -3.427109   -0.624221
     39          1           0        2.318747   -2.667684   -1.724004
     40          1           0        1.750143   -3.447036   -0.237864
 ---------------------------------------------------------------------

 SCF Done:  E(RHF) =  -470.733033050     A.U. after   11 cycles
 E2 =    -0.1582723874D+01 EUMP2 =    -0.47231575692367D+03

 The electronic state is 1-A.
 Alpha  occ. eigenvalues --  -11.21614 -11.21607 -11.21584 -11.21502 -11.21420
 Alpha  occ. eigenvalues --  -11.21371 -11.21361 -11.21307 -11.21081 -11.21063
 Alpha  occ. eigenvalues --  -11.21058 -11.21019  -1.08445  -1.08390  -1.03555
 Alpha  occ. eigenvalues --   -1.03474  -0.96013  -0.95922  -0.87010  -0.86959
 Alpha  occ. eigenvalues --   -0.79660  -0.79503  -0.78272  -0.78185  -0.65106
 Alpha  occ. eigenvalues --   -0.65001  -0.61050  -0.60798  -0.59456  -0.59225
 Alpha  occ. eigenvalues --   -0.57615  -0.57544  -0.55344  -0.55168  -0.52765
 Alpha  occ. eigenvalues --   -0.52564  -0.52463  -0.52309  -0.50023  -0.49827
 Alpha  occ. eigenvalues --   -0.48048  -0.47759  -0.46780  -0.46445  -0.45856
 Alpha  occ. eigenvalues --   -0.45752  -0.45705  -0.45523  -0.43804  -0.43728
 Alpha virt. eigenvalues --    0.21712   0.23061   0.23452   0.25016   0.25667
 Alpha virt. eigenvalues --    0.26791   0.26826   0.27117   0.27801   0.29068
 Alpha virt. eigenvalues --    0.29649   0.30776   0.31649   0.31783   0.32466

 Mulliken charges:
               1
     1  C   -0.298264
     2  C   -0.299649
     3  C   -0.475713
     4  H    0.149638
     5  H    0.149627
     6  H    0.151833
     7  H    0.151993
     8  H    0.155230
     9  H    0.155177
    10  H    0.160285
    11  C   -0.298430
    12  C   -0.299708
    13  C   -0.480013
    14  H    0.149187
    15  H    0.149775
    16  H    0.151967
    17  H    0.151884
    18  H    0.155364
    19  H    0.158774
    20  H    0.161640
    21  C   -0.298080
    22  C   -0.299585
    23  C   -0.475677
    24  H    0.149020
    25  H    0.149669
    26  H    0.151759
    27  H    0.151969
    28  H    0.155211
    29  H    0.155074
    30  H    0.160170
    31  C   -0.297914
    32  C   -0.304450
    33  C   -0.476651
    34  H    0.148939
    35  H    0.149388
    36  H    0.158055
    37  H    0.151847
    38  H    0.154841
    39  H    0.154522
    40  H    0.161296
 Sum of Mulliken charges =  -0.00000

 Dipole moment (field-independent basis, Debye):
    X=             -0.0225    Y=             -0.0042    Z=              0.0161  Tot=              0.0280
 Quadrupole moment (field-independent basis, Debye-Ang):
   XX=            -85.3260   YY=            -85.6081   ZZ=            -83.9579
   XY=             -0.1635   XZ=             -0.4445   YZ=             -0.9043

 Normal termination of Gaussian 16 at Wed May  5 19:59:48 2021.
