 Gaussian 16, Revision A.03,
 Gaussian 16:  EM64L-G16RevA.03 25-Dec-2016

 -------------
 #p 6-31g* mp2
 -------------

 ------------------------------------------------------
 Input file generated by CHIRIPA (05-May-2021 14:57:21)
 ------------------------------------------------------
 Symbolic Z-matrix:
 Charge =  0 Multiplicity = 1

                         Standard orientation:
 ---------------------------------------------------------------------
 Center     Atomic      Atomic             Coordinates (Angstroms)
 Number     Number       Type             X           Y           Z
 ---------------------------------------------------------------------
      1          6           0        2.637122    2.060627   -0.825644
      2          6           0        1.980995    1.170337    0.030745
      3          6           0        2.620134    0.007618    0.471352
      4          6           0        3.921382   -0.234619    0.033898
      5          6           0        4.601617    0.633025   -0.819194
      6          6           0        3.943036    1.789607   -1.247137
      7          1           0        2.133072    2.961471   -1.163000
      8          1           0        0.966793    1.378245    0.359702
      9          1           0        2.135584   -0.698710    1.134473
     10          1           0        5.612496    0.398692   -1.130049
     11          1           0        4.455045    2.479226   -1.912207
     12          7           0        4.608301   -1.462289    0.493645
     13          8           0        5.754810   -1.652837    0.093840
     14          8           0        3.987191   -2.210743    1.245095
     15          6           0       -2.518941    1.775344    1.332439
     16          6           0       -3.563292    1.078206    1.948760
     17          6           0       -4.284438    0.110287    1.243333
     18          6           0       -3.932807   -0.136228   -0.082892
     19          6           0       -2.897492    0.541608   -0.724726
     20          6           0       -2.189954    1.505295    0.000012
     21          1           0       -1.964023    2.525603    1.887932
     22          1           0       -3.820995    1.285845    2.983421
     23          1           0       -5.097526   -0.444182    1.695959
     24          1           0       -2.663849    0.312657   -1.757398
     25          1           0       -1.379378    2.045153   -0.481200
     26          7           0       -4.689049   -1.158681   -0.839919
     27          8           0       -4.359634   -1.357316   -2.007252
     28          8           0       -5.596887   -1.742084   -0.251608
 ---------------------------------------------------------------------

 SCF Done:  E(RHF) =  -868.336655810     A.U. after   16 cycles
 E2 =    -0.2599959639D+01 EUMP2 =    -0.87093661544844D+03

 The electronic state is 1-A.
 Alpha  occ. eigenvalues --  -20.61242 -20.61235 -20.61095 -20.61090 -15.86303
 Alpha  occ. eigenvalues --  -15.86154 -11.31849 -11.31644 -11.28498 -11.28423
 Alpha  occ. eigenvalues --  -11.28299 -11.28250 -11.28216 -11.28074 -11.27628
 Alpha  occ. eigenvalues --  -11.27454 -11.27348 -11.27265  -1.60312  -1.60168
 Alpha  occ. eigenvalues --   -1.39861  -1.39718  -1.20065  -1.19844  -1.09437
 Alpha  occ. eigenvalues --   -1.09232  -1.05501  -1.05265  -0.96228  -0.96038
 Alpha  occ. eigenvalues --   -0.86921  -0.86659  -0.83059  -0.82864  -0.78079
 Alpha  occ. eigenvalues --   -0.77868  -0.72518  -0.72371  -0.71638  -0.71493
 Alpha  occ. eigenvalues --   -0.71178  -0.70983  -0.65746  -0.65683  -0.65502
 Alpha  occ. eigenvalues --   -0.65163  -0.62893  -0.62542  -0.56019  -0.55814
 Alpha  occ. eigenvalues --   -0.53852  -0.53666  -0.53580  -0.53265  -0.49294
 Alpha  occ. eigenvalues --   -0.49260  -0.49139  -0.49116  -0.45225  -0.45095
 Alpha  occ. eigenvalues --   -0.38073  -0.37857  -0.37105  -0.36853
 Alpha virt. eigenvalues --    0.04486   0.04665   0.10328   0.10774   0.15892
 Alpha virt. eigenvalues --    0.16134   0.18813   0.21866   0.25224   0.26977
 Alpha virt. eigenvalues --    0.27751   0.28492   0.30463   0.30688   0.31638

 Mulliken charges:
               1
     1  C   -0.172089
     2  C   -0.222337
     3  C   -0.170770
     4  C    0.159283
     5  C   -0.170084
     6  C   -0.217949
     7  H    0.221792
     8  H    0.218619
     9  H    0.277875
    10  H    0.277510
    11  H    0.224981
    12  N    0.488004
    13  O   -0.458960
    14  O   -0.458912
    15  C   -0.172904
    16  C   -0.217994
    17  C   -0.168856
    18  C    0.158980
    19  C   -0.169603
    20  C   -0.222196
    21  H    0.225026
    22  H    0.226545
    23  H    0.278766
    24  H    0.277955
    25  H    0.215747
    26  N    0.488110
    27  O   -0.458634
    28  O   -0.457903
 Sum of Mulliken charges =  -0.00000

 Dipole moment (field-independent basis, Debye):
    X=              0.1322    Y=              7.7436    Z=              1.0711  Tot=              7.8184
 Quadrupole moment (field-independent basis, Debye-Ang):
   XX=           -138.8075   YY=           -108.9377   ZZ=           -101.3376
   XY=              4.8724   XZ=            -22.6145   YZ=             -1.7362

 Normal termination of Gaussian 16 at Thu May  6 11:10:10 2021.
