 Gaussian 16, Revision A.03,
 Gaussian 16:  EM64L-G16RevA.03 25-Dec-2016

 -------------
 #p 6-31g* mp2
 -------------

 ------------------------------------------------------
 Input file generated by CHIRIPA (05-May-2021 14:51:08)
 ------------------------------------------------------
 Symbolic Z-matrix:
 Charge =  0 Multiplicity = 1

                         Standard orientation:
 ---------------------------------------------------------------------
 Center     Atomic      Atomic             Coordinates (Angstroms)
 Number     Number       Type             X           Y           Z
 ---------------------------------------------------------------------
      1          6           0       -4.053017    0.709135    0.298425
      2          6           0       -2.839037    1.226795   -0.473757
      3          6           0       -2.226058    2.477174    0.157593
      4          1           0       -4.810522    1.502943    0.353190
      5          1           0       -3.754587    0.489957    1.332976
      6          1           0       -3.139348    1.443623   -1.506915
      7          1           0       -2.084413    0.431598   -0.526855
      8          1           0       -1.899124    2.270793    1.181860
      9          1           0       -2.960053    3.288568    0.196231
     10          1           0       -1.359694    2.830185   -0.410436
     11          6           0       -4.676853   -0.540484   -0.320453
     12          6           0       -5.890833   -1.058145    0.451729
     13          6           0       -6.503812   -2.308524   -0.179621
     14          1           0       -4.975283   -0.321306   -1.355004
     15          1           0       -3.919348   -1.334293   -0.375218
     16          1           0       -6.645458   -0.262948    0.504827
     17          1           0       -5.590522   -1.274972    1.484887
     18          1           0       -5.769817   -3.119917   -0.218259
     19          1           0       -6.830746   -2.102142   -1.203888
     20          1           0       -7.370176   -2.661534    0.388408
     21          6           0        3.703145    0.056438    0.365487
     22          6           0        2.689077    0.790366   -0.512580
     23          6           0        1.370169    1.064804    0.210578
     24          1           0        3.265497   -0.892127    0.705536
     25          1           0        3.895929    0.653004    1.267895
     26          1           0        2.499310    0.193247   -1.413720
     27          1           0        3.129262    1.737205   -0.850734
     28          1           0        1.539342    1.680277    1.100058
     29          1           0        0.905811    0.127546    0.533873
     30          1           0        0.659871    1.590173   -0.435429
     31          6           0        5.026726   -0.225088   -0.343460
     32          6           0        6.040792   -0.959017    0.534608
     33          6           0        7.359701   -1.233455   -0.188550
     34          1           0        4.833942   -0.821654   -1.245867
     35          1           0        5.464373    0.723477   -0.683508
     36          1           0        5.600609   -1.905857    0.872762
     37          1           0        6.230561   -0.361898    1.435748
     38          1           0        7.824059   -0.296197   -0.511845
     39          1           0        7.190528   -1.848928   -1.078030
     40          1           0        8.069999   -1.758823    0.457457
 ---------------------------------------------------------------------

 SCF Done:  E(RHF) =  -470.732902503     A.U. after   11 cycles
 E2 =    -0.1582600953D+01 EUMP2 =    -0.47231550345557D+03

 The electronic state is 1-A.
 Alpha  occ. eigenvalues --  -11.21600 -11.21585 -11.21584 -11.21542 -11.21400
 Alpha  occ. eigenvalues --  -11.21376 -11.21340 -11.21315 -11.21070 -11.21060
 Alpha  occ. eigenvalues --  -11.21020 -11.20987  -1.08427  -1.08394  -1.03547
 Alpha  occ. eigenvalues --   -1.03468  -0.96034  -0.95884  -0.87064  -0.86887
 Alpha  occ. eigenvalues --   -0.79602  -0.79539  -0.78238  -0.78210  -0.65060
 Alpha  occ. eigenvalues --   -0.65022  -0.60949  -0.60878  -0.59645  -0.59090
 Alpha  occ. eigenvalues --   -0.57729  -0.57394  -0.55267  -0.55227  -0.52949
 Alpha  occ. eigenvalues --   -0.52467  -0.52438  -0.52154  -0.49943  -0.49846
 Alpha  occ. eigenvalues --   -0.47964  -0.47807  -0.46667  -0.46539  -0.45788
 Alpha  occ. eigenvalues --   -0.45743  -0.45712  -0.45662  -0.43893  -0.43600
 Alpha virt. eigenvalues --    0.21793   0.23016   0.23470   0.24984   0.26404
 Alpha virt. eigenvalues --    0.26659   0.27016   0.27475   0.27614   0.28960
 Alpha virt. eigenvalues --    0.29768   0.31135   0.31487   0.32002   0.32195

 Mulliken charges:
               1
     1  C   -0.298232
     2  C   -0.302217
     3  C   -0.476171
     4  H    0.149560
     5  H    0.149603
     6  H    0.151271
     7  H    0.154289
     8  H    0.156582
     9  H    0.154473
    10  H    0.160709
    11  C   -0.298210
    12  C   -0.299634
    13  C   -0.475678
    14  H    0.149431
    15  H    0.149441
    16  H    0.151933
    17  H    0.151903
    18  H    0.155081
    19  H    0.155145
    20  H    0.160198
    21  C   -0.298562
    22  C   -0.299910
    23  C   -0.479588
    24  H    0.149407
    25  H    0.149492
    26  H    0.151723
    27  H    0.151774
    28  H    0.155059
    29  H    0.154264
    30  H    0.166861
    31  C   -0.298205
    32  C   -0.299605
    33  C   -0.475693
    34  H    0.149481
    35  H    0.149648
    36  H    0.151867
    37  H    0.151919
    38  H    0.155188
    39  H    0.155169
    40  H    0.160231
 Sum of Mulliken charges =  -0.00000

 Dipole moment (field-independent basis, Debye):
    X=              0.0050    Y=              0.0113    Z=              0.0068  Tot=              0.0141
 Quadrupole moment (field-independent basis, Debye-Ang):
   XX=            -85.7710   YY=            -84.5276   ZZ=            -84.6330
   XY=             -0.2269   XZ=              0.6617   YZ=             -0.4395

 Normal termination of Gaussian 16 at Wed May  5 19:41:01 2021.
