 Gaussian 16, Revision A.03,
 Gaussian 16:  EM64L-G16RevA.03 25-Dec-2016

 -------------
 #p 6-31g* mp2
 -------------

 ------------------------------------------------------
 Input file generated by CHIRIPA (05-May-2021 14:51:13)
 ------------------------------------------------------
 Symbolic Z-matrix:
 Charge =  0 Multiplicity = 1

                         Standard orientation:
 ---------------------------------------------------------------------
 Center     Atomic      Atomic             Coordinates (Angstroms)
 Number     Number       Type             X           Y           Z
 ---------------------------------------------------------------------
      1          6           0        3.005065    0.294805    0.995445
      2          6           0        1.798904    1.177030    0.671658
      3          6           0        1.157465    1.782921    1.920356
      4          1           0        2.691277   -0.509265    1.675117
      5          1           0        3.750897    0.890714    1.539523
      6          1           0        1.056161    0.579997    0.127139
      7          1           0        2.115559    1.978981   -0.007475
      8          1           0        1.879636    2.401625    2.462827
      9          1           0        0.814219    0.994692    2.598205
     10          1           0        0.297219    2.409862    1.665835
     11          6           0        3.657115   -0.318102   -0.242661
     12          6           0        4.863276   -1.200327    0.081126
     13          6           0        5.504715   -1.806217   -1.167572
     14          1           0        2.911283   -0.914011   -0.786739
     15          1           0        3.970903    0.485968   -0.922333
     16          1           0        4.546621   -2.002277    0.760259
     17          1           0        5.606019   -0.603294    0.625645
     18          1           0        5.847961   -1.017989   -1.845421
     19          1           0        4.782544   -2.424922   -1.710043
     20          1           0        6.364961   -2.433159   -0.913051
     21          6           0       -3.895925   -0.232636    0.076066
     22          6           0       -4.189040   -1.725958   -0.072452
     23          6           0       -5.321453   -2.199643    0.839170
     24          1           0       -3.640139   -0.017986    1.122701
     25          1           0       -4.809031    0.336975   -0.145690
     26          1           0       -3.275284   -2.292521    0.148172
     27          1           0       -4.443970   -1.937110   -1.118894
     28          1           0       -6.247465   -1.660215    0.615295
     29          1           0       -5.072138   -2.017644    1.889560
     30          1           0       -5.514291   -3.270017    0.716797
     31          6           0       -2.766255    0.255933   -0.828850
     32          6           0       -2.473141    1.749255   -0.680332
     33          6           0       -1.340726    2.222940   -1.591954
     34          1           0       -1.853149   -0.313677   -0.607094
     35          1           0       -3.022041    0.041283   -1.875485
     36          1           0       -2.218210    1.960407    0.366110
     37          1           0       -3.386897    2.315817   -0.900955
     38          1           0       -1.590041    2.040941   -2.642344
     39          1           0       -0.414716    1.683512   -1.368079
     40          1           0       -1.147890    3.293314   -1.469581
 ---------------------------------------------------------------------

 SCF Done:  E(RHF) =  -470.732983275     A.U. after   11 cycles
 E2 =    -0.1583395998D+01 EUMP2 =    -0.47231637927271D+03

 The electronic state is 1-A.
 Alpha  occ. eigenvalues --  -11.21658 -11.21624 -11.21607 -11.21571 -11.21441
 Alpha  occ. eigenvalues --  -11.21406 -11.21381 -11.21346 -11.21127 -11.21085
 Alpha  occ. eigenvalues --  -11.21075 -11.20954  -1.08480  -1.08415  -1.03602
 Alpha  occ. eigenvalues --   -1.03483  -0.96038  -0.95936  -0.87039  -0.86969
 Alpha  occ. eigenvalues --   -0.79715  -0.79512  -0.78317  -0.78206  -0.65169
 Alpha  occ. eigenvalues --   -0.65003  -0.61109  -0.60840  -0.59363  -0.59319
 Alpha  occ. eigenvalues --   -0.57641  -0.57565  -0.55319  -0.55195  -0.52714
 Alpha  occ. eigenvalues --   -0.52642  -0.52452  -0.52372  -0.50006  -0.49888
 Alpha  occ. eigenvalues --   -0.48072  -0.47811  -0.46776  -0.46525  -0.45913
 Alpha  occ. eigenvalues --   -0.45773  -0.45751  -0.45485  -0.43811  -0.43767
 Alpha virt. eigenvalues --    0.20234   0.23150   0.23562   0.25280   0.25520
 Alpha virt. eigenvalues --    0.26513   0.26729   0.27662   0.28246   0.29060
 Alpha virt. eigenvalues --    0.30345   0.30788   0.31411   0.31828   0.32247

 Mulliken charges:
               1
     1  C   -0.297533
     2  C   -0.303772
     3  C   -0.478711
     4  H    0.149469
     5  H    0.149762
     6  H    0.154148
     7  H    0.153377
     8  H    0.155693
     9  H    0.154761
    10  H    0.163494
    11  C   -0.298469
    12  C   -0.299655
    13  C   -0.475746
    14  H    0.149324
    15  H    0.149949
    16  H    0.151919
    17  H    0.152021
    18  H    0.155300
    19  H    0.155262
    20  H    0.160324
    21  C   -0.298348
    22  C   -0.299605
    23  C   -0.475707
    24  H    0.149870
    25  H    0.149674
    26  H    0.151591
    27  H    0.151954
    28  H    0.155255
    29  H    0.155200
    30  H    0.160207
    31  C   -0.299229
    32  C   -0.301604
    33  C   -0.482528
    34  H    0.149268
    35  H    0.149806
    36  H    0.153462
    37  H    0.151836
    38  H    0.154445
    39  H    0.164320
    40  H    0.159216
 Sum of Mulliken charges =  -0.00000

 Dipole moment (field-independent basis, Debye):
    X=              0.0368    Y=              0.0043    Z=              0.0089  Tot=              0.0381
 Quadrupole moment (field-independent basis, Debye-Ang):
   XX=            -84.8856   YY=            -84.6114   ZZ=            -85.2734
   XY=              0.3420   XZ=              1.3612   YZ=             -0.2851

 Normal termination of Gaussian 16 at Wed May  5 23:12:49 2021.
