 Gaussian 16, Revision A.03,
 Gaussian 16:  EM64L-G16RevA.03 25-Dec-2016

 -------------
 #p 6-31g* mp2
 -------------

 ------------------------------------------------------
 Input file generated by CHIRIPA (05-May-2021 14:55:20)
 ------------------------------------------------------
 Symbolic Z-matrix:
 Charge =  0 Multiplicity = 1

                         Standard orientation:
 ---------------------------------------------------------------------
 Center     Atomic      Atomic             Coordinates (Angstroms)
 Number     Number       Type             X           Y           Z
 ---------------------------------------------------------------------
      1          6           0       -2.323389    2.214005   -0.286096
      2          6           0       -1.736620    1.088913    0.302454
      3          6           0       -2.434752   -0.120205    0.374505
      4          6           0       -3.723628   -0.168907   -0.154378
      5          6           0       -4.335410    0.934663   -0.746954
      6          6           0       -3.618628    2.133431   -0.808001
      7          1           0       -1.773819    3.149257   -0.337793
      8          1           0       -0.730868    1.148567    0.708595
      9          1           0       -2.004468   -1.006555    0.824679
     10          1           0       -5.339554    0.844424   -1.143147
     11          1           0       -4.076833    3.005584   -1.265649
     12          7           0       -4.472581   -1.443468   -0.083925
     13          8           0       -5.606764   -1.460394   -0.557191
     14          8           0       -3.911247   -2.401409    0.443227
     15          6           0        4.065957   -0.249243    0.713183
     16          6           0        3.029184    0.850064    0.946872
     17          6           0        1.950854    0.441855    1.951046
     18          1           0        3.556444   -1.155481    0.358113
     19          1           0        4.535945   -0.510063    1.671556
     20          1           0        2.562272    1.109704   -0.011876
     21          1           0        3.541246    1.753849    1.301245
     22          1           0        2.398549    0.202278    2.920982
     23          1           0        1.414012   -0.445527    1.600400
     24          1           0        1.220168    1.242377    2.103105
     25          6           0        5.150534    0.143884   -0.288250
     26          6           0        6.187307   -0.955423   -0.521939
     27          6           0        7.265636   -0.547214   -1.526113
     28          1           0        4.680545    0.404705   -1.246623
     29          1           0        5.660047    1.050122    0.066821
     30          1           0        5.675245   -1.859208   -0.876312
     31          1           0        6.654219   -1.215063    0.436809
     32          1           0        7.802479    0.340169   -1.175467
     33          1           0        6.817942   -0.307637   -2.496049
     34          1           0        7.996322   -1.347736   -1.678172
 ---------------------------------------------------------------------

 SCF Done:  E(RHF) =  -669.535479299     A.U. after   15 cycles
 E2 =    -0.2091017241D+01 EUMP2 =    -0.67162649654029D+03

 The electronic state is 1-A.
 Alpha  occ. eigenvalues --  -20.60717 -20.60712 -15.85769 -11.31121 -11.27689
 Alpha  occ. eigenvalues --  -11.27671 -11.27419 -11.26707 -11.26624 -11.22486
 Alpha  occ. eigenvalues --  -11.22200 -11.22016 -11.21979 -11.21864 -11.21384
 Alpha  occ. eigenvalues --   -1.59792  -1.39346  -1.19287  -1.09044  -1.08686
 Alpha  occ. eigenvalues --   -1.04687  -1.04188  -0.96653  -0.95525  -0.87677
 Alpha  occ. eigenvalues --   -0.86084  -0.82355  -0.80259  -0.78808  -0.77405
 Alpha  occ. eigenvalues --   -0.71988  -0.71115  -0.70402  -0.65680  -0.64937
 Alpha  occ. eigenvalues --   -0.64718  -0.62119  -0.61532  -0.60039  -0.58239
 Alpha  occ. eigenvalues --   -0.55933  -0.55187  -0.53459  -0.53100  -0.53019
 Alpha  occ. eigenvalues --   -0.52629  -0.50569  -0.48746  -0.48743  -0.48565
 Alpha  occ. eigenvalues --   -0.47276  -0.46360  -0.46254  -0.44755  -0.44424
 Alpha  occ. eigenvalues --   -0.37273  -0.36288
 Alpha virt. eigenvalues --    0.05123   0.11346   0.16611   0.19820   0.22616
 Alpha virt. eigenvalues --    0.23751   0.25869   0.26465   0.26533   0.27917
 Alpha virt. eigenvalues --    0.29249   0.30102   0.30962   0.31455   0.31988

 Mulliken charges:
               1
     1  C   -0.173238
     2  C   -0.227219
     3  C   -0.174500
     4  C    0.158922
     5  C   -0.171458
     6  C   -0.218361
     7  H    0.225516
     8  H    0.237978
     9  H    0.275532
    10  H    0.275286
    11  H    0.223019
    12  N    0.488103
    13  O   -0.460728
    14  O   -0.460593
    15  C   -0.299125
    16  C   -0.301315
    17  C   -0.482677
    18  H    0.151918
    19  H    0.151893
    20  H    0.150138
    21  H    0.154609
    22  H    0.164105
    23  H    0.154828
    24  H    0.153730
    25  C   -0.298843
    26  C   -0.300308
    27  C   -0.476065
    28  H    0.149787
    29  H    0.150083
    30  H    0.153397
    31  H    0.152862
    32  H    0.155323
    33  H    0.155537
    34  H    0.161862
 Sum of Mulliken charges =  -0.00000

 Dipole moment (field-independent basis, Debye):
    X=              2.8922    Y=              4.4526    Z=             -0.2231  Tot=              5.3142
 Quadrupole moment (field-independent basis, Debye-Ang):
   XX=           -111.3117   YY=            -95.8188   ZZ=            -94.1196
   XY=            -19.2501   XZ=              3.7604   YZ=             -1.4704

 Normal termination of Gaussian 16 at Thu May  6 10:48:03 2021.
