 Gaussian 16, Revision A.03,
 Gaussian 16:  EM64L-G16RevA.03 25-Dec-2016

 -------------
 #p 6-31g* mp2
 -------------

 ------------------------------------------------------
 Input file generated by CHIRIPA (05-May-2021 14:55:21)
 ------------------------------------------------------
 Symbolic Z-matrix:
 Charge =  0 Multiplicity = 1

                         Standard orientation:
 ---------------------------------------------------------------------
 Center     Atomic      Atomic             Coordinates (Angstroms)
 Number     Number       Type             X           Y           Z
 ---------------------------------------------------------------------
      1          6           0        0.576312   -2.772288    0.527986
      2          6           0        0.687918   -1.766881    1.494020
      3          6           0        1.461439   -0.628593    1.248025
      4          6           0        2.112742   -0.527908    0.019629
      5          6           0        2.021095   -1.512506   -0.962948
      6          6           0        1.242083   -2.642121   -0.695258
      7          1           0       -0.026711   -3.653169    0.727508
      8          1           0        0.171983   -1.865288    2.444900
      9          1           0        1.565090    0.164859    1.978167
     10          1           0        2.547120   -1.386144   -1.901430
     11          1           0        1.157216   -3.421351   -1.447351
     12          7           0        2.934541    0.672556   -0.252279
     13          8           0        3.498449    0.737396   -1.342435
     14          8           0        2.999198    1.525908    0.629904
     15          6           0       -2.778917    0.241901    0.140843
     16          6           0       -3.970147   -0.266450   -0.671889
     17          6           0       -4.454802   -1.642143   -0.213225
     18          1           0       -1.956100   -0.482157    0.065631
     19          1           0       -3.060191    0.286280    1.202122
     20          1           0       -3.687151   -0.308542   -1.731492
     21          1           0       -4.790157    0.458996   -0.594890
     22          1           0       -4.763732   -1.611438    0.836641
     23          1           0       -3.654460   -2.383336   -0.306419
     24          1           0       -5.306870   -1.986350   -0.807666
     25          6           0       -2.282971    1.616042   -0.305817
     26          6           0       -1.091741    2.124393    0.506917
     27          6           0       -0.607086    3.500085    0.048253
     28          1           0       -2.001697    1.571663   -1.367094
     29          1           0       -3.105788    2.340100   -0.230604
     30          1           0       -0.271732    1.398947    0.429917
     31          1           0       -1.374737    2.166484    1.566519
     32          1           0       -1.407428    4.241279    0.141445
     33          1           0       -0.298156    3.469379   -1.001615
     34          1           0        0.244982    3.844293    0.642694
 ---------------------------------------------------------------------

 SCF Done:  E(RHF) =  -669.535092028     A.U. after   15 cycles
 E2 =    -0.2094440250D+01 EUMP2 =    -0.67162953227766D+03

 The electronic state is 1-A.
 Alpha  occ. eigenvalues --  -20.60894 -20.60878 -15.85927 -11.31291 -11.27873
 Alpha  occ. eigenvalues --  -11.27847 -11.27628 -11.26886 -11.26869 -11.21814
 Alpha  occ. eigenvalues --  -11.21475 -11.21467 -11.21372 -11.21294 -11.20554
 Alpha  occ. eigenvalues --   -1.59952  -1.39506  -1.19491  -1.08877  -1.08451
 Alpha  occ. eigenvalues --   -1.04887  -1.03514  -0.95951  -0.95706  -0.86970
 Alpha  occ. eigenvalues --   -0.86281  -0.82531  -0.79611  -0.78281  -0.77567
 Alpha  occ. eigenvalues --   -0.72147  -0.71282  -0.70585  -0.65152  -0.65084
 Alpha  occ. eigenvalues --   -0.64870  -0.62227  -0.60929  -0.59347  -0.57549
 Alpha  occ. eigenvalues --   -0.55381  -0.55255  -0.53298  -0.52964  -0.52596
 Alpha  occ. eigenvalues --   -0.52382  -0.49916  -0.48909  -0.48902  -0.47922
 Alpha  occ. eigenvalues --   -0.46681  -0.45792  -0.45713  -0.44853  -0.43745
 Alpha  occ. eigenvalues --   -0.37427  -0.36397
 Alpha virt. eigenvalues --    0.04929   0.11085   0.16387   0.21180   0.22846
 Alpha virt. eigenvalues --    0.24199   0.26462   0.26786   0.27837   0.27880
 Alpha virt. eigenvalues --    0.28158   0.30883   0.31428   0.31581   0.31993

 Mulliken charges:
               1
     1  C   -0.171958
     2  C   -0.215107
     3  C   -0.174505
     4  C    0.160516
     5  C   -0.171373
     6  C   -0.218666
     7  H    0.226798
     8  H    0.225180
     9  H    0.277408
    10  H    0.276009
    11  H    0.224075
    12  N    0.489144
    13  O   -0.459750
    14  O   -0.460103
    15  C   -0.303041
    16  C   -0.299040
    17  C   -0.474643
    18  H    0.152401
    19  H    0.145319
    20  H    0.152373
    21  H    0.153231
    22  H    0.154221
    23  H    0.148998
    24  H    0.161226
    25  C   -0.296987
    26  C   -0.305878
    27  C   -0.476185
    28  H    0.150099
    29  H    0.149489
    30  H    0.155027
    31  H    0.146352
    32  H    0.151593
    33  H    0.157057
    34  H    0.170717
 Sum of Mulliken charges =  -0.00000

 Dipole moment (field-independent basis, Debye):
    X=             -2.7156    Y=             -4.2079    Z=              0.9553  Tot=              5.0984
 Quadrupole moment (field-independent basis, Debye-Ang):
   XX=           -107.6392   YY=            -90.7531   ZZ=            -90.3233
   XY=             -8.5913   XZ=              0.5777   YZ=              1.7175

 Normal termination of Gaussian 16 at Wed May  5 23:49:07 2021.
