 Gaussian 16, Revision A.03,
 Gaussian 16:  EM64L-G16RevA.03 25-Dec-2016

 -------------
 #p 6-31g* mp2
 -------------

 ------------------------------------------------------
 Input file generated by CHIRIPA (05-May-2021 14:51:11)
 ------------------------------------------------------
 Symbolic Z-matrix:
 Charge =  0 Multiplicity = 1

                         Standard orientation:
 ---------------------------------------------------------------------
 Center     Atomic      Atomic             Coordinates (Angstroms)
 Number     Number       Type             X           Y           Z
 ---------------------------------------------------------------------
      1          6           0        2.857823   -0.290885   -0.431777
      2          6           0        3.648891   -1.588244   -0.261316
      3          6           0        2.914411   -2.806472   -0.821898
      4          1           0        1.883898   -0.394675    0.065859
      5          1           0        2.648416   -0.134845   -1.499108
      6          1           0        3.857939   -1.741077    0.805247
      7          1           0        4.621123   -1.481284   -0.759252
      8          1           0        2.719205   -2.679999   -1.891711
      9          1           0        1.951684   -2.941268   -0.318323
     10          1           0        3.497789   -3.722990   -0.689510
     11          6           0        3.579048    0.935877    0.123756
     12          6           0        2.787981    2.233236   -0.046705
     13          6           0        3.522461    3.451465    0.513877
     14          1           0        3.788455    0.779838    1.191087
     15          1           0        4.552974    1.039667   -0.373880
     16          1           0        1.815749    2.126277    0.451231
     17          1           0        2.578933    2.386069   -1.113268
     18          1           0        4.485188    3.586260    0.010302
     19          1           0        3.717667    3.324992    1.583690
     20          1           0        2.939083    4.367982    0.381489
     21          6           0       -2.475018   -0.495436    0.124796
     22          6           0       -2.117664   -1.767430    0.894416
     23          6           0       -0.626882   -2.100247    0.826617
     24          1           0       -2.171203   -0.611833   -0.924533
     25          1           0       -1.892180    0.344458    0.527629
     26          1           0       -2.702024   -2.604407    0.491167
     27          1           0       -2.422538   -1.648065    1.941994
     28          1           0       -0.030472   -1.284293    1.247468
     29          1           0       -0.311546   -2.246068   -0.211603
     30          1           0       -0.393612   -3.013151    1.383439
     31          6           0       -3.961854   -0.149556    0.183224
     32          6           0       -4.319208    1.122438   -0.586395
     33          6           0       -5.809989    1.455255   -0.518596
     34          1           0       -4.544691   -0.989450   -0.219608
     35          1           0       -4.265668   -0.033160    1.232555
     36          1           0       -4.014333    1.003073   -1.633973
     37          1           0       -3.734848    1.959414   -0.183146
     38          1           0       -6.125326    1.601077    0.519623
     39          1           0       -6.406399    0.639301   -0.939447
     40          1           0       -6.043260    2.368160   -1.075418
 ---------------------------------------------------------------------

 SCF Done:  E(RHF) =  -470.732240036     A.U. after   11 cycles
 E2 =    -0.1583740200D+01 EUMP2 =    -0.47231598023666D+03

 The electronic state is 1-A.
 Alpha  occ. eigenvalues --  -11.21657 -11.21620 -11.21568 -11.21487 -11.21442
 Alpha  occ. eigenvalues --  -11.21381 -11.21317 -11.21215 -11.21156 -11.21086
 Alpha  occ. eigenvalues --  -11.21048 -11.20885  -1.08474  -1.08343  -1.03594
 Alpha  occ. eigenvalues --   -1.03437  -0.96050  -0.95888  -0.87083  -0.86904
 Alpha  occ. eigenvalues --   -0.79734  -0.79457  -0.78320  -0.78107  -0.65107
 Alpha  occ. eigenvalues --   -0.64985  -0.61000  -0.60853  -0.59409  -0.59273
 Alpha  occ. eigenvalues --   -0.57643  -0.57521  -0.55479  -0.55061  -0.52771
 Alpha  occ. eigenvalues --   -0.52606  -0.52487  -0.52299  -0.50137  -0.49659
 Alpha  occ. eigenvalues --   -0.48174  -0.47720  -0.46680  -0.46501  -0.45996
 Alpha  occ. eigenvalues --   -0.45746  -0.45654  -0.45297  -0.43823  -0.43696
 Alpha virt. eigenvalues --    0.21671   0.23012   0.23788   0.24479   0.25724
 Alpha virt. eigenvalues --    0.26569   0.27147   0.27426   0.27990   0.29606
 Alpha virt. eigenvalues --    0.30750   0.31226   0.31722   0.31875   0.32314

 Mulliken charges:
               1
     1  C   -0.305762
     2  C   -0.298210
     3  C   -0.484486
     4  H    0.157990
     5  H    0.148493
     6  H    0.151084
     7  H    0.151177
     8  H    0.153411
     9  H    0.167146
    10  H    0.159125
    11  C   -0.297886
    12  C   -0.299212
    13  C   -0.475633
    14  H    0.148894
    15  H    0.149402
    16  H    0.150805
    17  H    0.152036
    18  H    0.155247
    19  H    0.154979
    20  H    0.160004
    21  C   -0.298471
    22  C   -0.300267
    23  C   -0.481546
    24  H    0.150354
    25  H    0.149088
    26  H    0.152392
    27  H    0.151885
    28  H    0.157784
    29  H    0.159115
    30  H    0.160591
    31  C   -0.298324
    32  C   -0.299663
    33  C   -0.475741
    34  H    0.149670
    35  H    0.149651
    36  H    0.152106
    37  H    0.152021
    38  H    0.155175
    39  H    0.155218
    40  H    0.160358
 Sum of Mulliken charges =  -0.00000

 Dipole moment (field-independent basis, Debye):
    X=             -0.0786    Y=             -0.0232    Z=              0.0116  Tot=              0.0827
 Quadrupole moment (field-independent basis, Debye-Ang):
   XX=            -86.1132   YY=            -85.5834   ZZ=            -83.3954
   XY=              0.2325   XZ=             -0.3798   YZ=             -0.0484

 Normal termination of Gaussian 16 at Wed May  5 15:14:05 2021.
