 Gaussian 16, Revision A.03,
 Gaussian 16:  EM64L-G16RevA.03 25-Dec-2016

 -------------
 #p 6-31g* mp2
 -------------

 ------------------------------------------------------
 Input file generated by CHIRIPA (05-May-2021 14:57:23)
 ------------------------------------------------------
 Symbolic Z-matrix:
 Charge =  0 Multiplicity = 1

                         Standard orientation:
 ---------------------------------------------------------------------
 Center     Atomic      Atomic             Coordinates (Angstroms)
 Number     Number       Type             X           Y           Z
 ---------------------------------------------------------------------
      1          6           0       -2.383204    1.948047    0.290848
      2          6           0       -3.541020    2.124558   -0.473891
      3          6           0       -4.453757    1.077488   -0.632338
      4          6           0       -4.175930   -0.138185   -0.009249
      5          6           0       -3.031220   -0.345049    0.758954
      6          6           0       -2.132441    0.715979    0.903749
      7          1           0       -1.679590    2.766857    0.408631
      8          1           0       -3.738354    3.080300   -0.951029
      9          1           0       -5.357909    1.186783   -1.218838
     10          1           0       -2.861781   -1.309344    1.222465
     11          1           0       -1.234085    0.576031    1.498237
     12          7           0       -5.134815   -1.254059   -0.169764
     13          8           0       -4.867024   -2.315306    0.389414
     14          8           0       -6.136024   -1.046305   -0.851714
     15          6           0        2.944247    2.224666    0.224726
     16          6           0        4.247474    2.115927   -0.271556
     17          6           0        4.852328    0.863102   -0.409860
     18          6           0        4.121690   -0.265217   -0.040595
     19          6           0        2.821693   -0.189537    0.456968
     20          6           0        2.236763    1.073617    0.586765
     21          1           0        2.482120    3.201903    0.328860
     22          1           0        4.799296    3.008136   -0.553512
     23          1           0        5.859867    0.750101   -0.791325
     24          1           0        2.296707   -1.096966    0.729697
     25          1           0        1.224515    1.155044    0.972472
     26          7           0        4.751477   -1.596994   -0.182508
     27          8           0        4.086594   -2.575822    0.149855
     28          8           0        5.898060   -1.636796   -0.623415
 ---------------------------------------------------------------------

 SCF Done:  E(RHF) =  -868.336071079     A.U. after   16 cycles
 E2 =    -0.2599829602D+01 EUMP2 =    -0.87093590068077D+03

 The electronic state is 1-A.
 Alpha  occ. eigenvalues --  -20.61208 -20.61203 -20.61172 -20.61167 -15.86270
 Alpha  occ. eigenvalues --  -15.86234 -11.31786 -11.31770 -11.28428 -11.28399
 Alpha  occ. eigenvalues --  -11.28354 -11.28350 -11.28249 -11.28217 -11.27565
 Alpha  occ. eigenvalues --  -11.27557 -11.27408 -11.27400  -1.60281  -1.60244
 Alpha  occ. eigenvalues --   -1.39830  -1.39793  -1.19994  -1.19982  -1.09376
 Alpha  occ. eigenvalues --   -1.09358  -1.05443  -1.05407  -0.96171  -0.96160
 Alpha  occ. eigenvalues --   -0.86882  -0.86780  -0.83021  -0.82980  -0.78056
 Alpha  occ. eigenvalues --   -0.77960  -0.72486  -0.72450  -0.71606  -0.71569
 Alpha  occ. eigenvalues --   -0.71140  -0.71110  -0.65724  -0.65657  -0.65628
 Alpha  occ. eigenvalues --   -0.65267  -0.62902  -0.62636  -0.55995  -0.55938
 Alpha  occ. eigenvalues --   -0.53765  -0.53726  -0.53668  -0.53379  -0.49262
 Alpha  occ. eigenvalues --   -0.49229  -0.49220  -0.49191  -0.45202  -0.45160
 Alpha  occ. eigenvalues --   -0.38016  -0.37967  -0.37049  -0.36985
 Alpha virt. eigenvalues --    0.04539   0.04561   0.10491   0.10688   0.15972
 Alpha virt. eigenvalues --    0.16004   0.17674   0.22054   0.24471   0.26516
 Alpha virt. eigenvalues --    0.27972   0.28875   0.29555   0.31180   0.31879

 Mulliken charges:
               1
     1  C   -0.169743
     2  C   -0.218021
     3  C   -0.169466
     4  C    0.159396
     5  C   -0.169212
     6  C   -0.221154
     7  H    0.219434
     8  H    0.224933
     9  H    0.278033
    10  H    0.278479
    11  H    0.217179
    12  N    0.487918
    13  O   -0.458091
    14  O   -0.458648
    15  C   -0.171310
    16  C   -0.218050
    17  C   -0.169704
    18  C    0.159187
    19  C   -0.170504
    20  C   -0.218667
    21  H    0.223062
    22  H    0.225266
    23  H    0.277921
    24  H    0.275826
    25  H    0.215175
    26  N    0.488065
    27  O   -0.458753
    28  O   -0.458552
 Sum of Mulliken charges =  -0.00000

 Dipole moment (field-independent basis, Debye):
    X=              1.1291    Y=              8.5161    Z=              0.9387  Tot=              8.6418
 Quadrupole moment (field-independent basis, Debye-Ang):
   XX=           -144.8493   YY=           -106.6291   ZZ=           -104.0558
   XY=              3.2441   XZ=             -0.0351   YZ=             -3.4552

 Normal termination of Gaussian 16 at Thu May  6 22:44:24 2021.
