 Gaussian 16, Revision A.03,
 Gaussian 16:  EM64L-G16RevA.03 25-Dec-2016

 -------------
 #p 6-31g* mp2
 -------------

 ------------------------------------------------------
 Input file generated by CHIRIPA (05-May-2021 14:51:10)
 ------------------------------------------------------
 Symbolic Z-matrix:
 Charge =  0 Multiplicity = 1

                         Standard orientation:
 ---------------------------------------------------------------------
 Center     Atomic      Atomic             Coordinates (Angstroms)
 Number     Number       Type             X           Y           Z
 ---------------------------------------------------------------------
      1          6           0        2.202751   -1.356299   -0.348550
      2          6           0        1.202702   -2.110135    0.528729
      3          6           0        0.473278   -3.221174   -0.227133
      4          1           0        1.674290   -0.928749   -1.211611
      5          1           0        2.935560   -2.068624   -0.752258
      6          1           0        0.472816   -1.396387    0.931775
      7          1           0        1.733573   -2.535778    1.389902
      8          1           0        1.186546   -3.955227   -0.615740
      9          1           0       -0.081374   -2.809362   -1.076470
     10          1           0       -0.236686   -3.747025    0.418848
     11          6           0        2.939896   -0.242499    0.392932
     12          6           0        3.939945    0.511337   -0.484347
     13          6           0        4.669369    1.622376    0.271515
     14          1           0        2.207087    0.469826    0.796640
     15          1           0        3.468357   -0.670049    1.255993
     16          1           0        3.409074    0.936980   -1.345521
     17          1           0        4.669831   -0.202411   -0.887393
     18          1           0        5.224021    1.210565    1.120852
     19          1           0        3.956101    2.356429    0.660122
     20          1           0        5.379333    2.148227   -0.374466
     21          6           0       -3.053827    0.271686    0.246402
     22          6           0       -2.841390   -1.112587   -0.367310
     23          6           0       -3.814184   -2.157516    0.180037
     24          1           0       -2.944518    0.202791    1.337388
     25          1           0       -4.086454    0.595177    0.055539
     26          1           0       -1.809062   -1.432776   -0.176543
     27          1           0       -2.951028   -1.040352   -1.456978
     28          1           0       -4.849168   -1.864289   -0.023498
     29          1           0       -3.700713   -2.258944    1.264213
     30          1           0       -3.644644   -3.139668   -0.272176
     31          6           0       -2.088820    1.327111   -0.290784
     32          6           0       -2.301256    2.711384    0.322928
     33          6           0       -1.328463    3.756314   -0.224418
     34          1           0       -1.056192    1.003620   -0.099922
     35          1           0       -2.198129    1.396006   -1.381769
     36          1           0       -2.191618    2.639149    1.412596
     37          1           0       -3.333585    3.031573    0.132161
     38          1           0       -1.441934    3.857742   -1.308595
     39          1           0       -0.293479    3.463087   -0.020885
     40          1           0       -1.498003    4.738466    0.227794
 ---------------------------------------------------------------------

 SCF Done:  E(RHF) =  -470.732731358     A.U. after   11 cycles
 E2 =    -0.1584170706D+01 EUMP2 =    -0.47231690206426D+03

 The electronic state is 1-A.
 Alpha  occ. eigenvalues --  -11.21669 -11.21641 -11.21628 -11.21517 -11.21451
 Alpha  occ. eigenvalues --  -11.21440 -11.21392 -11.21361 -11.21117 -11.21091
 Alpha  occ. eigenvalues --  -11.21082 -11.21045  -1.08502  -1.08425  -1.03619
 Alpha  occ. eigenvalues --   -1.03495  -0.96048  -0.95966  -0.87044  -0.86998
 Alpha  occ. eigenvalues --   -0.79655  -0.79587  -0.78301  -0.78261  -0.65348
 Alpha  occ. eigenvalues --   -0.64884  -0.61262  -0.60698  -0.59422  -0.59304
 Alpha  occ. eigenvalues --   -0.57637  -0.57599  -0.55417  -0.55177  -0.52724
 Alpha  occ. eigenvalues --   -0.52662  -0.52450  -0.52398  -0.50044  -0.49868
 Alpha  occ. eigenvalues --   -0.48028  -0.47829  -0.46680  -0.46594  -0.46015
 Alpha  occ. eigenvalues --   -0.45809  -0.45740  -0.45484  -0.43826  -0.43790
 Alpha virt. eigenvalues --    0.19487   0.22633   0.23676   0.24857   0.25877
 Alpha virt. eigenvalues --    0.26555   0.26933   0.27589   0.28417   0.30014
 Alpha virt. eigenvalues --    0.30925   0.31261   0.31679   0.31840   0.32287

 Mulliken charges:
               1
     1  C   -0.298416
     2  C   -0.304696
     3  C   -0.480451
     4  H    0.150621
     5  H    0.149987
     6  H    0.153705
     7  H    0.152782
     8  H    0.156667
     9  H    0.158059
    10  H    0.161135
    11  C   -0.298832
    12  C   -0.299809
    13  C   -0.475673
    14  H    0.148960
    15  H    0.149862
    16  H    0.152408
    17  H    0.152086
    18  H    0.155183
    19  H    0.155067
    20  H    0.160508
    21  C   -0.297241
    22  C   -0.311438
    23  C   -0.475417
    24  H    0.149210
    25  H    0.149515
    26  H    0.166786
    27  H    0.150703
    28  H    0.154984
    29  H    0.154633
    30  H    0.160662
    31  C   -0.300744
    32  C   -0.299585
    33  C   -0.475580
    34  H    0.149898
    35  H    0.149751
    36  H    0.152067
    37  H    0.152356
    38  H    0.155293
    39  H    0.154418
    40  H    0.160579
 Sum of Mulliken charges =  -0.00000

 Dipole moment (field-independent basis, Debye):
    X=              0.0228    Y=             -0.0236    Z=             -0.0130  Tot=              0.0353
 Quadrupole moment (field-independent basis, Debye-Ang):
   XX=            -84.5972   YY=            -85.6880   ZZ=            -84.4134
   XY=             -1.7253   XZ=              0.6239   YZ=             -0.4252

 Normal termination of Gaussian 16 at Thu May  6 03:49:13 2021.
