 Gaussian 16, Revision A.03,
 Gaussian 16:  EM64L-G16RevA.03 25-Dec-2016

 -------------
 #p 6-31g* mp2
 -------------

 ------------------------------------------------------
 Input file generated by CHIRIPA (05-May-2021 14:51:12)
 ------------------------------------------------------
 Symbolic Z-matrix:
 Charge =  0 Multiplicity = 1

                         Standard orientation:
 ---------------------------------------------------------------------
 Center     Atomic      Atomic             Coordinates (Angstroms)
 Number     Number       Type             X           Y           Z
 ---------------------------------------------------------------------
      1          6           0       -4.337989    0.386462   -0.522457
      2          6           0       -2.967595    0.295048    0.149591
      3          6           0       -1.883025    1.056119   -0.613476
      4          1           0       -4.264187   -0.005543   -1.546093
      5          1           0       -4.624737    1.443381   -0.612419
      6          1           0       -2.684137   -0.761447    0.239511
      7          1           0       -3.044712    0.687139    1.171811
      8          1           0       -2.139548    2.117601   -0.691286
      9          1           0       -1.776924    0.660784   -1.628884
     10          1           0       -0.911554    0.977478   -0.115560
     11          6           0       -5.432676   -0.369393    0.228591
     12          6           0       -6.803070   -0.277979   -0.443457
     13          6           0       -7.887640   -1.039050    0.319610
     14          1           0       -5.145928   -1.426311    0.318554
     15          1           0       -5.506478    0.022612    1.252227
     16          1           0       -6.725953   -0.670070   -1.465677
     17          1           0       -7.086528    0.778516   -0.533376
     18          1           0       -7.993741   -0.643715    1.335019
     19          1           0       -7.631117   -2.100531    0.397421
     20          1           0       -8.859111   -0.960409   -0.178305
     21          6           0        4.248262    0.378202   -0.020422
     22          6           0        3.146017    0.213066    1.026370
     23          6           0        1.877855    0.992719    0.677515
     24          1           0        4.489061    1.444992   -0.124909
     25          1           0        3.869567    0.046139   -0.997008
     26          1           0        3.527129    0.544046    2.000958
     27          1           0        2.907948   -0.853472    1.128514
     28          1           0        1.471196    0.657389   -0.282060
     29          1           0        2.093895    2.062847    0.595341
     30          1           0        1.103047    0.860540    1.439133
     31          6           0        5.522403   -0.395270    0.314288
     32          6           0        6.624647   -0.230135   -0.732504
     33          6           0        7.892811   -1.009788   -0.383650
     34          1           0        5.901098   -0.063209    1.290873
     35          1           0        5.281603   -1.462062    0.418774
     36          1           0        6.862718    0.836403   -0.834648
     37          1           0        6.243537   -0.561115   -1.707093
     38          1           0        7.676769   -2.079917   -0.301476
     39          1           0        8.299468   -0.674458    0.575926
     40          1           0        8.667618   -0.877609   -1.145267
 ---------------------------------------------------------------------

 SCF Done:  E(RHF) =  -470.732804649     A.U. after   11 cycles
 E2 =    -0.1582472163D+01 EUMP2 =    -0.47231527681231D+03

 The electronic state is 1-A.
 Alpha  occ. eigenvalues --  -11.21622 -11.21609 -11.21568 -11.21519 -11.21418
 Alpha  occ. eigenvalues --  -11.21359 -11.21352 -11.21289 -11.21103 -11.21077
 Alpha  occ. eigenvalues --  -11.21046 -11.20866  -1.08446  -1.08370  -1.03560
 Alpha  occ. eigenvalues --   -1.03453  -0.96043  -0.95875  -0.87102  -0.86857
 Alpha  occ. eigenvalues --   -0.79664  -0.79484  -0.78257  -0.78186  -0.65078
 Alpha  occ. eigenvalues --   -0.65003  -0.60973  -0.60856  -0.59524  -0.59166
 Alpha  occ. eigenvalues --   -0.57614  -0.57529  -0.55309  -0.55183  -0.53013
 Alpha  occ. eigenvalues --   -0.52509  -0.52372  -0.52162  -0.49936  -0.49833
 Alpha  occ. eigenvalues --   -0.47943  -0.47824  -0.46641  -0.46559  -0.45800
 Alpha  occ. eigenvalues --   -0.45730  -0.45719  -0.45656  -0.43922  -0.43543
 Alpha virt. eigenvalues --    0.22564   0.22980   0.23679   0.24823   0.26598
 Alpha virt. eigenvalues --    0.26709   0.26980   0.27430   0.27616   0.28933
 Alpha virt. eigenvalues --    0.30744   0.31046   0.31469   0.31668   0.32128

 Mulliken charges:
               1
     1  C   -0.298234
     2  C   -0.298814
     3  C   -0.486418
     4  H    0.149393
     5  H    0.149399
     6  H    0.151170
     7  H    0.151224
     8  H    0.154291
     9  H    0.153352
    10  H    0.174211
    11  C   -0.298143
    12  C   -0.299571
    13  C   -0.475658
    14  H    0.149299
    15  H    0.149478
    16  H    0.151842
    17  H    0.151876
    18  H    0.155114
    19  H    0.155089
    20  H    0.160132
    21  C   -0.298749
    22  C   -0.299590
    23  C   -0.479588
    24  H    0.149762
    25  H    0.149851
    26  H    0.151965
    27  H    0.152101
    28  H    0.158280
    29  H    0.156130
    30  H    0.160657
    31  C   -0.298339
    32  C   -0.299651
    33  C   -0.475714
    34  H    0.149568
    35  H    0.149662
    36  H    0.151987
    37  H    0.151971
    38  H    0.155180
    39  H    0.155192
    40  H    0.160295
 Sum of Mulliken charges =  -0.00000

 Dipole moment (field-independent basis, Debye):
    X=              0.0688    Y=              0.0096    Z=              0.0104  Tot=              0.0703
 Quadrupole moment (field-independent basis, Debye-Ang):
   XX=            -86.5956   YY=            -83.9065   ZZ=            -84.4750
   XY=              0.1999   XZ=              0.3086   YZ=              1.1949

 Normal termination of Gaussian 16 at Thu May  6 00:43:29 2021.
