 Gaussian 16, Revision A.03,
 Gaussian 16:  EM64L-G16RevA.03 25-Dec-2016

 -------------
 #p 6-31g* mp2
 -------------

 ------------------------------------------------------
 Input file generated by CHIRIPA (05-May-2021 14:53:15)
 ------------------------------------------------------
 Symbolic Z-matrix:
 Charge =  0 Multiplicity = 1

                         Standard orientation:
 ---------------------------------------------------------------------
 Center     Atomic      Atomic             Coordinates (Angstroms)
 Number     Number       Type             X           Y           Z
 ---------------------------------------------------------------------
      1          6           0       -3.310137    0.903995    0.103101
      2          6           0       -4.327345    2.017903    0.353062
      3          6           0       -3.670174    3.382438    0.562743
      4          1           0       -2.616682    0.851781    0.953594
      5          1           0       -2.705491    1.160068   -0.777935
      6          1           0       -4.930813    1.759147    1.232544
      7          1           0       -5.018576    2.067345   -0.498038
      8          1           0       -3.082909    3.666381   -0.316516
      9          1           0       -2.994647    3.356433    1.423898
     10          1           0       -4.415551    4.164067    0.739743
     11          6           0       -3.951830   -0.466130   -0.108361
     12          6           0       -2.934621   -1.580039   -0.358321
     13          6           0       -3.591792   -2.944573   -0.568002
     14          1           0       -4.556476   -0.722204    0.772676
     15          1           0       -4.645285   -0.413916   -0.958854
     16          1           0       -2.243390   -1.629480    0.492778
     17          1           0       -2.331154   -1.321283   -1.237803
     18          1           0       -4.267320   -2.918568   -1.429157
     19          1           0       -4.179057   -3.228517    0.311257
     20          1           0       -2.846416   -3.726203   -0.745003
     21          6           0        1.039440   -1.883567    0.452625
     22          6           0        2.155135   -1.802220    1.292346
     23          6           0        3.157087   -0.857236    1.052251
     24          6           0        3.010459   -0.005480   -0.041505
     25          6           0        1.910733   -0.061884   -0.896321
     26          6           0        0.921008   -1.014672   -0.637106
     27          1           0        0.265849   -2.620684    0.646563
     28          1           0        2.249758   -2.475725    2.139388
     29          1           0        4.031292   -0.772514    1.686291
     30          1           0        1.844310    0.623091   -1.732870
     31          1           0        0.055643   -1.075568   -1.290927
     32          7           0        4.064707    0.999062   -0.305803
     33          8           0        3.911969    1.737987   -1.276009
     34          8           0        5.023803    1.028478    0.462251
 ---------------------------------------------------------------------

 SCF Done:  E(RHF) =  -669.535181146     A.U. after   15 cycles
 E2 =    -0.2092054985D+01 EUMP2 =    -0.67162723613106D+03

 The electronic state is 1-A.
 Alpha  occ. eigenvalues --  -20.60712 -20.60707 -15.85764 -11.31116 -11.27681
 Alpha  occ. eigenvalues --  -11.27660 -11.27396 -11.26700 -11.26629 -11.22823
 Alpha  occ. eigenvalues --  -11.22234 -11.22128 -11.22099 -11.22028 -11.21408
 Alpha  occ. eigenvalues --   -1.59788  -1.39342  -1.19280  -1.09236  -1.08675
 Alpha  occ. eigenvalues --   -1.04682  -1.04311  -0.96718  -0.95517  -0.87738
 Alpha  occ. eigenvalues --   -0.86081  -0.82349  -0.80450  -0.79011  -0.77393
 Alpha  occ. eigenvalues --   -0.71983  -0.71110  -0.70392  -0.65871  -0.64929
 Alpha  occ. eigenvalues --   -0.64694  -0.62066  -0.61690  -0.60123  -0.58334
 Alpha  occ. eigenvalues --   -0.55985  -0.55178  -0.53448  -0.53151  -0.53006
 Alpha  occ. eigenvalues --   -0.52774  -0.50653  -0.48800  -0.48740  -0.48644
 Alpha  occ. eigenvalues --   -0.47462  -0.46527  -0.46432  -0.44751  -0.44550
 Alpha  occ. eigenvalues --   -0.37248  -0.36276
 Alpha virt. eigenvalues --    0.05112   0.11327   0.16559   0.19669   0.22555
 Alpha virt. eigenvalues --    0.23696   0.24401   0.25903   0.26844   0.28280
 Alpha virt. eigenvalues --    0.29168   0.29660   0.31061   0.31521   0.31701

 Mulliken charges:
               1
     1  C   -0.299091
     2  C   -0.300388
     3  C   -0.476270
     4  H    0.151825
     5  H    0.147413
     6  H    0.152827
     7  H    0.152841
     8  H    0.156488
     9  H    0.156701
    10  H    0.162150
    11  C   -0.297834
    12  C   -0.307026
    13  C   -0.476020
    14  H    0.152439
    15  H    0.152578
    16  H    0.149764
    17  H    0.146954
    18  H    0.160109
    19  H    0.159091
    20  H    0.156579
    21  C   -0.175081
    22  C   -0.218805
    23  C   -0.171395
    24  C    0.158820
    25  C   -0.172584
    26  C   -0.219600
    27  H    0.227393
    28  H    0.222952
    29  H    0.275201
    30  H    0.275311
    31  H    0.229940
    32  N    0.488036
    33  O   -0.460607
    34  O   -0.460710
 Sum of Mulliken charges =  -0.00000

 Dipole moment (field-independent basis, Debye):
    X=             -3.9458    Y=             -3.4728    Z=              0.9648  Tot=              5.3442
 Quadrupole moment (field-independent basis, Debye-Ang):
   XX=           -115.7914   YY=            -95.7539   ZZ=            -90.9816
   XY=            -12.0370   XZ=              5.2758   YZ=             -1.7346

 Normal termination of Gaussian 16 at Thu May  6 07:27:26 2021.
