 Gaussian 16, Revision A.03,
 Gaussian 16:  EM64L-G16RevA.03 25-Dec-2016

 -------------
 #p 6-31g* mp2
 -------------

 ------------------------------------------------------
 Input file generated by CHIRIPA (05-May-2021 14:51:10)
 ------------------------------------------------------
 Symbolic Z-matrix:
 Charge =  0 Multiplicity = 1

                         Standard orientation:
 ---------------------------------------------------------------------
 Center     Atomic      Atomic             Coordinates (Angstroms)
 Number     Number       Type             X           Y           Z
 ---------------------------------------------------------------------
      1          6           0       -2.503255    0.746021   -0.577671
      2          6           0       -1.739538    2.070416   -0.604125
      3          6           0       -2.015282    2.886695   -1.867235
      4          1           0       -2.232068    0.155932   -1.463784
      5          1           0       -3.580126    0.950137   -0.655639
      6          1           0       -0.664512    1.863939   -0.524737
      7          1           0       -2.012429    2.657340    0.282254
      8          1           0       -3.081445    3.121687   -1.948948
      9          1           0       -1.725869    2.323778   -2.760524
     10          1           0       -1.459270    3.829407   -1.865363
     11          6           0       -2.237945   -0.081298    0.678865
     12          6           0       -3.001662   -1.405693    0.705319
     13          6           0       -2.725917   -2.221972    1.968429
     14          1           0       -1.161073   -0.285414    0.756833
     15          1           0       -2.509131    0.508791    1.564978
     16          1           0       -2.728770   -1.992616   -0.181060
     17          1           0       -4.076688   -1.199215    0.625931
     18          1           0       -3.015330   -1.659054    2.861718
     19          1           0       -1.659754   -2.456963    2.050142
     20          1           0       -3.281930   -3.164684    1.966557
     21          6           0        2.157147    0.268344    0.370144
     22          6           0        3.333048    1.113998    0.860156
     23          6           0        2.889977    2.312049    1.700484
     24          1           0        1.479342    0.900875   -0.219290
     25          1           0        1.581239   -0.083684    1.237207
     26          1           0        3.907365    1.463181   -0.007513
     27          1           0        4.008232    0.479337    1.448329
     28          1           0        2.335429    1.979061    2.583772
     29          1           0        2.233988    2.968495    1.119658
     30          1           0        3.746381    2.902752    2.040340
     31          6           0        2.584052   -0.933068   -0.471337
     32          6           0        1.408151   -1.778722   -0.961349
     33          6           0        1.851223   -2.976772   -1.801679
     34          1           0        3.159960   -0.581040   -1.338401
     35          1           0        3.261857   -1.565598    0.118095
     36          1           0        0.732968   -1.144060   -1.549524
     37          1           0        0.833835   -2.127904   -0.093681
     38          1           0        2.507211   -3.633219   -1.220852
     39          1           0        2.405771   -2.643785   -2.684966
     40          1           0        0.994819   -3.567476   -2.141534
 ---------------------------------------------------------------------

 SCF Done:  E(RHF) =  -470.733039825     A.U. after   11 cycles
 E2 =    -0.1584775846D+01 EUMP2 =    -0.47231781567079D+03

 The electronic state is 1-A.
 Alpha  occ. eigenvalues --  -11.21722 -11.21656 -11.21548 -11.21546 -11.21491
 Alpha  occ. eigenvalues --  -11.21429 -11.21338 -11.21247 -11.21156 -11.21095
 Alpha  occ. eigenvalues --  -11.21066 -11.21061  -1.08536  -1.08360  -1.03607
 Alpha  occ. eigenvalues --   -1.03494  -0.96051  -0.95944  -0.87067  -0.86961
 Alpha  occ. eigenvalues --   -0.79689  -0.79543  -0.78491  -0.78052  -0.65195
 Alpha  occ. eigenvalues --   -0.64979  -0.61002  -0.60905  -0.59425  -0.59305
 Alpha  occ. eigenvalues --   -0.57672  -0.57548  -0.55361  -0.55213  -0.52746
 Alpha  occ. eigenvalues --   -0.52650  -0.52476  -0.52371  -0.50022  -0.49874
 Alpha  occ. eigenvalues --   -0.48062  -0.47842  -0.46818  -0.46616  -0.46390
 Alpha  occ. eigenvalues --   -0.45706  -0.45654  -0.45049  -0.43859  -0.43734
 Alpha virt. eigenvalues --    0.19852   0.22164   0.23376   0.24195   0.25285
 Alpha virt. eigenvalues --    0.26469   0.26992   0.27340   0.28061   0.30468
 Alpha virt. eigenvalues --    0.31083   0.31398   0.31747   0.31880   0.32138

 Mulliken charges:
               1
     1  C   -0.297921
     2  C   -0.308292
     3  C   -0.475126
     4  H    0.149372
     5  H    0.149277
     6  H    0.159041
     7  H    0.152138
     8  H    0.155394
     9  H    0.154449
    10  H    0.159736
    11  C   -0.305350
    12  C   -0.299456
    13  C   -0.476154
    14  H    0.158533
    15  H    0.148761
    16  H    0.152175
    17  H    0.151626
    18  H    0.155162
    19  H    0.154396
    20  H    0.160194
    21  C   -0.308433
    22  C   -0.299106
    23  C   -0.476155
    24  H    0.157687
    25  H    0.151169
    26  H    0.151954
    27  H    0.152155
    28  H    0.155627
    29  H    0.155641
    30  H    0.160413
    31  C   -0.297570
    32  C   -0.303182
    33  C   -0.475719
    34  H    0.149789
    35  H    0.150081
    36  H    0.152645
    37  H    0.153351
    38  H    0.155652
    39  H    0.155549
    40  H    0.160499
 Sum of Mulliken charges =  -0.00000

 Dipole moment (field-independent basis, Debye):
    X=              0.0632    Y=             -0.0071    Z=              0.0058  Tot=              0.0639
 Quadrupole moment (field-independent basis, Debye-Ang):
   XX=            -84.2257   YY=            -85.5881   ZZ=            -84.9839
   XY=             -0.1896   XZ=             -0.3073   YZ=             -0.1615

 Normal termination of Gaussian 16 at Wed May  5 15:11:50 2021.
