 Gaussian 16, Revision A.03,
 Gaussian 16:  EM64L-G16RevA.03 25-Dec-2016

 -------------
 #p 6-31g* mp2
 -------------

 ------------------------------------------------------
 Input file generated by CHIRIPA (05-May-2021 14:51:09)
 ------------------------------------------------------
 Symbolic Z-matrix:
 Charge =  0 Multiplicity = 1

                         Standard orientation:
 ---------------------------------------------------------------------
 Center     Atomic      Atomic             Coordinates (Angstroms)
 Number     Number       Type             X           Y           Z
 ---------------------------------------------------------------------
      1          6           0       -3.335405    0.447869   -0.045610
      2          6           0       -3.265349   -0.935862   -0.692422
      3          6           0       -4.593409   -1.690076   -0.620235
      4          1           0       -3.640790    0.339872    1.004162
      5          1           0       -4.120025    1.036916   -0.540372
      6          1           0       -2.480155   -1.521647   -0.197505
      7          1           0       -2.959909   -0.824573   -1.740724
      8          1           0       -5.383079   -1.129423   -1.130815
      9          1           0       -4.900599   -1.830458    0.421172
     10          1           0       -4.520775   -2.676662   -1.088458
     11          6           0       -2.015402    1.214155   -0.109839
     12          6           0       -2.085458    2.597886    0.536973
     13          6           0       -0.757397    3.352100    0.464786
     14          1           0       -1.230782    0.625108    0.384923
     15          1           0       -1.710016    1.322152   -1.159611
     16          1           0       -2.390898    2.486597    1.585275
     17          1           0       -2.870652    3.183671    0.042056
     18          1           0       -0.450208    3.492482   -0.576621
     19          1           0        0.032272    2.791448    0.975366
     20          1           0       -0.830032    4.338686    0.933009
     21          6           0        3.056489   -0.401684   -0.426144
     22          6           0        4.362115    0.169070    0.128441
     23          6           0        5.113110    1.025719   -0.891341
     24          1           0        3.276346   -1.001455   -1.319947
     25          1           0        2.413305    0.426061   -0.755607
     26          1           0        5.002075   -0.659443    0.458034
     27          1           0        4.139145    0.767394    1.021138
     28          1           0        4.496409    1.871261   -1.212809
     29          1           0        5.364242    0.436315   -1.779111
     30          1           0        6.043353    1.423603   -0.473976
     31          6           0        2.294318   -1.260339    0.581594
     32          6           0        0.988692   -1.831095    0.027008
     33          6           0        0.237697   -2.687743    1.046791
     34          1           0        2.937503   -2.088085    0.911057
     35          1           0        2.074460   -0.660570    1.475397
     36          1           0        1.211661   -2.429419   -0.865689
     37          1           0        0.348731   -1.002581   -0.302585
     38          1           0       -0.013436   -2.098340    1.934561
     39          1           0        0.854398   -3.533284    1.368258
     40          1           0       -0.692547   -3.085628    0.629425
 ---------------------------------------------------------------------

 SCF Done:  E(RHF) =  -470.732832561     A.U. after   11 cycles
 E2 =    -0.1584161664D+01 EUMP2 =    -0.47231699422575D+03

 The electronic state is 1-A.
 Alpha  occ. eigenvalues --  -11.21656 -11.21584 -11.21575 -11.21541 -11.21440
 Alpha  occ. eigenvalues --  -11.21392 -11.21376 -11.21331 -11.21145 -11.21107
 Alpha  occ. eigenvalues --  -11.21071 -11.21050  -1.08486  -1.08400  -1.03568
 Alpha  occ. eigenvalues --   -1.03518  -0.96016  -0.95982  -0.87047  -0.86981
 Alpha  occ. eigenvalues --   -0.79645  -0.79571  -0.78381  -0.78140  -0.65259
 Alpha  occ. eigenvalues --   -0.64917  -0.60989  -0.60922  -0.59456  -0.59276
 Alpha  occ. eigenvalues --   -0.57640  -0.57579  -0.55345  -0.55235  -0.52725
 Alpha  occ. eigenvalues --   -0.52667  -0.52491  -0.52362  -0.50014  -0.49870
 Alpha  occ. eigenvalues --   -0.48025  -0.47834  -0.46781  -0.46603  -0.46045
 Alpha  occ. eigenvalues --   -0.45769  -0.45749  -0.45237  -0.43815  -0.43767
 Alpha virt. eigenvalues --    0.20351   0.22660   0.23808   0.24410   0.26130
 Alpha virt. eigenvalues --    0.26665   0.27136   0.27426   0.27716   0.30089
 Alpha virt. eigenvalues --    0.30343   0.31533   0.31635   0.31754   0.32081

 Mulliken charges:
               1
     1  C   -0.297429
     2  C   -0.308048
     3  C   -0.475495
     4  H    0.149483
     5  H    0.149591
     6  H    0.161034
     7  H    0.151748
     8  H    0.155199
     9  H    0.155197
    10  H    0.160038
    11  C   -0.304610
    12  C   -0.299135
    13  C   -0.475999
    14  H    0.155518
    15  H    0.149476
    16  H    0.152026
    17  H    0.152335
    18  H    0.155226
    19  H    0.154383
    20  H    0.160769
    21  C   -0.298792
    22  C   -0.299544
    23  C   -0.475771
    24  H    0.149634
    25  H    0.150453
    26  H    0.151810
    27  H    0.151801
    28  H    0.155506
    29  H    0.155064
    30  H    0.160186
    31  C   -0.298002
    32  C   -0.308089
    33  C   -0.478813
    34  H    0.149561
    35  H    0.148552
    36  H    0.152156
    37  H    0.160650
    38  H    0.154107
    39  H    0.155937
    40  H    0.162287
 Sum of Mulliken charges =  -0.00000

 Dipole moment (field-independent basis, Debye):
    X=             -0.0166    Y=              0.0073    Z=             -0.0107  Tot=              0.0210
 Quadrupole moment (field-independent basis, Debye-Ang):
   XX=            -85.7489   YY=            -84.7811   ZZ=            -84.2812
   XY=             -1.5561   XZ=              0.4266   YZ=              0.3068

 Normal termination of Gaussian 16 at Thu May  6 02:10:14 2021.
