 Gaussian 16, Revision A.03,
 Gaussian 16:  EM64L-G16RevA.03 25-Dec-2016

 -------------
 #p 6-31g* mp2
 -------------

 ------------------------------------------------------
 Input file generated by CHIRIPA (05-May-2021 14:51:12)
 ------------------------------------------------------
 Symbolic Z-matrix:
 Charge =  0 Multiplicity = 1

                         Standard orientation:
 ---------------------------------------------------------------------
 Center     Atomic      Atomic             Coordinates (Angstroms)
 Number     Number       Type             X           Y           Z
 ---------------------------------------------------------------------
      1          6           0        2.686307    1.129168    0.431852
      2          6           0        2.262626    2.495323   -0.108610
      3          6           0        2.055321    3.530289    0.997584
      4          1           0        1.924069    0.767949    1.135739
      5          1           0        3.615100    1.242508    1.007953
      6          1           0        1.335655    2.379212   -0.684681
      7          1           0        3.025869    2.853246   -0.811439
      8          1           0        2.978870    3.675468    1.567304
      9          1           0        1.279053    3.198741    1.694782
     10          1           0        1.752848    4.499523    0.588982
     11          6           0        2.897438    0.083866   -0.661993
     12          6           0        3.321119   -1.282289   -0.121531
     13          6           0        3.528424   -2.317254   -1.227726
     14          1           0        1.968645   -0.029474   -1.238095
     15          1           0        3.659676    0.445086   -1.365881
     16          1           0        2.557876   -1.640212    0.581297
     17          1           0        4.248091   -1.166177    0.454540
     18          1           0        4.304693   -1.985707   -1.924923
     19          1           0        2.604875   -2.462434   -1.797445
     20          1           0        3.830897   -3.286488   -0.819123
     21          6           0       -3.424602   -0.189662    0.211599
     22          6           0       -3.703841    0.766244   -0.948683
     23          6           0       -4.972950    1.593282   -0.740926
     24          1           0       -4.284571   -0.861115    0.340233
     25          1           0       -3.338062    0.389087    1.141628
     26          1           0       -3.788455    0.186002   -1.876463
     27          1           0       -2.843027    1.435374   -1.074694
     28          1           0       -4.894789    2.196808    0.169155
     29          1           0       -5.845589    0.940338   -0.637170
     30          1           0       -5.153500    2.269752   -1.582146
     31          6           0       -2.159144   -1.023372    0.018543
     32          6           0       -1.879904   -1.979278    1.178825
     33          6           0       -0.610795   -2.806317    0.971067
     34          1           0       -2.245683   -1.602122   -0.911487
     35          1           0       -1.299173   -0.351919   -0.110091
     36          1           0       -2.740719   -2.648408    1.304835
     37          1           0       -1.795291   -1.399036    2.106605
     38          1           0        0.261845   -2.153372    0.867311
     39          1           0       -0.688956   -3.409842    0.060985
     40          1           0       -0.430245   -3.482787    1.812287
 ---------------------------------------------------------------------

 SCF Done:  E(RHF) =  -470.733377520     A.U. after   11 cycles
 E2 =    -0.1583138133D+01 EUMP2 =    -0.47231651565345D+03

 The electronic state is 1-A.
 Alpha  occ. eigenvalues --  -11.21662 -11.21644 -11.21641 -11.21571 -11.21469
 Alpha  occ. eigenvalues --  -11.21433 -11.21406 -11.21366 -11.21120 -11.21108
 Alpha  occ. eigenvalues --  -11.21100 -11.21032  -1.08491  -1.08445  -1.03589
 Alpha  occ. eigenvalues --   -1.03529  -0.96034  -0.95983  -0.87054  -0.86997
 Alpha  occ. eigenvalues --   -0.79672  -0.79576  -0.78305  -0.78257  -0.65224
 Alpha  occ. eigenvalues --   -0.64994  -0.61093  -0.60843  -0.59395  -0.59355
 Alpha  occ. eigenvalues --   -0.57643  -0.57590  -0.55356  -0.55244  -0.52721
 Alpha  occ. eigenvalues --   -0.52679  -0.52477  -0.52389  -0.50081  -0.49848
 Alpha  occ. eigenvalues --   -0.48049  -0.47844  -0.46805  -0.46519  -0.45950
 Alpha  occ. eigenvalues --   -0.45791  -0.45721  -0.45581  -0.43837  -0.43795
 Alpha virt. eigenvalues --    0.19582   0.23033   0.23841   0.24811   0.25626
 Alpha virt. eigenvalues --    0.26450   0.26948   0.27707   0.28499   0.29379
 Alpha virt. eigenvalues --    0.30772   0.31516   0.31764   0.31878   0.31926

 Mulliken charges:
               1
     1  C   -0.298706
     2  C   -0.299728
     3  C   -0.475672
     4  H    0.148737
     5  H    0.149946
     6  H    0.151535
     7  H    0.152346
     8  H    0.155417
     9  H    0.154821
    10  H    0.160401
    11  C   -0.299356
    12  C   -0.305704
    13  C   -0.475534
    14  H    0.150302
    15  H    0.149951
    16  H    0.157665
    17  H    0.152065
    18  H    0.154874
    19  H    0.155830
    20  H    0.160444
    21  C   -0.298322
    22  C   -0.299654
    23  C   -0.475750
    24  H    0.149975
    25  H    0.149622
    26  H    0.152037
    27  H    0.151709
    28  H    0.155317
    29  H    0.155273
    30  H    0.160433
    31  C   -0.299101
    32  C   -0.299325
    33  C   -0.482822
    34  H    0.149750
    35  H    0.149250
    36  H    0.152368
    37  H    0.151860
    38  H    0.161358
    39  H    0.155647
    40  H    0.160741
 Sum of Mulliken charges =  -0.00000

 Dipole moment (field-independent basis, Debye):
    X=             -0.0075    Y=             -0.0138    Z=             -0.0023  Tot=              0.0159
 Quadrupole moment (field-independent basis, Debye-Ang):
   XX=            -84.2480   YY=            -85.3026   ZZ=            -85.0389
   XY=              1.4563   XZ=              0.3215   YZ=             -0.2747

 Normal termination of Gaussian 16 at Wed May  5 18:20:15 2021.
