 Gaussian 16, Revision A.03,
 Gaussian 16:  EM64L-G16RevA.03 25-Dec-2016

 -------------
 #p 6-31g* mp2
 -------------

 ------------------------------------------------------
 Input file generated by CHIRIPA (05-May-2021 14:51:13)
 ------------------------------------------------------
 Symbolic Z-matrix:
 Charge =  0 Multiplicity = 1

                         Standard orientation:
 ---------------------------------------------------------------------
 Center     Atomic      Atomic             Coordinates (Angstroms)
 Number     Number       Type             X           Y           Z
 ---------------------------------------------------------------------
      1          6           0       -2.371955    1.368223    0.354067
      2          6           0       -1.843573    2.413189   -0.629215
      3          6           0       -1.070305    3.537002    0.061359
      4          1           0       -3.020006    1.862088    1.091001
      5          1           0       -1.528183    0.943056    0.915027
      6          1           0       -2.687945    2.835266   -1.189128
      7          1           0       -1.196858    1.916748   -1.364009
      8          1           0       -0.209750    3.134610    0.605536
      9          1           0       -1.709310    4.058347    0.781410
     10          1           0       -0.701631    4.272849   -0.660076
     11          6           0       -3.147189    0.238313   -0.321244
     12          6           0       -3.675571   -0.806653    0.662037
     13          6           0       -4.448840   -1.930467   -0.028537
     14          1           0       -3.990962    0.663480   -0.882205
     15          1           0       -2.499139   -0.255552   -1.058179
     16          1           0       -4.322286   -0.310212    1.396831
     17          1           0       -2.831199   -1.228731    1.221950
     18          1           0       -3.809835   -2.451811   -0.748588
     19          1           0       -5.309394   -1.528074   -0.572714
     20          1           0       -4.817513   -2.666314    0.692898
     21          6           0        3.517262   -0.749587   -0.096766
     22          6           0        4.068457    0.631488    0.259321
     23          6           0        5.585659    0.723196    0.093542
     24          1           0        4.002981   -1.505399    0.535508
     25          1           0        3.788793   -0.988710   -1.134305
     26          1           0        3.794780    0.868521    1.295435
     27          1           0        3.581230    1.384120   -0.373743
     28          1           0        5.873524    0.512519   -0.941518
     29          1           0        6.088288   -0.006011    0.737144
     30          1           0        5.958453    1.718865    0.353404
     31          6           0        2.001883   -0.856948    0.063944
     32          6           0        1.450687   -2.238024   -0.292143
     33          6           0       -0.066515   -2.329732   -0.126365
     34          1           0        1.730351   -0.617827    1.101484
     35          1           0        1.516163   -0.101138   -0.568331
     36          1           0        1.937915   -2.990656    0.340920
     37          1           0        1.724364   -2.475057   -1.328257
     38          1           0       -0.569144   -1.600525   -0.769965
     39          1           0       -0.354380   -2.119054    0.908696
     40          1           0       -0.439307   -3.325401   -0.386227
 ---------------------------------------------------------------------

 SCF Done:  E(RHF) =  -470.732936769     A.U. after   11 cycles
 E2 =    -0.1584139978D+01 EUMP2 =    -0.47231707674700D+03

 The electronic state is 1-A.
 Alpha  occ. eigenvalues --  -11.21687 -11.21646 -11.21578 -11.21489 -11.21478
 Alpha  occ. eigenvalues --  -11.21421 -11.21327 -11.21263 -11.21161 -11.21103
 Alpha  occ. eigenvalues --  -11.21041 -11.20976  -1.08510  -1.08355  -1.03607
 Alpha  occ. eigenvalues --   -1.03454  -0.96057  -0.95910  -0.87090  -0.86914
 Alpha  occ. eigenvalues --   -0.79672  -0.79526  -0.78320  -0.78182  -0.65178
 Alpha  occ. eigenvalues --   -0.64977  -0.61002  -0.60875  -0.59420  -0.59281
 Alpha  occ. eigenvalues --   -0.57660  -0.57518  -0.55443  -0.55117  -0.52739
 Alpha  occ. eigenvalues --   -0.52615  -0.52478  -0.52334  -0.50052  -0.49818
 Alpha  occ. eigenvalues --   -0.48026  -0.47798  -0.46822  -0.46488  -0.45990
 Alpha  occ. eigenvalues --   -0.45854  -0.45531  -0.45466  -0.43855  -0.43714
 Alpha virt. eigenvalues --    0.19989   0.22654   0.23685   0.24544   0.25260
 Alpha virt. eigenvalues --    0.26020   0.27470   0.27718   0.27968   0.30211
 Alpha virt. eigenvalues --    0.30527   0.30964   0.31439   0.31837   0.32406

 Mulliken charges:
               1
     1  C   -0.300020
     2  C   -0.299452
     3  C   -0.476091
     4  H    0.149449
     5  H    0.151459
     6  H    0.151894
     7  H    0.150655
     8  H    0.155971
     9  H    0.155133
    10  H    0.159857
    11  C   -0.300914
    12  C   -0.302190
    13  C   -0.476303
    14  H    0.149337
    15  H    0.151890
    16  H    0.151132
    17  H    0.156387
    18  H    0.156218
    19  H    0.154538
    20  H    0.159685
    21  C   -0.298307
    22  C   -0.299873
    23  C   -0.475758
    24  H    0.149969
    25  H    0.149787
    26  H    0.151943
    27  H    0.152228
    28  H    0.155275
    29  H    0.155248
    30  H    0.160535
    31  C   -0.299403
    32  C   -0.300133
    33  C   -0.481758
    34  H    0.149404
    35  H    0.149912
    36  H    0.152380
    37  H    0.152196
    38  H    0.160270
    39  H    0.156489
    40  H    0.160959
 Sum of Mulliken charges =  -0.00000

 Dipole moment (field-independent basis, Debye):
    X=              0.0477    Y=             -0.0305    Z=              0.0089  Tot=              0.0573
 Quadrupole moment (field-independent basis, Debye-Ang):
   XX=            -85.6508   YY=            -85.2385   ZZ=            -83.9558
   XY=             -1.2457   XZ=             -0.1094   YZ=             -0.5167

 Normal termination of Gaussian 16 at Wed May  5 15:19:37 2021.
