 Gaussian 16, Revision A.03,
 Gaussian 16:  EM64L-G16RevA.03 25-Dec-2016

 -------------
 #p 6-31g* mp2
 -------------

 ------------------------------------------------------
 Input file generated by CHIRIPA (05-May-2021 14:53:16)
 ------------------------------------------------------
 Symbolic Z-matrix:
 Charge =  0 Multiplicity = 1

                         Standard orientation:
 ---------------------------------------------------------------------
 Center     Atomic      Atomic             Coordinates (Angstroms)
 Number     Number       Type             X           Y           Z
 ---------------------------------------------------------------------
      1          6           0       -4.607520    0.064851   -0.364306
      2          6           0       -5.628283    1.065859    0.177919
      3          6           0       -6.598950    1.560216   -0.895025
      4          1           0       -4.043959    0.532673   -1.183139
      5          1           0       -5.140194   -0.791401   -0.800753
      6          1           0       -5.093815    1.919322    0.614453
      7          1           0       -6.189348    0.595664    0.995683
      8          1           0       -7.157891    0.722439   -1.324344
      9          1           0       -6.056133    2.053617   -1.707741
     10          1           0       -7.319865    2.274776   -0.485701
     11          6           0       -3.630204   -0.438519    0.696449
     12          6           0       -2.609441   -1.439528    0.154223
     13          6           0       -1.638774   -1.933885    1.227168
     14          1           0       -3.097529    0.417732    1.132896
     15          1           0       -4.193765   -0.906341    1.515282
     16          1           0       -2.048376   -0.969332   -0.663541
     17          1           0       -3.143909   -2.292990   -0.282310
     18          1           0       -2.181591   -2.427286    2.039883
     19          1           0       -1.079833   -1.096107    1.656487
     20          1           0       -0.917859   -2.648444    0.817844
     21          6           0        4.093226    2.463638    0.347797
     22          6           0        4.986118    1.410845    0.122205
     23          6           0        4.512345    0.122596   -0.143316
     24          6           0        3.133234   -0.078100   -0.175910
     25          6           0        2.218332    0.950277    0.044737
     26          6           0        2.714614    2.230406    0.308413
     27          1           0        4.470007    3.461227    0.553344
     28          1           0        6.057282    1.589047    0.152177
     29          1           0        5.181276   -0.710571   -0.321592
     30          1           0        1.155967    0.741764    0.008384
     31          1           0        2.018843    3.046118    0.483230
     32          7           0        2.619757   -1.437613   -0.456028
     33          8           0        1.400179   -1.588361   -0.479276
     34          8           0        3.446596   -2.326709   -0.647033
 ---------------------------------------------------------------------

 SCF Done:  E(RHF) =  -669.535815337     A.U. after   15 cycles
 E2 =    -0.2091280971D+01 EUMP2 =    -0.67162709630777D+03

 The electronic state is 1-A.
 Alpha  occ. eigenvalues --  -20.60898 -20.60885 -15.85929 -11.31269 -11.27836
 Alpha  occ. eigenvalues --  -11.27831 -11.27574 -11.26847 -11.26837 -11.21395
 Alpha  occ. eigenvalues --  -11.21052 -11.20915 -11.20911 -11.20775 -11.19932
 Alpha  occ. eigenvalues --   -1.59958  -1.39513  -1.19439  -1.08840  -1.07984
 Alpha  occ. eigenvalues --   -1.04839  -1.02982  -0.95692  -0.95408  -0.86443
 Alpha  occ. eigenvalues --   -0.86237  -0.82513  -0.79078  -0.77770  -0.77562
 Alpha  occ. eigenvalues --   -0.72164  -0.71274  -0.70548  -0.65099  -0.64845
 Alpha  occ. eigenvalues --   -0.64628  -0.62188  -0.60391  -0.58811  -0.56989
 Alpha  occ. eigenvalues --   -0.55342  -0.54737  -0.53169  -0.52932  -0.52052
 Alpha  occ. eigenvalues --   -0.51849  -0.49425  -0.48912  -0.48888  -0.47368
 Alpha  occ. eigenvalues --   -0.46154  -0.45308  -0.45258  -0.44892  -0.43206
 Alpha  occ. eigenvalues --   -0.37418  -0.36441
 Alpha virt. eigenvalues --    0.04956   0.11207   0.16443   0.20832   0.23007
 Alpha virt. eigenvalues --    0.24234   0.26669   0.27446   0.27843   0.28025
 Alpha virt. eigenvalues --    0.29101   0.30768   0.31560   0.32201   0.32823

 Mulliken charges:
               1
     1  C   -0.297488
     2  C   -0.298829
     3  C   -0.475325
     4  H    0.147727
     5  H    0.150371
     6  H    0.149026
     7  H    0.151947
     8  H    0.155763
     9  H    0.154110
    10  H    0.158953
    11  C   -0.296906
    12  C   -0.300955
    13  C   -0.474067
    14  H    0.142725
    15  H    0.148760
    16  H    0.154945
    17  H    0.151221
    18  H    0.146787
    19  H    0.144890
    20  H    0.183435
    21  C   -0.170584
    22  C   -0.218584
    23  C   -0.170645
    24  C    0.158027
    25  C   -0.171700
    26  C   -0.218667
    27  H    0.225908
    28  H    0.223739
    29  H    0.275808
    30  H    0.276710
    31  H    0.223720
    32  N    0.491686
    33  O   -0.462856
    34  O   -0.459652
 Sum of Mulliken charges =  -0.00000

 Dipole moment (field-independent basis, Debye):
    X=              2.0394    Y=              4.6616    Z=              0.9080  Tot=              5.1685
 Quadrupole moment (field-independent basis, Debye-Ang):
   XX=            -79.8402   YY=            -94.8132   ZZ=            -96.6441
   XY=             14.3314   XZ=              1.9708   YZ=             -0.5132

 Normal termination of Gaussian 16 at Thu May  6 18:54:24 2021.
