 Gaussian 16, Revision A.03,
 Gaussian 16:  EM64L-G16RevA.03 25-Dec-2016

 -------------
 #p 6-31g* mp2
 -------------

 ------------------------------------------------------
 Input file generated by CHIRIPA (05-May-2021 14:51:11)
 ------------------------------------------------------
 Symbolic Z-matrix:
 Charge =  0 Multiplicity = 1

                         Standard orientation:
 ---------------------------------------------------------------------
 Center     Atomic      Atomic             Coordinates (Angstroms)
 Number     Number       Type             X           Y           Z
 ---------------------------------------------------------------------
      1          6           0       -2.901693   -0.018742   -0.684695
      2          6           0       -3.193088   -1.402281   -0.102549
      3          6           0       -3.326522   -2.480273   -1.178616
      4          1           0       -3.704906    0.255074   -1.382419
      5          1           0       -1.976478   -0.064716   -1.275676
      6          1           0       -4.116736   -1.353386    0.488298
      7          1           0       -2.389186   -1.672753    0.594016
      8          1           0       -2.403593   -2.558247   -1.762330
      9          1           0       -4.140958   -2.237066   -1.868649
     10          1           0       -3.534706   -3.461345   -0.740416
     11          6           0       -2.765578    1.069557    0.378699
     12          6           0       -2.474183    2.453096   -0.203446
     13          6           0       -2.340749    3.531089    0.872621
     14          1           0       -3.690793    1.115531    0.969681
     15          1           0       -1.962365    0.795741    1.076424
     16          1           0       -3.278085    2.723568   -0.900011
     17          1           0       -1.550535    2.404201   -0.794293
     18          1           0       -1.526313    3.287881    1.562654
     19          1           0       -3.263678    3.609062    1.456335
     20          1           0       -2.132566    4.512160    0.434421
     21          6           0        3.052008    0.101613   -0.224613
     22          6           0        4.560601    0.345606   -0.173594
     23          6           0        4.981998    1.603651   -0.933555
     24          1           0        2.735227    0.021472   -1.273504
     25          1           0        2.532047    0.974862    0.193087
     26          1           0        5.077611   -0.528423   -0.589996
     27          1           0        4.873857    0.424984    0.875303
     28          1           0        4.492652    2.488862   -0.514578
     29          1           0        4.697564    1.530037   -1.988201
     30          1           0        6.064265    1.758934   -0.884099
     31          6           0        2.615263   -1.152429    0.530609
     32          6           0        1.106671   -1.396421    0.479590
     33          6           0        0.685273   -2.654466    1.239550
     34          1           0        3.135224   -2.025677    0.112909
     35          1           0        2.932043   -1.072288    1.579499
     36          1           0        0.793414   -1.475800   -0.569307
     37          1           0        0.589660   -0.522393    0.895990
     38          1           0        0.969707   -2.580853    2.294196
     39          1           0        1.174619   -3.539677    0.820573
     40          1           0       -0.396994   -2.809750    1.190094
 ---------------------------------------------------------------------

 SCF Done:  E(RHF) =  -470.733246533     A.U. after   11 cycles
 E2 =    -0.1583661410D+01 EUMP2 =    -0.47231690794267D+03

 The electronic state is 1-A.
 Alpha  occ. eigenvalues --  -11.21701 -11.21646 -11.21585 -11.21563 -11.21473
 Alpha  occ. eigenvalues --  -11.21413 -11.21378 -11.21315 -11.21124 -11.21105
 Alpha  occ. eigenvalues --  -11.21072 -11.21064  -1.08505  -1.08400  -1.03606
 Alpha  occ. eigenvalues --   -1.03504  -0.96042  -0.95963  -0.87058  -0.86979
 Alpha  occ. eigenvalues --   -0.79670  -0.79567  -0.78314  -0.78222  -0.65144
 Alpha  occ. eigenvalues --   -0.65045  -0.61025  -0.60947  -0.59438  -0.59272
 Alpha  occ. eigenvalues --   -0.57671  -0.57540  -0.55336  -0.55244  -0.52750
 Alpha  occ. eigenvalues --   -0.52656  -0.52486  -0.52372  -0.49988  -0.49889
 Alpha  occ. eigenvalues --   -0.48034  -0.47854  -0.46712  -0.46580  -0.45909
 Alpha  occ. eigenvalues --   -0.45851  -0.45679  -0.45578  -0.43836  -0.43760
 Alpha virt. eigenvalues --    0.19709   0.23017   0.23317   0.24818   0.25842
 Alpha virt. eigenvalues --    0.26014   0.27020   0.27619   0.28398   0.29332
 Alpha virt. eigenvalues --    0.30255   0.30773   0.31668   0.31847   0.32505

 Mulliken charges:
               1
     1  C   -0.298316
     2  C   -0.307063
     3  C   -0.475805
     4  H    0.149329
     5  H    0.151209
     6  H    0.151848
     7  H    0.158652
     8  H    0.155179
     9  H    0.155331
    10  H    0.160057
    11  C   -0.300608
    12  C   -0.299872
    13  C   -0.475565
    14  H    0.149399
    15  H    0.151432
    16  H    0.151941
    17  H    0.152424
    18  H    0.154545
    19  H    0.155206
    20  H    0.160275
    21  C   -0.298339
    22  C   -0.299707
    23  C   -0.475786
    24  H    0.149568
    25  H    0.149307
    26  H    0.152093
    27  H    0.152092
    28  H    0.155288
    29  H    0.155234
    30  H    0.160452
    31  C   -0.298342
    32  C   -0.302919
    33  C   -0.481714
    34  H    0.150003
    35  H    0.149994
    36  H    0.152299
    37  H    0.153784
    38  H    0.155479
    39  H    0.155843
    40  H    0.165772
 Sum of Mulliken charges =  -0.00000

 Dipole moment (field-independent basis, Debye):
    X=              0.0277    Y=             -0.0112    Z=              0.0002  Tot=              0.0299
 Quadrupole moment (field-independent basis, Debye-Ang):
   XX=            -83.9778   YY=            -86.0002   ZZ=            -84.7376
   XY=             -0.7819   XZ=              0.1155   YZ=              0.3013

 Normal termination of Gaussian 16 at Wed May  5 16:45:39 2021.
