 Gaussian 16, Revision A.03,
 Gaussian 16:  EM64L-G16RevA.03 25-Dec-2016

 -------------
 #p 6-31g* mp2
 -------------

 ------------------------------------------------------
 Input file generated by CHIRIPA (05-May-2021 14:51:10)
 ------------------------------------------------------
 Symbolic Z-matrix:
 Charge =  0 Multiplicity = 1

                         Standard orientation:
 ---------------------------------------------------------------------
 Center     Atomic      Atomic             Coordinates (Angstroms)
 Number     Number       Type             X           Y           Z
 ---------------------------------------------------------------------
      1          6           0       -4.018859    0.759761   -0.159775
      2          6           0       -3.173224    1.975288    0.221511
      3          6           0       -3.890873    3.299971   -0.039240
      4          1           0       -4.290205    0.828504   -1.222126
      5          1           0       -4.960683    0.785110    0.405664
      6          1           0       -2.232678    1.946915   -0.343453
      7          1           0       -2.903699    1.903547    1.283031
      8          1           0       -4.820625    3.354211    0.536277
      9          1           0       -4.145791    3.397827   -1.099448
     10          1           0       -3.268374    4.155635    0.240393
     11          6           0       -3.315012   -0.571918    0.095096
     12          6           0       -4.160647   -1.787446   -0.286189
     13          6           0       -3.442999   -3.112128   -0.025438
     14          1           0       -2.373188   -0.597267   -0.470342
     15          1           0       -3.043666   -0.640661    1.157448
     16          1           0       -4.430172   -1.715704   -1.347710
     17          1           0       -5.101193   -1.759073    0.278774
     18          1           0       -3.188080   -3.209984    1.034770
     19          1           0       -2.513246   -3.166369   -0.600955
     20          1           0       -4.065497   -3.967792   -0.305071
     21          6           0        2.968297   -0.072039   -0.275649
     22          6           0        1.871191   -0.552062    0.675099
     23          6           0        0.479157   -0.502412    0.044567
     24          1           0        2.744920    0.955377   -0.594181
     25          1           0        2.953684   -0.690906   -1.183495
     26          1           0        1.888770    0.066638    1.581475
     27          1           0        2.097306   -1.578387    0.991556
     28          1           0        0.438066   -1.134170   -0.848626
     29          1           0        0.228346    0.520202   -0.255356
     30          1           0       -0.289884   -0.849833    0.741515
     31          6           0        4.365575   -0.115804    0.340327
     32          6           0        5.462680    0.364219   -0.610421
     33          6           0        6.854714    0.314570    0.020111
     34          1           0        4.380186    0.503063    1.248174
     35          1           0        4.588952   -1.143220    0.658860
     36          1           0        5.236565    1.390545   -0.926878
     37          1           0        5.445101   -0.254481   -1.516797
     38          1           0        7.105526   -0.708045    0.320034
     39          1           0        6.895805    0.946328    0.913305
     40          1           0        7.623755    0.661990   -0.676837
 ---------------------------------------------------------------------

 SCF Done:  E(RHF) =  -470.732483501     A.U. after   11 cycles
 E2 =    -0.1583464766D+01 EUMP2 =    -0.47231594826700D+03

 The electronic state is 1-A.
 Alpha  occ. eigenvalues --  -11.21595 -11.21564 -11.21561 -11.21537 -11.21392
 Alpha  occ. eigenvalues --  -11.21332 -11.21324 -11.21221 -11.21066 -11.21047
 Alpha  occ. eigenvalues --  -11.21037 -11.21004  -1.08425  -1.08361  -1.03519
 Alpha  occ. eigenvalues --   -1.03480  -0.96003  -0.95900  -0.87036  -0.86914
 Alpha  occ. eigenvalues --   -0.79646  -0.79524  -0.78281  -0.78104  -0.65050
 Alpha  occ. eigenvalues --   -0.65000  -0.60952  -0.60847  -0.59423  -0.59237
 Alpha  occ. eigenvalues --   -0.57624  -0.57492  -0.55257  -0.55224  -0.52842
 Alpha  occ. eigenvalues --   -0.52603  -0.52404  -0.52238  -0.49932  -0.49862
 Alpha  occ. eigenvalues --   -0.47956  -0.47810  -0.46685  -0.46509  -0.45897
 Alpha  occ. eigenvalues --   -0.45725  -0.45686  -0.45524  -0.43746  -0.43605
 Alpha virt. eigenvalues --    0.21879   0.23033   0.23834   0.24286   0.25333
 Alpha virt. eigenvalues --    0.26450   0.26725   0.27665   0.27985   0.29660
 Alpha virt. eigenvalues --    0.29782   0.30814   0.31674   0.31955   0.32216

 Mulliken charges:
               1
     1  C   -0.297692
     2  C   -0.301640
     3  C   -0.475588
     4  H    0.149179
     5  H    0.148936
     6  H    0.153921
     7  H    0.151637
     8  H    0.155173
     9  H    0.155075
    10  H    0.159861
    11  C   -0.306246
    12  C   -0.298877
    13  C   -0.476388
    14  H    0.163191
    15  H    0.147741
    16  H    0.151500
    17  H    0.151312
    18  H    0.154583
    19  H    0.155672
    20  H    0.160131
    21  C   -0.298456
    22  C   -0.300782
    23  C   -0.480789
    24  H    0.149388
    25  H    0.149238
    26  H    0.151883
    27  H    0.151856
    28  H    0.153201
    29  H    0.156398
    30  H    0.166680
    31  C   -0.298242
    32  C   -0.299584
    33  C   -0.475689
    34  H    0.149498
    35  H    0.149638
    36  H    0.151871
    37  H    0.151851
    38  H    0.155177
    39  H    0.155173
    40  H    0.160210
 Sum of Mulliken charges =  -0.00000

 Dipole moment (field-independent basis, Debye):
    X=              0.0059    Y=             -0.0048    Z=             -0.0038  Tot=              0.0085
 Quadrupole moment (field-independent basis, Debye-Ang):
   XX=            -86.2006   YY=            -85.0262   ZZ=            -83.8924
   XY=              0.2673   XZ=             -0.7537   YZ=              0.4433

 Normal termination of Gaussian 16 at Thu May  6 06:59:16 2021.
