 Gaussian 16, Revision A.03,
 Gaussian 16:  EM64L-G16RevA.03 25-Dec-2016

 -------------
 #p 6-31g* mp2
 -------------

 ------------------------------------------------------
 Input file generated by CHIRIPA (05-May-2021 14:57:27)
 ------------------------------------------------------
 Symbolic Z-matrix:
 Charge =  0 Multiplicity = 1

                         Standard orientation:
 ---------------------------------------------------------------------
 Center     Atomic      Atomic             Coordinates (Angstroms)
 Number     Number       Type             X           Y           Z
 ---------------------------------------------------------------------
      1          6           0       -3.754119    2.579828   -0.042554
      2          6           0       -2.576054    1.953532    0.377490
      3          6           0       -2.467805    0.559785    0.360133
      4          6           0       -3.562018   -0.180164   -0.085358
      5          6           0       -4.749123    0.414498   -0.510151
      6          6           0       -4.834988    1.809670   -0.484255
      7          1           0       -3.829516    3.663077   -0.025754
      8          1           0       -1.735036    2.549114    0.721022
      9          1           0       -1.567583    0.049046    0.679765
     10          1           0       -5.570616   -0.205890   -0.847325
     11          1           0       -5.751125    2.293347   -0.811049
     12          7           0       -3.459268   -1.656415   -0.108253
     13          8           0       -4.437519   -2.285785   -0.505186
     14          8           0       -2.402426   -2.156179    0.271168
     15          6           0        1.463764   -0.509345    1.382661
     16          6           0        2.620811   -0.092710    2.049128
     17          6           0        3.798456    0.157427    1.338402
     18          6           0        3.783441   -0.020002   -0.044198
     19          6           0        2.646732   -0.434057   -0.736831
     20          6           0        1.480387   -0.678391   -0.005744
     21          1           0        0.553330   -0.701403    1.942680
     22          1           0        2.610821    0.039406    3.127317
     23          1           0        4.708397    0.480898    1.829107
     24          1           0        2.687465   -0.556981   -1.812308
     25          1           0        0.583296   -1.001858   -0.525976
     26          7           0        5.024179    0.241734   -0.807390
     27          8           0        4.984970    0.078008   -2.024885
     28          8           0        6.012386    0.605654   -0.173635
 ---------------------------------------------------------------------

 SCF Done:  E(RHF) =  -868.338413049     A.U. after   16 cycles
 E2 =    -0.2600385039D+01 EUMP2 =    -0.87093879808831D+03

 The electronic state is 1-A.
 Alpha  occ. eigenvalues --  -20.61789 -20.61726 -20.60798 -20.60792 -15.86792
 Alpha  occ. eigenvalues --  -15.85849 -11.32044 -11.31236 -11.28666 -11.28522
 Alpha  occ. eigenvalues --  -11.28231 -11.27796 -11.27750 -11.27565 -11.27537
 Alpha  occ. eigenvalues --  -11.27510 -11.26840 -11.26725  -1.60817  -1.59873
 Alpha  occ. eigenvalues --   -1.40382  -1.39425  -1.20184  -1.19398  -1.09585
 Alpha  occ. eigenvalues --   -1.08800  -1.05571  -1.04785  -0.96453  -0.95632
 Alpha  occ. eigenvalues --   -0.86980  -0.86183  -0.83289  -0.82448  -0.78385
 Alpha  occ. eigenvalues --   -0.77484  -0.73015  -0.72129  -0.72066  -0.71325
 Alpha  occ. eigenvalues --   -0.71196  -0.70497  -0.65833  -0.65599  -0.65040
 Alpha  occ. eigenvalues --   -0.64753  -0.62934  -0.62088  -0.56047  -0.55307
 Alpha  occ. eigenvalues --   -0.53894  -0.53663  -0.53119  -0.52847  -0.49791
 Alpha  occ. eigenvalues --   -0.49739  -0.48825  -0.48821  -0.45804  -0.44825
 Alpha  occ. eigenvalues --   -0.38127  -0.37410  -0.37161  -0.36383
 Alpha virt. eigenvalues --    0.04130   0.05000   0.10425   0.11198   0.15693
 Alpha virt. eigenvalues --    0.16447   0.19430   0.21915   0.25426   0.27067
 Alpha virt. eigenvalues --    0.27591   0.29092   0.30702   0.30857   0.31805

 Mulliken charges:
               1
     1  C   -0.169913
     2  C   -0.220621
     3  C   -0.177476
     4  C    0.158709
     5  C   -0.169437
     6  C   -0.218032
     7  H    0.229121
     8  H    0.226759
     9  H    0.272139
    10  H    0.277793
    11  H    0.226763
    12  N    0.488549
    13  O   -0.453640
    14  O   -0.470530
    15  C   -0.180132
    16  C   -0.218470
    17  C   -0.171785
    18  C    0.158775
    19  C   -0.171606
    20  C   -0.224601
    21  H    0.228488
    22  H    0.223376
    23  H    0.275479
    24  H    0.276880
    25  H    0.235726
    26  N    0.487966
    27  O   -0.459702
    28  O   -0.460577
 Sum of Mulliken charges =  -0.00000

 Dipole moment (field-independent basis, Debye):
    X=             -4.9915    Y=              4.3462    Z=              2.6644  Tot=              7.1346
 Quadrupole moment (field-independent basis, Debye-Ang):
   XX=           -129.0752   YY=           -107.2970   ZZ=           -101.7525
   XY=            -21.5323   XZ=             14.5859   YZ=              0.8620

 Normal termination of Gaussian 16 at Wed May  5 16:34:06 2021.
