 Gaussian 16, Revision A.03,
 Gaussian 16:  EM64L-G16RevA.03 25-Dec-2016

 -------------
 #p 6-31g* mp2
 -------------

 ------------------------------------------------------
 Input file generated by CHIRIPA (05-May-2021 14:53:11)
 ------------------------------------------------------
 Symbolic Z-matrix:
 Charge =  0 Multiplicity = 1

                         Standard orientation:
 ---------------------------------------------------------------------
 Center     Atomic      Atomic             Coordinates (Angstroms)
 Number     Number       Type             X           Y           Z
 ---------------------------------------------------------------------
      1          6           0       -2.427365    1.233022   -0.623027
      2          6           0       -1.767030    2.134995    0.420231
      3          6           0       -1.018316    3.312333   -0.205147
      4          1           0       -1.658914    0.856427   -1.311943
      5          1           0       -3.122841    1.831577   -1.227543
      6          1           0       -1.074036    1.534627    1.023500
      7          1           0       -2.537115    2.509333    1.106858
      8          1           0       -1.701252    3.935394   -0.791657
      9          1           0       -0.229860    2.955150   -0.875489
     10          1           0       -0.553960    3.944045    0.558511
     11          6           0       -3.179721    0.051552   -0.013259
     12          6           0       -3.840056   -0.850421   -1.056517
     13          6           0       -4.588770   -2.027759   -0.431139
     14          1           0       -2.484245   -0.547003    0.591258
     15          1           0       -3.948172    0.428147    0.675657
     16          1           0       -3.069972   -1.224759   -1.743144
     17          1           0       -4.533051   -0.250054   -1.659786
     18          1           0       -5.377226   -1.670576    0.239203
     19          1           0       -3.905834   -2.650820    0.155372
     20          1           0       -5.053127   -2.659471   -1.194797
     21          6           0        0.408900   -1.065681    1.944036
     22          6           0        1.114779    0.137737    2.044229
     23          6           0        2.103906    0.460558    1.110439
     24          6           0        2.362484   -0.447271    0.084636
     25          6           0        1.676394   -1.654137   -0.042044
     26          6           0        0.691463   -1.956207    0.903054
     27          1           0       -0.357848   -1.308397    2.673817
     28          1           0        0.897459    0.831235    2.851619
     29          1           0        2.665546    1.385261    1.164311
     30          1           0        1.915392   -2.325396   -0.857953
     31          1           0        0.144858   -2.891526    0.822759
     32          7           0        3.407408   -0.116499   -0.909911
     33          8           0        3.616336   -0.933227   -1.804305
     34          8           0        3.997706    0.953225   -0.776211
 ---------------------------------------------------------------------

 SCF Done:  E(RHF) =  -669.534986230     A.U. after   15 cycles
 E2 =    -0.2094154504D+01 EUMP2 =    -0.67162914073440D+03

 The electronic state is 1-A.
 Alpha  occ. eigenvalues --  -20.60878 -20.60872 -15.85933 -11.31349 -11.27913
 Alpha  occ. eigenvalues --  -11.27905 -11.27659 -11.26948 -11.26917 -11.22011
 Alpha  occ. eigenvalues --  -11.21795 -11.21770 -11.21619 -11.21586 -11.21258
 Alpha  occ. eigenvalues --   -1.59953  -1.39504  -1.19532  -1.08935  -1.08746
 Alpha  occ. eigenvalues --   -1.04940  -1.03862  -0.96321  -0.95736  -0.87335
 Alpha  occ. eigenvalues --   -0.86329  -0.82564  -0.79937  -0.78595  -0.77601
 Alpha  occ. eigenvalues --   -0.72149  -0.71278  -0.70618  -0.65432  -0.65177
 Alpha  occ. eigenvalues --   -0.64912  -0.62279  -0.61277  -0.59700  -0.57940
 Alpha  occ. eigenvalues --   -0.55631  -0.55403  -0.53309  -0.53016  -0.52991
 Alpha  occ. eigenvalues --   -0.52745  -0.50257  -0.48913  -0.48901  -0.48258
 Alpha  occ. eigenvalues --   -0.46980  -0.46124  -0.46053  -0.44898  -0.44115
 Alpha  occ. eigenvalues --   -0.37425  -0.36468
 Alpha virt. eigenvalues --    0.04896   0.10987   0.16313   0.20598   0.22858
 Alpha virt. eigenvalues --    0.23686   0.26192   0.26851   0.27041   0.27633
 Alpha virt. eigenvalues --    0.29090   0.30467   0.31169   0.31422   0.31721

 Mulliken charges:
               1
     1  C   -0.296850
     2  C   -0.307886
     3  C   -0.476257
     4  H    0.152436
     5  H    0.150560
     6  H    0.155815
     7  H    0.148438
     8  H    0.156892
     9  H    0.159165
    10  H    0.156544
    11  C   -0.299727
    12  C   -0.300127
    13  C   -0.474637
    14  H    0.144054
    15  H    0.148459
    16  H    0.152736
    17  H    0.154405
    18  H    0.155951
    19  H    0.148592
    20  H    0.162343
    21  C   -0.168693
    22  C   -0.220930
    23  C   -0.169735
    24  C    0.158308
    25  C   -0.171068
    26  C   -0.218463
    27  H    0.227687
    28  H    0.225950
    29  H    0.276880
    30  H    0.276317
    31  H    0.224522
    32  N    0.487969
    33  O   -0.459970
    34  O   -0.459678
 Sum of Mulliken charges =  -0.00000

 Dipole moment (field-independent basis, Debye):
    X=             -3.5663    Y=             -1.1896    Z=              3.4662  Tot=              5.1135
 Quadrupole moment (field-independent basis, Debye-Ang):
   XX=           -112.4544   YY=            -90.8074   ZZ=            -93.5301
   XY=             -1.2129   XZ=              8.8886   YZ=              0.8520

 Normal termination of Gaussian 16 at Thu May  6 00:54:10 2021.
