 Gaussian 16, Revision A.03,
 Gaussian 16:  EM64L-G16RevA.03 25-Dec-2016

 -------------
 #p 6-31g* mp2
 -------------

 ------------------------------------------------------
 Input file generated by CHIRIPA (05-May-2021 14:53:12)
 ------------------------------------------------------
 Symbolic Z-matrix:
 Charge =  0 Multiplicity = 1

                         Standard orientation:
 ---------------------------------------------------------------------
 Center     Atomic      Atomic             Coordinates (Angstroms)
 Number     Number       Type             X           Y           Z
 ---------------------------------------------------------------------
      1          6           0       -2.988179    0.969387    0.041057
      2          6           0       -2.297641    1.435534    1.323184
      3          6           0       -1.040228    2.261618    1.050615
      4          1           0       -2.280311    0.376720   -0.554438
      5          1           0       -3.249436    1.847018   -0.566317
      6          1           0       -2.039004    0.557356    1.928599
      7          1           0       -3.007294    2.026999    1.915786
      8          1           0       -1.285194    3.154981    0.467096
      9          1           0       -0.311402    1.676989    0.479982
     10          1           0       -0.562511    2.584478    1.980888
     11          6           0       -4.246814    0.142354    0.297146
     12          6           0       -4.937352   -0.323793   -0.984981
     13          6           0       -6.194764   -1.149877   -0.712412
     14          1           0       -3.985557   -0.735278    0.904519
     15          1           0       -4.954682    0.735021    0.892640
     16          1           0       -4.227698   -0.915258   -1.577583
     17          1           0       -5.195989    0.554384   -1.590396
     18          1           0       -6.923591   -0.565248   -0.141780
     19          1           0       -5.949799   -2.043241   -0.128894
     20          1           0       -6.672482   -1.472737   -1.642685
     21          6           0        0.834343   -1.876604    0.432017
     22          6           0        2.048499   -2.067651    1.099735
     23          6           0        3.158695   -1.274336    0.795329
     24          6           0        3.018731   -0.294835   -0.186648
     25          6           0        1.822493   -0.080208   -0.869465
     26          6           0        0.725408   -0.885240   -0.548724
     27          1           0       -0.022991   -2.497421    0.674832
     28          1           0        2.136007   -2.836797    1.861839
     29          1           0        4.110526   -1.400812    1.296766
     30          1           0        1.765890    0.694526   -1.624451
     31          1           0       -0.216277   -0.734624   -1.068906
     32          7           0        4.187107    0.551215   -0.517557
     33          8           0        4.037939    1.407394   -1.386662
     34          8           0        5.229922    0.342149    0.098449
 ---------------------------------------------------------------------

 SCF Done:  E(RHF) =  -669.534746641     A.U. after   15 cycles
 E2 =    -0.2093171220D+01 EUMP2 =    -0.67162791786111D+03

 The electronic state is 1-A.
 Alpha  occ. eigenvalues --  -20.60799 -20.60793 -15.85854 -11.31257 -11.27828
 Alpha  occ. eigenvalues --  -11.27822 -11.27577 -11.26850 -11.26836 -11.22289
 Alpha  occ. eigenvalues --  -11.22209 -11.22140 -11.22089 -11.21656 -11.21346
 Alpha  occ. eigenvalues --   -1.59873  -1.39425  -1.19440  -1.09123  -1.08821
 Alpha  occ. eigenvalues --   -1.04858  -1.04104  -0.96550  -0.95651  -0.87562
 Alpha  occ. eigenvalues --   -0.86243  -0.82491  -0.80176  -0.78964  -0.77521
 Alpha  occ. eigenvalues --   -0.72072  -0.71196  -0.70537  -0.65848  -0.65091
 Alpha  occ. eigenvalues --   -0.64805  -0.62228  -0.61476  -0.59917  -0.58172
 Alpha  occ. eigenvalues --   -0.55888  -0.55341  -0.53262  -0.53197  -0.53006
 Alpha  occ. eigenvalues --   -0.52821  -0.50483  -0.48836  -0.48824  -0.48479
 Alpha  occ. eigenvalues --   -0.47218  -0.46471  -0.46413  -0.44822  -0.44395
 Alpha  occ. eigenvalues --   -0.37411  -0.36381
 Alpha virt. eigenvalues --    0.04983   0.11115   0.16366   0.19607   0.22831
 Alpha virt. eigenvalues --    0.23992   0.24884   0.26291   0.27114   0.28535
 Alpha virt. eigenvalues --    0.29118   0.30565   0.31076   0.31483   0.31812

 Mulliken charges:
               1
     1  C   -0.300945
     2  C   -0.299091
     3  C   -0.481113
     4  H    0.139066
     5  H    0.153748
     6  H    0.148939
     7  H    0.154741
     8  H    0.155950
     9  H    0.157892
    10  H    0.163323
    11  C   -0.297887
    12  C   -0.299323
    13  C   -0.475836
    14  H    0.146130
    15  H    0.153470
    16  H    0.147239
    17  H    0.154606
    18  H    0.157292
    19  H    0.154213
    20  H    0.162093
    21  C   -0.172798
    22  C   -0.218272
    23  C   -0.170807
    24  C    0.159354
    25  C   -0.172412
    26  C   -0.221002
    27  H    0.225829
    28  H    0.223829
    29  H    0.275999
    30  H    0.276960
    31  H    0.230867
    32  N    0.488104
    33  O   -0.459886
    34  O   -0.460269
 Sum of Mulliken charges =  -0.00000

 Dipole moment (field-independent basis, Debye):
    X=             -4.1429    Y=             -2.9448    Z=              1.2007  Tot=              5.2228
 Quadrupole moment (field-independent basis, Debye-Ang):
   XX=           -118.5114   YY=            -91.8670   ZZ=            -93.2935
   XY=            -10.6134   XZ=              6.4833   YZ=             -1.7204

 Normal termination of Gaussian 16 at Wed May  5 23:21:52 2021.
