 Gaussian 16, Revision A.03,
 Gaussian 16:  EM64L-G16RevA.03 25-Dec-2016

 -------------
 #p 6-31g* mp2
 -------------

 ------------------------------------------------------
 Input file generated by CHIRIPA (05-May-2021 14:57:25)
 ------------------------------------------------------
 Symbolic Z-matrix:
 Charge =  0 Multiplicity = 1

                         Standard orientation:
 ---------------------------------------------------------------------
 Center     Atomic      Atomic             Coordinates (Angstroms)
 Number     Number       Type             X           Y           Z
 ---------------------------------------------------------------------
      1          6           0        5.564063   -0.922439   -0.134359
      2          6           0        4.516716   -1.722802   -0.602336
      3          6           0        3.194394   -1.274397   -0.532009
      4          6           0        2.954443   -0.014728    0.014754
      5          6           0        3.976391    0.806011    0.489413
      6          6           0        5.291040    0.337193    0.409063
      7          1           0        6.588294   -1.278699   -0.192884
      8          1           0        4.725783   -2.701480   -1.024859
      9          1           0        2.364556   -1.873436   -0.886888
     10          1           0        3.736728    1.777058    0.905403
     11          1           0        6.102430    0.960922    0.773277
     12          7           0        1.558622    0.470783    0.094512
     13          8           0        1.373612    1.584392    0.580603
     14          8           0        0.676017   -0.271474   -0.330576
     15          6           0       -4.317272   -2.107077    0.482855
     16          6           0       -4.318187   -1.590481   -0.817010
     17          6           0       -3.693653   -0.371417   -1.096993
     18          6           0       -3.074979    0.307611   -0.048446
     19          6           0       -3.057023   -0.180998    1.257015
     20          6           0       -3.687803   -1.401930    1.513901
     21          1           0       -4.804851   -3.054800    0.691382
     22          1           0       -4.806256   -2.135931   -1.619704
     23          1           0       -3.679321    0.051533   -2.094152
     24          1           0       -2.562226    0.385663    2.036431
     25          1           0       -3.685516   -1.800711    2.524353
     26          7           0       -2.410507    1.599167   -0.332625
     27          8           0       -1.872432    2.178035    0.608664
     28          8           0       -2.440349    2.008167   -1.491273
 ---------------------------------------------------------------------

 SCF Done:  E(RHF) =  -868.336647677     A.U. after   16 cycles
 E2 =    -0.2601227977D+01 EUMP2 =    -0.87093787565443D+03

 The electronic state is 1-A.
 Alpha  occ. eigenvalues --  -20.60348 -20.60278 -20.59050 -20.58912 -15.85355
 Alpha  occ. eigenvalues --  -15.84042 -11.30891 -11.29758 -11.27499 -11.27456
 Alpha  occ. eigenvalues --  -11.27260 -11.26547 -11.26518 -11.26416 -11.26371
 Alpha  occ. eigenvalues --  -11.26281 -11.25561 -11.25537  -1.59373  -1.58017
 Alpha  occ. eigenvalues --   -1.38924  -1.37578  -1.19079  -1.17978  -1.08444
 Alpha  occ. eigenvalues --   -1.07319  -1.04508  -1.03469  -0.95250  -0.94102
 Alpha  occ. eigenvalues --   -0.85898  -0.84854  -0.82081  -0.80960  -0.77102
 Alpha  occ. eigenvalues --   -0.75924  -0.71570  -0.70705  -0.70291  -0.70191
 Alpha  occ. eigenvalues --   -0.69292  -0.69150  -0.64730  -0.64512  -0.63660
 Alpha  occ. eigenvalues --   -0.63522  -0.61853  -0.60832  -0.55007  -0.54011
 Alpha  occ. eigenvalues --   -0.52829  -0.52604  -0.51740  -0.51601  -0.48392
 Alpha  occ. eigenvalues --   -0.48291  -0.47057  -0.47018  -0.44292  -0.42860
 Alpha  occ. eigenvalues --   -0.37072  -0.36120  -0.35965  -0.35080
 Alpha virt. eigenvalues --    0.05439   0.06696   0.11532   0.12573   0.16901
 Alpha virt. eigenvalues --    0.18081   0.21645   0.22499   0.27539   0.28364
 Alpha virt. eigenvalues --    0.28557   0.29443   0.31180   0.31979   0.32802

 Mulliken charges:
               1
     1  C   -0.171369
     2  C   -0.218581
     3  C   -0.171423
     4  C    0.158992
     5  C   -0.170938
     6  C   -0.218605
     7  H    0.224399
     8  H    0.221709
     9  H    0.273876
    10  H    0.277592
    11  H    0.223052
    12  N    0.487955
    13  O   -0.444554
    14  O   -0.470778
    15  C   -0.172777
    16  C   -0.219198
    17  C   -0.170675
    18  C    0.171486
    19  C   -0.165965
    20  C   -0.219552
    21  H    0.219261
    22  H    0.217532
    23  H    0.272325
    24  H    0.275088
    25  H    0.217682
    26  N    0.493119
    27  O   -0.449880
    28  O   -0.469773
 Sum of Mulliken charges =  -0.00000

 Dipole moment (field-independent basis, Debye):
    X=              2.8955    Y=             -5.8861    Z=              0.8353  Tot=              6.6127
 Quadrupole moment (field-independent basis, Debye-Ang):
   XX=            -63.8316   YY=           -105.0590   ZZ=           -100.4920
   XY=              9.6212   XZ=             -1.5495   YZ=              3.3348

 Normal termination of Gaussian 16 at Thu May  6 01:56:51 2021.
