 Gaussian 16, Revision A.03,
 Gaussian 16:  EM64L-G16RevA.03 25-Dec-2016

 -------------
 #p 6-31g* mp2
 -------------

 ------------------------------------------------------
 Input file generated by CHIRIPA (05-May-2021 14:55:24)
 ------------------------------------------------------
 Symbolic Z-matrix:
 Charge =  0 Multiplicity = 1

                         Standard orientation:
 ---------------------------------------------------------------------
 Center     Atomic      Atomic             Coordinates (Angstroms)
 Number     Number       Type             X           Y           Z
 ---------------------------------------------------------------------
      1          6           0        0.543189    2.663943    0.503645
      2          6           0        1.090853    1.911584    1.547935
      3          6           0        1.930883    0.827322    1.277247
      4          6           0        2.203320    0.522038   -0.055371
      5          6           0        1.672989    1.252486   -1.117673
      6          6           0        0.835489    2.332576   -0.823486
      7          1           0       -0.108384    3.504604    0.723049
      8          1           0        0.865586    2.166628    2.579561
      9          1           0        2.368386    0.227978    2.066421
     10          1           0        1.915859    0.974013   -2.135949
     11          1           0        0.411583    2.915097   -1.636517
     12          7           0        3.091283   -0.623614   -0.354374
     13          8           0        3.315839   -0.872111   -1.536940
     14          8           0        3.545898   -1.251386    0.599494
     15          6           0       -2.278828   -1.512545    0.315790
     16          6           0       -0.823228   -1.653931   -0.130554
     17          6           0       -0.128271   -2.864174    0.494059
     18          1           0       -2.313748   -1.432429    1.410919
     19          1           0       -2.826575   -2.427769    0.051717
     20          1           0       -0.278717   -0.738157    0.133043
     21          1           0       -0.791755   -1.733528   -1.224761
     22          1           0       -0.646041   -3.789266    0.220708
     23          1           0       -0.130088   -2.788241    1.586227
     24          1           0        0.911191   -2.946166    0.161410
     25          6           0       -2.987021   -0.307245   -0.300197
     26          6           0       -4.442621   -0.165859    0.146147
     27          6           0       -5.137579    1.044384   -0.478465
     28          1           0       -2.439275    0.607980   -0.036124
     29          1           0       -2.952102   -0.387361   -1.395326
     30          1           0       -4.474094   -0.086262    1.240354
     31          1           0       -4.987132   -1.081633   -0.117450
     32          1           0       -5.135761    0.968451   -1.570633
     33          1           0       -4.619808    1.969476   -0.205115
     34          1           0       -6.177041    1.126376   -0.145816
 ---------------------------------------------------------------------

 SCF Done:  E(RHF) =  -669.534743185     A.U. after   15 cycles
 E2 =    -0.2095067770D+01 EUMP2 =    -0.67162981095522D+03

 The electronic state is 1-A.
 Alpha  occ. eigenvalues --  -20.60875 -20.60868 -15.85911 -11.31248 -11.27842
 Alpha  occ. eigenvalues --  -11.27833 -11.27649 -11.26911 -11.26894 -11.21819
 Alpha  occ. eigenvalues --  -11.21522 -11.21404 -11.21357 -11.21280 -11.20651
 Alpha  occ. eigenvalues --   -1.59945  -1.39496  -1.19489  -1.08874  -1.08466
 Alpha  occ. eigenvalues --   -1.04877  -1.03529  -0.95980  -0.95700  -0.86986
 Alpha  occ. eigenvalues --   -0.86270  -0.82529  -0.79614  -0.78287  -0.77569
 Alpha  occ. eigenvalues --   -0.72135  -0.71287  -0.70580  -0.65132  -0.65118
 Alpha  occ. eigenvalues --   -0.64874  -0.62215  -0.60968  -0.59362  -0.57590
 Alpha  occ. eigenvalues --   -0.55386  -0.55294  -0.53337  -0.52962  -0.52614
 Alpha  occ. eigenvalues --   -0.52393  -0.49925  -0.48897  -0.48891  -0.47895
 Alpha  occ. eigenvalues --   -0.46645  -0.45796  -0.45618  -0.44898  -0.43748
 Alpha  occ. eigenvalues --   -0.37403  -0.36481
 Alpha virt. eigenvalues --    0.04929   0.11136   0.16405   0.21262   0.22786
 Alpha virt. eigenvalues --    0.24210   0.26501   0.27060   0.27442   0.27695
 Alpha virt. eigenvalues --    0.28399   0.30927   0.31369   0.31668   0.32062

 Mulliken charges:
               1
     1  C   -0.171960
     2  C   -0.216601
     3  C   -0.174745
     4  C    0.159742
     5  C   -0.170771
     6  C   -0.215757
     7  H    0.226482
     8  H    0.224191
     9  H    0.276271
    10  H    0.276042
    11  H    0.224644
    12  N    0.488712
    13  O   -0.459875
    14  O   -0.459909
    15  C   -0.295990
    16  C   -0.310516
    17  C   -0.480383
    18  H    0.146969
    19  H    0.150025
    20  H    0.159849
    21  H    0.151430
    22  H    0.155017
    23  H    0.151932
    24  H    0.172277
    25  C   -0.298524
    26  C   -0.299429
    27  C   -0.474825
    28  H    0.145624
    29  H    0.148863
    30  H    0.150804
    31  H    0.153664
    32  H    0.155456
    33  H    0.150263
    34  H    0.161028
 Sum of Mulliken charges =  -0.00000

 Dipole moment (field-independent basis, Debye):
    X=             -2.9704    Y=              4.0427    Z=              1.0241  Tot=              5.1201
 Quadrupole moment (field-independent basis, Debye-Ang):
   XX=           -109.8820   YY=            -91.2411   ZZ=            -89.5906
   XY=              7.8768   XZ=              3.1321   YZ=              0.1849

 Normal termination of Gaussian 16 at Thu May  6 12:41:53 2021.
