 Gaussian 16, Revision A.03,
 Gaussian 16:  EM64L-G16RevA.03 25-Dec-2016

 -------------
 #p 6-31g* mp2
 -------------

 ------------------------------------------------------
 Input file generated by CHIRIPA (05-May-2021 14:51:13)
 ------------------------------------------------------
 Symbolic Z-matrix:
 Charge =  0 Multiplicity = 1

                         Standard orientation:
 ---------------------------------------------------------------------
 Center     Atomic      Atomic             Coordinates (Angstroms)
 Number     Number       Type             X           Y           Z
 ---------------------------------------------------------------------
      1          6           0       -3.114512   -0.237829   -0.416559
      2          6           0       -4.589727    0.069976   -0.157752
      3          6           0       -5.186414    1.020178   -1.196441
      4          1           0       -2.546287    0.702383   -0.424707
      5          1           0       -3.008842   -0.675604   -1.418847
      6          1           0       -4.692752    0.505763    0.844291
      7          1           0       -5.154475   -0.871096   -0.150029
      8          1           0       -5.112924    0.589079   -2.200111
      9          1           0       -4.648578    1.973760   -1.200141
     10          1           0       -6.241671    1.226648   -0.992326
     11          6           0       -2.503824   -1.186453    0.613442
     12          6           0       -1.028608   -1.494258    0.354635
     13          6           0       -0.431921   -2.444460    1.393324
     14          1           0       -2.609493   -0.748678    1.615731
     15          1           0       -3.072048   -2.126665    0.621590
     16          1           0       -0.463860   -0.553186    0.346912
     17          1           0       -0.925583   -1.930044   -0.647408
     18          1           0       -0.969757   -3.398042    1.397025
     19          1           0       -0.505411   -2.013361    2.396995
     20          1           0        0.623335   -2.650930    1.189209
     21          6           0        2.623374    1.445629   -0.202881
     22          6           0        1.691350    1.994854    0.877705
     23          6           0        1.328685    3.463411    0.654974
     24          1           0        3.539721    2.051032   -0.230092
     25          1           0        2.143322    1.560910   -1.184541
     26          1           0        2.172434    1.877308    1.857173
     27          1           0        0.777195    1.387955    0.902477
     28          1           0        0.825852    3.594165   -0.308697
     29          1           0        2.229018    4.086299    0.651424
     30          1           0        0.661748    3.835588    1.438899
     31          6           0        2.994962   -0.021347    0.005998
     32          6           0        3.926986   -0.570572   -1.074588
     33          6           0        4.289650   -2.039129   -0.851857
     34          1           0        3.475014   -0.136628    0.987657
     35          1           0        2.078614   -0.626749    0.033209
     36          1           0        4.841139    0.036327   -1.099361
     37          1           0        3.445902   -0.453027   -2.054056
     38          1           0        3.389318   -2.662017   -0.848307
     39          1           0        4.792483   -2.169884    0.111814
     40          1           0        4.956587   -2.411306   -1.635782
 ---------------------------------------------------------------------

 SCF Done:  E(RHF) =  -470.732914247     A.U. after   11 cycles
 E2 =    -0.1584055438D+01 EUMP2 =    -0.47231696968494D+03

 The electronic state is 1-A.
 Alpha  occ. eigenvalues --  -11.21640 -11.21630 -11.21628 -11.21592 -11.21445
 Alpha  occ. eigenvalues --  -11.21398 -11.21386 -11.21323 -11.21107 -11.21094
 Alpha  occ. eigenvalues --  -11.21091 -11.21079  -1.08492  -1.08419  -1.03570
 Alpha  occ. eigenvalues --   -1.03544  -0.96024  -0.95978  -0.87035  -0.86998
 Alpha  occ. eigenvalues --   -0.79671  -0.79586  -0.78384  -0.78159  -0.65270
 Alpha  occ. eigenvalues --   -0.64936  -0.61060  -0.60856  -0.59402  -0.59346
 Alpha  occ. eigenvalues --   -0.57693  -0.57545  -0.55326  -0.55242  -0.52723
 Alpha  occ. eigenvalues --   -0.52676  -0.52479  -0.52374  -0.49990  -0.49904
 Alpha  occ. eigenvalues --   -0.48070  -0.47855  -0.46909  -0.46547  -0.46071
 Alpha  occ. eigenvalues --   -0.45782  -0.45749  -0.45211  -0.43819  -0.43790
 Alpha virt. eigenvalues --    0.20394   0.22569   0.23589   0.24244   0.26018
 Alpha virt. eigenvalues --    0.26786   0.27086   0.27323   0.27693   0.29676
 Alpha virt. eigenvalues --    0.30179   0.31448   0.31745   0.31873   0.32465

 Mulliken charges:
               1
     1  C   -0.298583
     2  C   -0.299664
     3  C   -0.475780
     4  H    0.149245
     5  H    0.149524
     6  H    0.152098
     7  H    0.152082
     8  H    0.155149
     9  H    0.155304
    10  H    0.160392
    11  C   -0.297497
    12  C   -0.310324
    13  C   -0.477746
    14  H    0.149690
    15  H    0.149941
    16  H    0.160586
    17  H    0.151568
    18  H    0.155495
    19  H    0.155718
    20  H    0.162239
    21  C   -0.297522
    22  C   -0.307105
    23  C   -0.475319
    24  H    0.149800
    25  H    0.149460
    26  H    0.152289
    27  H    0.157583
    28  H    0.155116
    29  H    0.155556
    30  H    0.159958
    31  C   -0.307365
    32  C   -0.299224
    33  C   -0.476291
    34  H    0.149219
    35  H    0.159810
    36  H    0.151889
    37  H    0.151958
    38  H    0.155069
    39  H    0.155262
    40  H    0.160420
 Sum of Mulliken charges =  -0.00000

 Dipole moment (field-independent basis, Debye):
    X=             -0.0070    Y=             -0.0046    Z=              0.0070  Tot=              0.0110
 Quadrupole moment (field-independent basis, Debye-Ang):
   XX=            -84.5066   YY=            -85.6563   ZZ=            -84.5825
   XY=              1.2188   XZ=              0.2132   YZ=              1.0968

 Normal termination of Gaussian 16 at Wed May  5 23:11:08 2021.
