 Gaussian 16, Revision A.03,
 Gaussian 16:  EM64L-G16RevA.03 25-Dec-2016

 -------------
 #p 6-31g* mp2
 -------------

 ------------------------------------------------------
 Input file generated by CHIRIPA (05-May-2021 14:55:25)
 ------------------------------------------------------
 Symbolic Z-matrix:
 Charge =  0 Multiplicity = 1

                         Standard orientation:
 ---------------------------------------------------------------------
 Center     Atomic      Atomic             Coordinates (Angstroms)
 Number     Number       Type             X           Y           Z
 ---------------------------------------------------------------------
      1          6           0       -1.013263    1.059975    1.065799
      2          6           0       -2.290150    1.587450    1.284546
      3          6           0       -3.423279    0.929282    0.797328
      4          6           0       -3.242031   -0.259601    0.092348
      5          6           0       -1.983048   -0.810395   -0.141913
      6          6           0       -0.864050   -0.135157    0.354521
      7          1           0       -0.138511    1.577886    1.447861
      8          1           0       -2.409045    2.515433    1.836593
      9          1           0       -4.423460    1.315349    0.952277
     10          1           0       -1.896283   -1.737265   -0.695811
     11          1           0        0.126375   -0.547137    0.183129
     12          7           0       -4.434143   -0.965410   -0.428326
     13          8           0       -4.247653   -2.011290   -1.046383
     14          8           0       -5.532438   -0.459379   -0.208515
     15          6           0        3.228915    0.546293   -0.167680
     16          6           0        3.125085    1.780248   -1.064651
     17          6           0        1.780177    2.495514   -0.932707
     18          1           0        2.415979   -0.149513   -0.416544
     19          1           0        3.073663    0.847324    0.877630
     20          1           0        3.281860    1.477194   -2.107818
     21          1           0        3.938478    2.473111   -0.813753
     22          1           0        1.619003    2.825716    0.098599
     23          1           0        0.958655    1.824140   -1.202819
     24          1           0        1.727538    3.374603   -1.582547
     25          6           0        4.567708   -0.179507   -0.288415
     26          6           0        4.671539   -1.413463    0.608557
     27          6           0        6.016447   -2.128729    0.476613
     28          1           0        4.722959   -0.480539   -1.333724
     29          1           0        5.380645    0.516298   -0.039549
     30          1           0        3.858147   -2.106326    0.357658
     31          1           0        4.514763   -1.110409    1.651723
     32          1           0        6.837968   -1.457355    0.746724
     33          1           0        6.177620   -2.458930   -0.554693
     34          1           0        6.069085   -3.007818    1.126453
 ---------------------------------------------------------------------

 SCF Done:  E(RHF) =  -669.534498862     A.U. after   15 cycles
 E2 =    -0.2093033912D+01 EUMP2 =    -0.67162753277385D+03

 The electronic state is 1-A.
 Alpha  occ. eigenvalues --  -20.60706 -20.60701 -15.85760 -11.31103 -11.27690
 Alpha  occ. eigenvalues --  -11.27682 -11.27371 -11.26670 -11.26630 -11.22604
 Alpha  occ. eigenvalues --  -11.22538 -11.22378 -11.22243 -11.22057 -11.21671
 Alpha  occ. eigenvalues --   -1.59783  -1.39337  -1.19282  -1.09397  -1.08671
 Alpha  occ. eigenvalues --   -1.04690  -1.04401  -0.96874  -0.95509  -0.87885
 Alpha  occ. eigenvalues --   -0.86086  -0.82348  -0.80488  -0.79242  -0.77396
 Alpha  occ. eigenvalues --   -0.71979  -0.71107  -0.70385  -0.66050  -0.64929
 Alpha  occ. eigenvalues --   -0.64683  -0.62079  -0.61757  -0.60225  -0.58512
 Alpha  occ. eigenvalues --   -0.56185  -0.55197  -0.53513  -0.53408  -0.52921
 Alpha  occ. eigenvalues --   -0.52738  -0.50803  -0.48779  -0.48741  -0.48725
 Alpha  occ. eigenvalues --   -0.47501  -0.46728  -0.46658  -0.44748  -0.44681
 Alpha  occ. eigenvalues --   -0.37201  -0.36287
 Alpha virt. eigenvalues --    0.05133   0.11237   0.16595   0.19490   0.22492
 Alpha virt. eigenvalues --    0.23476   0.24170   0.25765   0.26897   0.28422
 Alpha virt. eigenvalues --    0.29212   0.30214   0.30955   0.31395   0.31998

 Mulliken charges:
               1
     1  C   -0.169870
     2  C   -0.220178
     3  C   -0.170743
     4  C    0.158374
     5  C   -0.173042
     6  C   -0.226525
     7  H    0.229533
     8  H    0.223087
     9  H    0.275309
    10  H    0.275437
    11  H    0.232179
    12  N    0.488072
    13  O   -0.460810
    14  O   -0.460750
    15  C   -0.304523
    16  C   -0.299521
    17  C   -0.482446
    18  H    0.145004
    19  H    0.146095
    20  H    0.156373
    21  H    0.155361
    22  H    0.146199
    23  H    0.161774
    24  H    0.166206
    25  C   -0.297881
    26  C   -0.300304
    27  C   -0.476285
    28  H    0.152799
    29  H    0.152905
    30  H    0.150147
    31  H    0.151934
    32  H    0.156601
    33  H    0.156925
    34  H    0.162566
 Sum of Mulliken charges =  -0.00000

 Dipole moment (field-independent basis, Debye):
    X=              4.4401    Y=              2.5200    Z=              1.7622  Tot=              5.4010
 Quadrupole moment (field-independent basis, Debye-Ang):
   XX=           -120.4981   YY=            -93.7896   ZZ=            -93.6961
   XY=            -10.9406   XZ=             -6.8586   YZ=              1.6475

 Normal termination of Gaussian 16 at Thu May  6 14:25:35 2021.
