 Gaussian 16, Revision A.03,
 Gaussian 16:  EM64L-G16RevA.03 25-Dec-2016

 -------------
 #p 6-31g* mp2
 -------------

 ------------------------------------------------------
 Input file generated by CHIRIPA (05-May-2021 14:55:24)
 ------------------------------------------------------
 Symbolic Z-matrix:
 Charge =  0 Multiplicity = 1

                         Standard orientation:
 ---------------------------------------------------------------------
 Center     Atomic      Atomic             Coordinates (Angstroms)
 Number     Number       Type             X           Y           Z
 ---------------------------------------------------------------------
      1          6           0       -4.508417   -1.183325   -1.319488
      2          6           0       -4.435206   -1.515092    0.037381
      3          6           0       -3.516762   -0.876440    0.875911
      4          6           0       -2.682960    0.093573    0.321709
      5          6           0       -2.731869    0.446134   -1.026104
      6          6           0       -3.658014   -0.205495   -1.845971
      7          1           0       -5.224877   -1.684486   -1.963629
      8          1           0       -5.094393   -2.274097    0.448997
      9          1           0       -3.438878   -1.113858    1.929943
     10          1           0       -2.061625    1.206863   -1.407525
     11          1           0       -3.712648    0.054195   -2.899357
     12          7           0       -1.706568    0.776554    1.199544
     13          8           0       -0.983075    1.627662    0.686893
     14          8           0       -1.683253    0.447835    2.383621
     15          6           0        3.371278    0.675790    0.067851
     16          6           0        3.008667    1.716229   -0.992332
     17          6           0        2.472205    3.014098   -0.387736
     18          1           0        2.483766    0.458448    0.677793
     19          1           0        4.121467    1.101945    0.748295
     20          1           0        2.260406    1.287752   -1.671397
     21          1           0        3.897097    1.930978   -1.599943
     22          1           0        3.216899    3.467186    0.274641
     23          1           0        1.570909    2.820308    0.202782
     24          1           0        2.219294    3.743786   -1.163268
     25          6           0        3.909057   -0.627174   -0.521051
     26          6           0        4.271668   -1.667613    0.539133
     27          6           0        4.808130   -2.965482   -0.065463
     28          1           0        3.158869   -1.053330   -1.201494
     29          1           0        4.796569   -0.409832   -1.130992
     30          1           0        3.383239   -1.882361    1.146745
     31          1           0        5.019930   -1.239137    1.218197
     32          1           0        5.709426   -2.771692   -0.655981
     33          1           0        4.063436   -3.418571   -0.727840
     34          1           0        5.061042   -3.695171    0.710070
 ---------------------------------------------------------------------

 SCF Done:  E(RHF) =  -669.536344875     A.U. after   15 cycles
 E2 =    -0.2090996864D+01 EUMP2 =    -0.67162734173936D+03

 The electronic state is 1-A.
 Alpha  occ. eigenvalues --  -20.61012 -20.61007 -15.86047 -11.31337 -11.27896
 Alpha  occ. eigenvalues --  -11.27892 -11.27629 -11.26897 -11.26888 -11.21036
 Alpha  occ. eigenvalues --  -11.20729 -11.20660 -11.20658 -11.20426 -11.19721
 Alpha  occ. eigenvalues --   -1.60073  -1.39629  -1.19503  -1.08913  -1.07646
 Alpha  occ. eigenvalues --   -1.04894  -1.02718  -0.95760  -0.95154  -0.86296
 Alpha  occ. eigenvalues --   -0.86169  -0.82594  -0.78815  -0.77651  -0.77429
 Alpha  occ. eigenvalues --   -0.72274  -0.71386  -0.70611  -0.65160  -0.64896
 Alpha  occ. eigenvalues --   -0.64275  -0.62241  -0.60104  -0.58571  -0.56769
 Alpha  occ. eigenvalues --   -0.55400  -0.54419  -0.53228  -0.52985  -0.51872
 Alpha  occ. eigenvalues --   -0.51570  -0.49175  -0.49024  -0.48915  -0.47111
 Alpha  occ. eigenvalues --   -0.45846  -0.45112  -0.44972  -0.44790  -0.42986
 Alpha  occ. eigenvalues --   -0.37481  -0.36494
 Alpha virt. eigenvalues --    0.04867   0.11161   0.16360   0.21258   0.23590
 Alpha virt. eigenvalues --    0.25092   0.27159   0.27383   0.28199   0.28288
 Alpha virt. eigenvalues --    0.28930   0.30847   0.31986   0.32454   0.32619

 Mulliken charges:
               1
     1  C   -0.170499
     2  C   -0.218607
     3  C   -0.170500
     4  C    0.157374
     5  C   -0.170911
     6  C   -0.218554
     7  H    0.226196
     8  H    0.223981
     9  H    0.275941
    10  H    0.276079
    11  H    0.224089
    12  N    0.493342
    13  O   -0.465655
    14  O   -0.458583
    15  C   -0.300667
    16  C   -0.295605
    17  C   -0.487777
    18  H    0.159940
    19  H    0.148038
    20  H    0.146149
    21  H    0.146045
    22  H    0.150223
    23  H    0.185648
    24  H    0.152184
    25  C   -0.297330
    26  C   -0.299369
    27  C   -0.475084
    28  H    0.145763
    29  H    0.147029
    30  H    0.153414
    31  H    0.151956
    32  H    0.154006
    33  H    0.152882
    34  H    0.158863
 Sum of Mulliken charges =  -0.00000

 Dipole moment (field-independent basis, Debye):
    X=             -3.7448    Y=             -2.3924    Z=             -2.9422  Tot=              5.3296
 Quadrupole moment (field-independent basis, Debye-Ang):
   XX=            -76.4722   YY=            -95.5846   ZZ=            -94.1601
   XY=              8.0879   XZ=              6.5544   YZ=             -3.5173

 Normal termination of Gaussian 16 at Wed May  5 16:05:17 2021.
