 Gaussian 16, Revision A.03,
 Gaussian 16:  EM64L-G16RevA.03 25-Dec-2016

 -------------
 #p 6-31g* mp2
 -------------

 ------------------------------------------------------
 Input file generated by CHIRIPA (05-May-2021 14:53:14)
 ------------------------------------------------------
 Symbolic Z-matrix:
 Charge =  0 Multiplicity = 1

                         Standard orientation:
 ---------------------------------------------------------------------
 Center     Atomic      Atomic             Coordinates (Angstroms)
 Number     Number       Type             X           Y           Z
 ---------------------------------------------------------------------
      1          6           0       -3.280111    1.246390   -0.287946
      2          6           0       -2.078292    2.162609   -0.055230
      3          6           0       -2.395284    3.633694   -0.325822
      4          1           0       -3.627390    1.363634   -1.323608
      5          1           0       -4.108579    1.568728    0.357914
      6          1           0       -1.251883    1.837784   -0.700329
      7          1           0       -1.733715    2.043028    0.979943
      8          1           0       -3.202704    3.980245    0.327306
      9          1           0       -2.718135    3.773835   -1.362513
     10          1           0       -1.522259    4.270815   -0.153298
     11          6           0       -2.978903   -0.227393   -0.021551
     12          6           0       -4.180723   -1.143613   -0.254267
     13          6           0       -3.863731   -2.614697    0.016325
     14          1           0       -2.150436   -0.549732   -0.667410
     15          1           0       -2.631625   -0.344638    1.014111
     16          1           0       -4.525300   -1.024031   -1.289440
     17          1           0       -5.007132   -0.818787    0.390832
     18          1           0       -3.540880   -2.754838    1.053016
     19          1           0       -3.056310   -2.961248   -0.636803
     20          1           0       -4.736756   -3.251818   -0.156199
     21          6           0        4.591039    0.859641   -0.301422
     22          6           0        4.337996   -0.339340   -0.975909
     23          6           0        3.152260   -1.044629   -0.749753
     24          6           0        2.237449   -0.519634    0.161725
     25          6           0        2.460732    0.672318    0.849246
     26          6           0        3.653253    1.360761    0.607402
     27          1           0        5.514783    1.400983   -0.483199
     28          1           0        5.064486   -0.730894   -1.682267
     29          1           0        2.930922   -1.975154   -1.258232
     30          1           0        1.717498    1.037575    1.547535
     31          1           0        3.847103    2.291662    1.132652
     32          7           0        0.978573   -1.257374    0.409451
     33          8           0        0.188692   -0.773693    1.217398
     34          8           0        0.805582   -2.305327   -0.209019
 ---------------------------------------------------------------------

 SCF Done:  E(RHF) =  -669.535769949     A.U. after   15 cycles
 E2 =    -0.2092512773D+01 EUMP2 =    -0.67162828272150D+03

 The electronic state is 1-A.
 Alpha  occ. eigenvalues --  -20.60954 -20.60927 -15.85960 -11.31289 -11.27851
 Alpha  occ. eigenvalues --  -11.27845 -11.27588 -11.26858 -11.26847 -11.20854
 Alpha  occ. eigenvalues --  -11.20594 -11.20370 -11.20298 -11.19753 -11.19631
 Alpha  occ. eigenvalues --   -1.59995  -1.39552  -1.19456  -1.08861  -1.07282
 Alpha  occ. eigenvalues --   -1.04851  -1.02485  -0.95704  -0.94916  -0.86252
 Alpha  occ. eigenvalues --   -0.85931  -0.82541  -0.78591  -0.77597  -0.76978
 Alpha  occ. eigenvalues --   -0.72182  -0.71301  -0.70563  -0.65112  -0.64854
 Alpha  occ. eigenvalues --   -0.63931  -0.62198  -0.59898  -0.58348  -0.56509
 Alpha  occ. eigenvalues --   -0.55356  -0.54205  -0.53184  -0.52943  -0.51693
 Alpha  occ. eigenvalues --   -0.51330  -0.48985  -0.48941  -0.48833  -0.46875
 Alpha  occ. eigenvalues --   -0.45645  -0.45198  -0.44433  -0.44187  -0.42687
 Alpha  occ. eigenvalues --   -0.37432  -0.36451
 Alpha virt. eigenvalues --    0.04920   0.11190   0.16406   0.21251   0.23788
 Alpha virt. eigenvalues --    0.25274   0.26988   0.27593   0.27742   0.28965
 Alpha virt. eigenvalues --    0.29053   0.31028   0.32041   0.32427   0.32515

 Mulliken charges:
               1
     1  C   -0.299006
     2  C   -0.296694
     3  C   -0.474652
     4  H    0.144597
     5  H    0.145522
     6  H    0.146630
     7  H    0.154637
     8  H    0.154359
     9  H    0.153700
    10  H    0.153516
    11  C   -0.295965
    12  C   -0.300197
    13  C   -0.474362
    14  H    0.151959
    15  H    0.166604
    16  H    0.145403
    17  H    0.145932
    18  H    0.158748
    19  H    0.162454
    20  H    0.152107
    21  C   -0.170564
    22  C   -0.218609
    23  C   -0.170854
    24  C    0.158013
    25  C   -0.170447
    26  C   -0.218632
    27  H    0.225990
    28  H    0.223767
    29  H    0.275703
    30  H    0.276232
    31  H    0.223895
    32  N    0.488807
    33  O   -0.458152
    34  O   -0.460438
 Sum of Mulliken charges =  -0.00000

 Dipole moment (field-independent basis, Debye):
    X=              4.7143    Y=              2.4145    Z=             -0.7328  Tot=              5.3470
 Quadrupole moment (field-independent basis, Debye-Ang):
   XX=            -76.2138   YY=            -97.2686   ZZ=            -92.4797
   XY=              2.7669   XZ=             -3.0813   YZ=              3.9222

 Normal termination of Gaussian 16 at Thu May  6 10:31:56 2021.
