 Gaussian 16, Revision A.03,
 Gaussian 16:  EM64L-G16RevA.03 25-Dec-2016

 -------------
 #p 6-31g* mp2
 -------------

 ------------------------------------------------------
 Input file generated by CHIRIPA (05-May-2021 14:55:23)
 ------------------------------------------------------
 Symbolic Z-matrix:
 Charge =  0 Multiplicity = 1

                         Standard orientation:
 ---------------------------------------------------------------------
 Center     Atomic      Atomic             Coordinates (Angstroms)
 Number     Number       Type             X           Y           Z
 ---------------------------------------------------------------------
      1          6           0        1.262866   -1.726016    1.221951
      2          6           0        0.860206   -0.629079    0.453109
      3          6           0        1.803391    0.141064   -0.233789
      4          6           0        3.146915   -0.215726   -0.129223
      5          6           0        3.579396   -1.302826    0.628712
      6          6           0        2.618785   -2.058801    1.307148
      7          1           0        0.523408   -2.318778    1.752263
      8          1           0       -0.192132   -0.368300    0.385124
      9          1           0        1.519285    0.995398   -0.836131
     10          1           0        4.635642   -1.538198    0.677301
     11          1           0        2.934390   -2.910160    1.903492
     12          7           0        4.154647    0.592091   -0.851933
     13          8           0        5.332195    0.257001   -0.743615
     14          8           0        3.747878    1.545050   -1.513025
     15          6           0       -4.384378   -0.059553    0.073189
     16          6           0       -4.656113   -0.823555   -1.223132
     17          6           0       -5.796986   -1.832316   -1.086737
     18          1           0       -4.148243   -0.776614    0.871317
     19          1           0       -5.300935    0.461692    0.382418
     20          1           0       -3.738928   -1.342085   -1.530564
     21          1           0       -4.891441   -0.104581   -2.018313
     22          1           0       -6.726028   -1.327184   -0.803322
     23          1           0       -5.566967   -2.571720   -0.312803
     24          1           0       -5.974247   -2.367206   -2.024996
     25          6           0       -3.246544    0.952645   -0.047302
     26          6           0       -2.974810    1.716647    1.249018
     27          6           0       -1.833936    2.725408    1.112623
     28          1           0       -2.329988    0.431399   -0.356532
     29          1           0       -3.482680    1.669707   -0.845430
     30          1           0       -2.739481    0.997673    2.044199
     31          1           0       -3.891995    2.235177    1.556452
     32          1           0       -2.063955    3.464812    0.338690
     33          1           0       -0.904894    2.220277    0.829209
     34          1           0       -1.656676    3.260298    2.050882
 ---------------------------------------------------------------------

 SCF Done:  E(RHF) =  -669.535315778     A.U. after   15 cycles
 E2 =    -0.2091886023D+01 EUMP2 =    -0.67162720180145D+03

 The electronic state is 1-A.
 Alpha  occ. eigenvalues --  -20.60751 -20.60745 -15.85805 -11.31183 -11.27761
 Alpha  occ. eigenvalues --  -11.27753 -11.27505 -11.26777 -11.26749 -11.22443
 Alpha  occ. eigenvalues --  -11.22344 -11.22267 -11.22157 -11.21817 -11.21631
 Alpha  occ. eigenvalues --   -1.59826  -1.39379  -1.19360  -1.09254  -1.08752
 Alpha  occ. eigenvalues --   -1.04770  -1.04267  -0.96714  -0.95585  -0.87724
 Alpha  occ. eigenvalues --   -0.86166  -0.82423  -0.80327  -0.79072  -0.77462
 Alpha  occ. eigenvalues --   -0.72023  -0.71149  -0.70470  -0.65991  -0.65013
 Alpha  occ. eigenvalues --   -0.64730  -0.62200  -0.61573  -0.60072  -0.58320
 Alpha  occ. eigenvalues --   -0.56026  -0.55269  -0.53366  -0.53174  -0.53059
 Alpha  occ. eigenvalues --   -0.52860  -0.50667  -0.48792  -0.48777  -0.48626
 Alpha  occ. eigenvalues --   -0.47372  -0.46580  -0.46531  -0.44782  -0.44541
 Alpha  occ. eigenvalues --   -0.37341  -0.36362
 Alpha virt. eigenvalues --    0.05053   0.11272   0.16450   0.18649   0.22718
 Alpha virt. eigenvalues --    0.23672   0.25186   0.26206   0.26763   0.28460
 Alpha virt. eigenvalues --    0.28964   0.30688   0.31094   0.31288   0.31995

 Mulliken charges:
               1
     1  C   -0.172968
     2  C   -0.226913
     3  C   -0.174266
     4  C    0.158706
     5  C   -0.170892
     6  C   -0.218443
     7  H    0.225976
     8  H    0.236108
     9  H    0.276420
    10  H    0.275692
    11  H    0.223422
    12  N    0.488156
    13  O   -0.460606
    14  O   -0.460112
    15  C   -0.298021
    16  C   -0.300135
    17  C   -0.476012
    18  H    0.146856
    19  H    0.153351
    20  H    0.150277
    21  H    0.154794
    22  H    0.156878
    23  H    0.154327
    24  H    0.162619
    25  C   -0.303580
    26  C   -0.301450
    27  C   -0.476895
    28  H    0.141172
    29  H    0.155785
    30  H    0.148984
    31  H    0.156912
    32  H    0.159764
    33  H    0.148833
    34  H    0.165262
 Sum of Mulliken charges =  -0.00000

 Dipole moment (field-independent basis, Debye):
    X=             -3.7374    Y=             -2.7670    Z=              2.5420  Tot=              5.2996
 Quadrupole moment (field-independent basis, Debye-Ang):
   XX=           -113.9991   YY=            -91.9361   ZZ=            -95.3507
   XY=            -12.1285   XZ=             10.2564   YZ=             -1.6206

 Normal termination of Gaussian 16 at Wed May  5 19:04:44 2021.
