 Gaussian 16, Revision A.03,
 Gaussian 16:  EM64L-G16RevA.03 25-Dec-2016

 -------------
 #p 6-31g* mp2
 -------------

 ------------------------------------------------------
 Input file generated by CHIRIPA (05-May-2021 14:55:21)
 ------------------------------------------------------
 Symbolic Z-matrix:
 Charge =  0 Multiplicity = 1

                         Standard orientation:
 ---------------------------------------------------------------------
 Center     Atomic      Atomic             Coordinates (Angstroms)
 Number     Number       Type             X           Y           Z
 ---------------------------------------------------------------------
      1          6           0        1.049220   -1.961211    0.555543
      2          6           0        1.660425   -1.260819    1.600723
      3          6           0        2.569400   -0.233439    1.330906
      4          6           0        2.845238    0.068573   -0.001757
      5          6           0        2.252601   -0.610930   -1.064935
      6          6           0        1.346734   -1.634607   -0.771610
      7          1           0        0.344313   -2.757866    0.774274
      8          1           0        1.431275   -1.512301    2.632369
      9          1           0        3.056975    0.324942    2.120780
     10          1           0        2.501088   -0.337444   -2.083206
     11          1           0        0.873574   -2.176846   -1.585330
     12          7           0        3.805884    1.154254   -0.299843
     13          8           0        4.031964    1.401080   -1.482469
     14          8           0        4.314570    1.737828    0.654786
     15          6           0       -3.584045   -0.561884   -0.321505
     16          6           0       -2.532181   -1.591140    0.093464
     17          6           0       -2.835730   -2.993034   -0.436014
     18          1           0       -4.568899   -0.886965    0.040888
     19          1           0       -3.647832   -0.534805   -1.418132
     20          1           0       -2.469413   -1.615278    1.188951
     21          1           0       -1.549686   -1.263474   -0.269794
     22          1           0       -2.878154   -2.990825   -1.529995
     23          1           0       -3.803106   -3.344627   -0.062962
     24          1           0       -2.071203   -3.712921   -0.127599
     25          6           0       -3.294451    0.844407    0.200234
     26          6           0       -4.346315    1.873663   -0.214733
     27          6           0       -4.042765    3.275557    0.314744
     28          1           0       -3.230663    0.817327    1.296863
     29          1           0       -2.309597    1.169488   -0.162158
     30          1           0       -5.328809    1.545998    0.148524
     31          1           0       -4.409083    1.897800   -1.310222
     32          1           0       -3.075390    3.627149   -0.058307
     33          1           0       -4.000342    3.273347    1.408726
     34          1           0       -4.807293    3.995444    0.006329
 ---------------------------------------------------------------------

 SCF Done:  E(RHF) =  -669.534457490     A.U. after   15 cycles
 E2 =    -0.2093010366D+01 EUMP2 =    -0.67162746785571D+03

 The electronic state is 1-A.
 Alpha  occ. eigenvalues --  -20.60773 -20.60768 -15.85829 -11.31190 -11.27789
 Alpha  occ. eigenvalues --  -11.27784 -11.27494 -11.26770 -11.26757 -11.22343
 Alpha  occ. eigenvalues --  -11.22112 -11.21964 -11.21906 -11.21776 -11.21270
 Alpha  occ. eigenvalues --   -1.59849  -1.39403  -1.19384  -1.08993  -1.08759
 Alpha  occ. eigenvalues --   -1.04789  -1.04113  -0.96567  -0.95603  -0.87571
 Alpha  occ. eigenvalues --   -0.86185  -0.82442  -0.80196  -0.78748  -0.77481
 Alpha  occ. eigenvalues --   -0.72047  -0.71174  -0.70498  -0.65625  -0.65027
 Alpha  occ. eigenvalues --   -0.64784  -0.62142  -0.61494  -0.60009  -0.58188
 Alpha  occ. eigenvalues --   -0.55833  -0.55232  -0.53300  -0.53169  -0.52941
 Alpha  occ. eigenvalues --   -0.52872  -0.50480  -0.48805  -0.48801  -0.48495
 Alpha  occ. eigenvalues --   -0.47213  -0.46291  -0.46188  -0.44810  -0.44347
 Alpha  occ. eigenvalues --   -0.37250  -0.36388
 Alpha virt. eigenvalues --    0.05050   0.11141   0.16506   0.19703   0.22656
 Alpha virt. eigenvalues --    0.24010   0.25806   0.26215   0.27116   0.27323
 Alpha virt. eigenvalues --    0.29137   0.30097   0.30906   0.31722   0.32108

 Mulliken charges:
               1
     1  C   -0.168269
     2  C   -0.220319
     3  C   -0.170329
     4  C    0.157806
     5  C   -0.171451
     6  C   -0.221791
     7  H    0.231655
     8  H    0.223656
     9  H    0.275750
    10  H    0.275626
    11  H    0.224426
    12  N    0.488131
    13  O   -0.460634
    14  O   -0.460431
    15  C   -0.297580
    16  C   -0.309646
    17  C   -0.478323
    18  H    0.150563
    19  H    0.150153
    20  H    0.148781
    21  H    0.159253
    22  H    0.157209
    23  H    0.161004
    24  H    0.150100
    25  C   -0.298987
    26  C   -0.300145
    27  C   -0.476204
    28  H    0.149048
    29  H    0.152453
    30  H    0.151936
    31  H    0.152561
    32  H    0.157367
    33  H    0.155165
    34  H    0.161466
 Sum of Mulliken charges =  -0.00000

 Dipole moment (field-independent basis, Debye):
    X=             -3.4521    Y=             -3.7363    Z=              1.0531  Tot=              5.1948
 Quadrupole moment (field-independent basis, Debye-Ang):
   XX=           -114.2740   YY=            -97.1051   ZZ=            -89.3328
   XY=            -11.2222   XZ=              3.3599   YZ=              0.4261

 Normal termination of Gaussian 16 at Thu May  6 10:52:51 2021.
