 Gaussian 16, Revision A.03,
 Gaussian 16:  EM64L-G16RevA.03 25-Dec-2016

 -------------
 #p 6-31g* mp2
 -------------

 ------------------------------------------------------
 Input file generated by CHIRIPA (05-May-2021 14:57:24)
 ------------------------------------------------------
 Symbolic Z-matrix:
 Charge =  0 Multiplicity = 1

                         Standard orientation:
 ---------------------------------------------------------------------
 Center     Atomic      Atomic             Coordinates (Angstroms)
 Number     Number       Type             X           Y           Z
 ---------------------------------------------------------------------
      1          6           0       -2.530371   -2.463187    0.354463
      2          6           0       -3.255862   -1.764432    1.324991
      3          6           0       -3.567416   -0.413752    1.142934
      4          6           0       -3.135791    0.209713   -0.026802
      5          6           0       -2.411411   -0.459319   -1.012175
      6          6           0       -2.111200   -1.809553   -0.808971
      7          1           0       -2.292753   -3.512254    0.504103
      8          1           0       -3.582690   -2.269485    2.229508
      9          1           0       -4.127695    0.151160    1.878039
     10          1           0       -2.099252    0.071203   -1.903533
     11          1           0       -1.547630   -2.349703   -1.564399
     12          7           0       -3.459616    1.639381   -0.230731
     13          8           0       -3.067839    2.165808   -1.269972
     14          8           0       -4.099075    2.206457    0.652532
     15          6           0        3.794293    2.410504    0.408989
     16          6           0        2.490804    2.133054   -0.015813
     17          6           0        2.085406    0.815594   -0.249267
     18          6           0        3.013600   -0.204620   -0.047006
     19          6           0        4.319303    0.039725    0.375754
     20          6           0        4.702781    1.364798    0.603074
     21          1           0        4.100702    3.436897    0.587959
     22          1           0        1.783128    2.943162   -0.167364
     23          1           0        1.082468    0.572491   -0.578559
     24          1           0        5.002289   -0.788928    0.518166
     25          1           0        5.715737    1.577302    0.932937
     26          7           0        2.596026   -1.603385   -0.290906
     27          8           0        3.432727   -2.484382   -0.105401
     28          8           0        1.439938   -1.792255   -0.662962
 ---------------------------------------------------------------------

 SCF Done:  E(RHF) =  -868.340286840     A.U. after   16 cycles
 E2 =    -0.2599260516D+01 EUMP2 =    -0.87093954735569D+03

 The electronic state is 1-A.
 Alpha  occ. eigenvalues --  -20.61250 -20.61215 -20.60693 -20.60673 -15.86274
 Alpha  occ. eigenvalues --  -15.85725 -11.31370 -11.30821 -11.27915 -11.27877
 Alpha  occ. eigenvalues --  -11.27580 -11.27316 -11.27267 -11.26876 -11.26865
 Alpha  occ. eigenvalues --  -11.26798 -11.26296 -11.26108  -1.60306  -1.59771
 Alpha  occ. eigenvalues --   -1.39869  -1.39331  -1.19512  -1.18915  -1.08956
 Alpha  occ. eigenvalues --   -1.08340  -1.04868  -1.04254  -0.95840  -0.95237
 Alpha  occ. eigenvalues --   -0.86279  -0.85653  -0.82683  -0.82069  -0.77763
 Alpha  occ. eigenvalues --   -0.77171  -0.72522  -0.71944  -0.71612  -0.71098
 Alpha  occ. eigenvalues --   -0.70616  -0.69980  -0.65168  -0.64857  -0.64544
 Alpha  occ. eigenvalues --   -0.64202  -0.62217  -0.61600  -0.55376  -0.54709
 Alpha  occ. eigenvalues --   -0.53220  -0.52959  -0.52593  -0.52309  -0.49273
 Alpha  occ. eigenvalues --   -0.49235  -0.48720  -0.48671  -0.45334  -0.44799
 Alpha  occ. eigenvalues --   -0.37479  -0.36835  -0.36461  -0.35822
 Alpha virt. eigenvalues --    0.04749   0.05288   0.11194   0.11777   0.16309
 Alpha virt. eigenvalues --    0.16899   0.21229   0.22113   0.26814   0.27689
 Alpha virt. eigenvalues --    0.28494   0.29032   0.30979   0.31635   0.32065

 Mulliken charges:
               1
     1  C   -0.170549
     2  C   -0.218485
     3  C   -0.173788
     4  C    0.156688
     5  C   -0.181309
     6  C   -0.203883
     7  H    0.229516
     8  H    0.222089
     9  H    0.272680
    10  H    0.271447
    11  H    0.236195
    12  N    0.487572
    13  O   -0.465446
    14  O   -0.461477
    15  C   -0.170193
    16  C   -0.219548
    17  C   -0.171233
    18  C    0.157285
    19  C   -0.171186
    20  C   -0.218714
    21  H    0.227664
    22  H    0.230669
    23  H    0.274338
    24  H    0.274828
    25  H    0.223907
    26  N    0.491368
    27  O   -0.459580
    28  O   -0.470856
 Sum of Mulliken charges =  -0.00000

 Dipole moment (field-independent basis, Debye):
    X=              2.8034    Y=             -0.2737    Z=              1.5697  Tot=              3.2245
 Quadrupole moment (field-independent basis, Debye-Ang):
   XX=            -98.9879   YY=           -108.9334   ZZ=           -101.8027
   XY=             30.0888   XZ=             -0.6276   YZ=             -0.2944

 Normal termination of Gaussian 16 at Thu May  6 09:48:59 2021.
