 Gaussian 16, Revision A.03,
 Gaussian 16:  EM64L-G16RevA.03 25-Dec-2016

 -------------
 #p 6-31g* mp2
 -------------

 ------------------------------------------------------
 Input file generated by CHIRIPA (05-May-2021 14:51:13)
 ------------------------------------------------------
 Symbolic Z-matrix:
 Charge =  0 Multiplicity = 1

                         Standard orientation:
 ---------------------------------------------------------------------
 Center     Atomic      Atomic             Coordinates (Angstroms)
 Number     Number       Type             X           Y           Z
 ---------------------------------------------------------------------
      1          6           0        4.643766   -0.640195   -0.025504
      2          6           0        6.169182   -0.734879   -0.071616
      3          6           0        6.680077   -2.158747    0.150604
      4          1           0        4.288911   -1.011198    0.945773
      5          1           0        4.218749   -1.306558   -0.788863
      6          1           0        6.591230   -0.067492    0.690674
      7          1           0        6.520459   -0.363428   -1.042824
      8          1           0        6.286664   -2.833334   -0.616702
      9          1           0        6.357837   -2.535717    1.126645
     10          1           0        7.773005   -2.203470    0.113619
     11          6           0        4.117815    0.777019   -0.245974
     12          6           0        2.592399    0.871704   -0.199862
     13          6           0        2.081503    2.295571   -0.422081
     14          1           0        4.542831    1.443382    0.517385
     15          1           0        4.472669    1.148023   -1.217251
     16          1           0        2.241121    0.500253    0.771346
     17          1           0        2.170350    0.204317   -0.962152
     18          1           0        2.403744    2.672541   -1.398122
     19          1           0        2.474917    2.970159    0.345224
     20          1           0        0.988575    2.340295   -0.385097
     21          6           0       -3.861695    0.482486    0.033355
     22          6           0       -2.581959    0.267672    0.842131
     23          6           0       -1.553128    1.378033    0.626730
     24          1           0       -3.607244    0.546632   -1.033456
     25          1           0       -4.302722    1.450637    0.308263
     26          1           0       -2.144219   -0.700411    0.566786
     27          1           0       -2.839509    0.203838    1.907123
     28          1           0       -1.966682    2.348505    0.919576
     29          1           0       -1.267442    1.439119   -0.428378
     30          1           0       -0.646191    1.204492    1.214275
     31          6           0       -4.899886   -0.619312    0.238122
     32          6           0       -6.179621   -0.404496   -0.570653
     33          6           0       -7.208452   -1.514858   -0.355253
     34          1           0       -4.458859   -1.587462   -0.036785
     35          1           0       -5.154336   -0.683457    1.304933
     36          1           0       -5.922073   -0.340663   -1.635645
     37          1           0       -6.617361    0.563587   -0.295307
     38          1           0       -7.494139   -1.575942    0.699855
     39          1           0       -6.794900   -2.485330   -0.648098
     40          1           0       -8.115389   -1.341316   -0.942797
 ---------------------------------------------------------------------

 SCF Done:  E(RHF) =  -470.732753308     A.U. after   11 cycles
 E2 =    -0.1582752539D+01 EUMP2 =    -0.47231550584747D+03

 The electronic state is 1-A.
 Alpha  occ. eigenvalues --  -11.21618 -11.21610 -11.21579 -11.21539 -11.21419
 Alpha  occ. eigenvalues --  -11.21367 -11.21359 -11.21305 -11.21102 -11.21078
 Alpha  occ. eigenvalues --  -11.21055 -11.20869  -1.08448  -1.08383  -1.03568
 Alpha  occ. eigenvalues --   -1.03456  -0.96057  -0.95869  -0.87097  -0.86868
 Alpha  occ. eigenvalues --   -0.79640  -0.79520  -0.78258  -0.78200  -0.65078
 Alpha  occ. eigenvalues --   -0.65018  -0.60972  -0.60877  -0.59575  -0.59128
 Alpha  occ. eigenvalues --   -0.57630  -0.57522  -0.55287  -0.55202  -0.52984
 Alpha  occ. eigenvalues --   -0.52506  -0.52415  -0.52139  -0.49922  -0.49857
 Alpha  occ. eigenvalues --   -0.47984  -0.47799  -0.46633  -0.46576  -0.45804
 Alpha  occ. eigenvalues --   -0.45736  -0.45720  -0.45670  -0.43876  -0.43611
 Alpha virt. eigenvalues --    0.22054   0.23007   0.23498   0.24959   0.26433
 Alpha virt. eigenvalues --    0.26614   0.26947   0.27287   0.27758   0.29094
 Alpha virt. eigenvalues --    0.29601   0.31022   0.31491   0.31565   0.32244

 Mulliken charges:
               1
     1  C   -0.298181
     2  C   -0.299606
     3  C   -0.475670
     4  H    0.149433
     5  H    0.149304
     6  H    0.151898
     7  H    0.151901
     8  H    0.155093
     9  H    0.155114
    10  H    0.160178
    11  C   -0.298110
    12  C   -0.299265
    13  C   -0.484871
    14  H    0.149445
    15  H    0.149612
    16  H    0.151199
    17  H    0.151223
    18  H    0.153790
    19  H    0.154017
    20  H    0.172565
    21  C   -0.298668
    22  C   -0.299997
    23  C   -0.479837
    24  H    0.149768
    25  H    0.149563
    26  H    0.152411
    27  H    0.151921
    28  H    0.155619
    29  H    0.155852
    30  H    0.164119
    31  C   -0.298308
    32  C   -0.299644
    33  C   -0.475715
    34  H    0.149580
    35  H    0.149684
    36  H    0.151950
    37  H    0.151953
    38  H    0.155192
    39  H    0.155200
    40  H    0.160288
 Sum of Mulliken charges =  -0.00000

 Dipole moment (field-independent basis, Debye):
    X=             -0.0549    Y=              0.0039    Z=              0.0093  Tot=              0.0558
 Quadrupole moment (field-independent basis, Debye-Ang):
   XX=            -85.8026   YY=            -85.9969   ZZ=            -83.1600
   XY=             -0.3786   XZ=             -0.3003   YZ=              0.8007

 Normal termination of Gaussian 16 at Wed May  5 18:22:02 2021.
