 Gaussian 16, Revision A.03,
 Gaussian 16:  EM64L-G16RevA.03 25-Dec-2016

 -------------
 #p 6-31g* mp2
 -------------

 ------------------------------------------------------
 Input file generated by CHIRIPA (05-May-2021 14:55:20)
 ------------------------------------------------------
 Symbolic Z-matrix:
 Charge =  0 Multiplicity = 1

                         Standard orientation:
 ---------------------------------------------------------------------
 Center     Atomic      Atomic             Coordinates (Angstroms)
 Number     Number       Type             X           Y           Z
 ---------------------------------------------------------------------
      1          6           0       -3.936797    1.189371    0.988296
      2          6           0       -4.373000    0.247973    0.050203
      3          6           0       -3.482545   -0.689274   -0.481971
      4          6           0       -2.156975   -0.656375   -0.051774
      5          6           0       -1.692048    0.269046    0.881355
      6          6           0       -2.600070    1.196890    1.400152
      7          1           0       -4.635347    1.913794    1.396505
      8          1           0       -5.410542    0.239784   -0.271487
      9          1           0       -3.793479   -1.429118   -1.209548
     10          1           0       -0.651690    0.252448    1.182682
     11          1           0       -2.258505    1.926834    2.128547
     12          7           0       -1.204991   -1.643619   -0.608081
     13          8           0       -0.042299   -1.593729   -0.212741
     14          8           0       -1.639546   -2.448616   -1.428921
     15          6           0        2.516432    1.238587    0.079441
     16          6           0        2.289626    2.102523   -1.161589
     17          6           0        1.396762    3.312405   -0.884505
     18          1           0        1.545178    0.898838    0.464383
     19          1           0        2.967423    1.855042    0.869368
     20          1           0        1.840471    1.484284   -1.949407
     21          1           0        3.261544    2.440097   -1.543734
     22          1           0        1.842985    3.952712   -0.116722
     23          1           0        0.413837    2.991469   -0.524700
     24          1           0        1.247824    3.916112   -1.785180
     25          6           0        3.407082    0.025196   -0.181618
     26          6           0        3.633889   -0.838741    1.059413
     27          6           0        4.526753   -2.048622    0.782330
     28          1           0        2.956091   -0.591260   -0.971545
     29          1           0        4.378337    0.364944   -0.566561
     30          1           0        2.661970   -1.176315    1.441557
     31          1           0        4.083045   -0.220503    1.847231
     32          1           0        5.509677   -1.727687    0.422524
     33          1           0        4.080530   -2.688930    0.014546
     34          1           0        4.675691   -2.652330    1.683004
 ---------------------------------------------------------------------

 SCF Done:  E(RHF) =  -669.536138550     A.U. after   15 cycles
 E2 =    -0.2092954116D+01 EUMP2 =    -0.67162909266615D+03

 The electronic state is 1-A.
 Alpha  occ. eigenvalues --  -20.61006 -20.60996 -15.86036 -11.31329 -11.27886
 Alpha  occ. eigenvalues --  -11.27880 -11.27613 -11.26892 -11.26882 -11.21234
 Alpha  occ. eigenvalues --  -11.20992 -11.20906 -11.20697 -11.20488 -11.20191
 Alpha  occ. eigenvalues --   -1.60063  -1.39620  -1.19495  -1.08902  -1.07786
 Alpha  occ. eigenvalues --   -1.04888  -1.02934  -0.95752  -0.95409  -0.86438
 Alpha  occ. eigenvalues --   -0.86286  -0.82584  -0.79040  -0.77741  -0.77492
 Alpha  occ. eigenvalues --   -0.72269  -0.71375  -0.70606  -0.65165  -0.64921
 Alpha  occ. eigenvalues --   -0.64340  -0.62234  -0.60303  -0.58818  -0.57025
 Alpha  occ. eigenvalues --   -0.55395  -0.54696  -0.53214  -0.52986  -0.52136
 Alpha  occ. eigenvalues --   -0.51847  -0.49365  -0.49022  -0.48991  -0.47359
 Alpha  occ. eigenvalues --   -0.46064  -0.45191  -0.44986  -0.44914  -0.43174
 Alpha  occ. eigenvalues --   -0.37467  -0.36477
 Alpha virt. eigenvalues --    0.04834   0.11118   0.16334   0.20469   0.23351
 Alpha virt. eigenvalues --    0.24775   0.25364   0.27537   0.27832   0.28395
 Alpha virt. eigenvalues --    0.29526   0.31242   0.31840   0.32116   0.32559

 Mulliken charges:
               1
     1  C   -0.170212
     2  C   -0.218544
     3  C   -0.170140
     4  C    0.155479
     5  C   -0.174022
     6  C   -0.221418
     7  H    0.226377
     8  H    0.224038
     9  H    0.275913
    10  H    0.285123
    11  H    0.225254
    12  N    0.490680
    13  O   -0.465848
    14  O   -0.458496
    15  C   -0.303176
    16  C   -0.299756
    17  C   -0.475873
    18  H    0.150797
    19  H    0.143819
    20  H    0.156770
    21  H    0.151723
    22  H    0.152813
    23  H    0.148690
    24  H    0.160026
    25  C   -0.297147
    26  C   -0.301709
    27  C   -0.476393
    28  H    0.164764
    29  H    0.144425
    30  H    0.161633
    31  H    0.144033
    32  H    0.150830
    33  H    0.162681
    34  H    0.156867
 Sum of Mulliken charges =  -0.00000

 Dipole moment (field-independent basis, Debye):
    X=             -3.5387    Y=              3.2682    Z=              1.8492  Tot=              5.1598
 Quadrupole moment (field-independent basis, Debye-Ang):
   XX=            -77.9791   YY=           -100.0487   ZZ=            -93.9523
   XY=             -3.1276   XZ=             -2.0145   YZ=              0.0558

 Normal termination of Gaussian 16 at Thu May  6 04:31:45 2021.
