 Gaussian 16, Revision A.03,
 Gaussian 16:  EM64L-G16RevA.03 25-Dec-2016

 -------------
 #p 6-31g* mp2
 -------------

 ------------------------------------------------------
 Input file generated by CHIRIPA (05-May-2021 14:55:25)
 ------------------------------------------------------
 Symbolic Z-matrix:
 Charge =  0 Multiplicity = 1

                         Standard orientation:
 ---------------------------------------------------------------------
 Center     Atomic      Atomic             Coordinates (Angstroms)
 Number     Number       Type             X           Y           Z
 ---------------------------------------------------------------------
      1          6           0        5.608186    1.858608    0.032129
      2          6           0        6.073212    0.539783    0.063345
      3          6           0        5.174415   -0.530772    0.038381
      4          6           0        3.811200   -0.244866   -0.018143
      5          6           0        3.316930    1.058187   -0.050357
      6          6           0        4.233952    2.113152   -0.024522
      7          1           0        6.313472    2.684185    0.051860
      8          1           0        7.139908    0.339114    0.107348
      9          1           0        5.507108   -1.561401    0.061564
     10          1           0        2.247777    1.226749   -0.094143
     11          1           0        3.869945    3.136358   -0.048867
     12          7           0        2.850037   -1.369963   -0.045032
     13          8           0        1.653955   -1.091506   -0.094895
     14          8           0        3.310959   -2.508966   -0.015735
     15          6           0       -4.472821   -0.384174    0.057442
     16          6           0       -3.140972    0.364681   -0.000686
     17          6           0       -1.933401   -0.569676    0.080218
     18          1           0       -4.518976   -0.965553    0.988470
     19          1           0       -4.513716   -1.109904   -0.766597
     20          1           0       -3.103183    1.089751    0.822394
     21          1           0       -3.098062    0.944496   -0.931593
     22          1           0       -1.943499   -1.284894   -0.748614
     23          1           0       -1.948649   -1.138812    1.015340
     24          1           0       -0.991804   -0.013458    0.036904
     25          6           0       -5.689385    0.536333   -0.022342
     26          6           0       -7.021234   -0.212523    0.035787
     27          6           0       -8.228805    0.721834   -0.045118
     28          1           0       -5.648490    1.262063    0.801697
     29          1           0       -5.643230    1.117712   -0.953369
     30          1           0       -7.064143   -0.792338    0.966694
     31          1           0       -7.059023   -0.937593   -0.787294
     32          1           0       -8.213557    1.290970   -0.980239
     33          1           0       -8.218707    1.437051    0.783715
     34          1           0       -9.170402    0.165616   -0.001804
 ---------------------------------------------------------------------

 SCF Done:  E(RHF) =  -669.535617123     A.U. after   15 cycles
 E2 =    -0.2090734431D+01 EUMP2 =    -0.67162635155489D+03

 The electronic state is 1-A.
 Alpha  occ. eigenvalues --  -20.60833 -20.60826 -15.85877 -11.31242 -11.27817
 Alpha  occ. eigenvalues --  -11.27807 -11.27554 -11.26829 -11.26819 -11.21198
 Alpha  occ. eigenvalues --  -11.20903 -11.20806 -11.20753 -11.20716 -11.19782
 Alpha  occ. eigenvalues --   -1.59901  -1.39456  -1.19415  -1.08810  -1.07842
 Alpha  occ. eigenvalues --   -1.04819  -1.02868  -0.95651  -0.95274  -0.86281
 Alpha  occ. eigenvalues --   -0.86215  -0.82479  -0.78942  -0.77653  -0.77518
 Alpha  occ. eigenvalues --   -0.72100  -0.71221  -0.70525  -0.65071  -0.64822
 Alpha  occ. eigenvalues --   -0.64483  -0.62168  -0.60274  -0.58681  -0.56896
 Alpha  occ. eigenvalues --   -0.55320  -0.54573  -0.53148  -0.52912  -0.51916
 Alpha  occ. eigenvalues --   -0.51703  -0.49226  -0.48855  -0.48843  -0.47243
 Alpha  occ. eigenvalues --   -0.46008  -0.45175  -0.45117  -0.44857  -0.43091
 Alpha  occ. eigenvalues --   -0.37396  -0.36422
 Alpha virt. eigenvalues --    0.05011   0.11232   0.16503   0.21162   0.23392
 Alpha virt. eigenvalues --    0.24704   0.26754   0.27199   0.27658   0.28064
 Alpha virt. eigenvalues --    0.29044   0.30376   0.31696   0.32066   0.32341

 Mulliken charges:
               1
     1  C   -0.170725
     2  C   -0.218538
     3  C   -0.170909
     4  C    0.157883
     5  C   -0.170579
     6  C   -0.218661
     7  H    0.225794
     8  H    0.223642
     9  H    0.275789
    10  H    0.275443
    11  H    0.223708
    12  N    0.494389
    13  O   -0.465247
    14  O   -0.459894
    15  C   -0.297490
    16  C   -0.301565
    17  C   -0.472216
    18  H    0.149412
    19  H    0.149731
    20  H    0.146649
    21  H    0.147410
    22  H    0.157262
    23  H    0.154520
    24  H    0.168881
    25  C   -0.297443
    26  C   -0.299229
    27  C   -0.475332
    28  H    0.147724
    29  H    0.148054
    30  H    0.151763
    31  H    0.151914
    32  H    0.154334
    33  H    0.154235
    34  H    0.159292
 Sum of Mulliken charges =  -0.00000

 Dipole moment (field-independent basis, Debye):
    X=              3.6378    Y=              3.8808    Z=              0.0887  Tot=              5.3200
 Quadrupole moment (field-independent basis, Debye-Ang):
   XX=            -68.2351   YY=            -95.2500   ZZ=            -94.6924
   XY=             12.4658   XZ=              0.4420   YZ=             -0.1133

 Normal termination of Gaussian 16 at Thu May  6 06:24:36 2021.
