 Gaussian 16, Revision A.03,
 Gaussian 16:  EM64L-G16RevA.03 25-Dec-2016

 -------------
 #p 6-31g* mp2
 -------------

 ------------------------------------------------------
 Input file generated by CHIRIPA (05-May-2021 14:51:13)
 ------------------------------------------------------
 Symbolic Z-matrix:
 Charge =  0 Multiplicity = 1

                         Standard orientation:
 ---------------------------------------------------------------------
 Center     Atomic      Atomic             Coordinates (Angstroms)
 Number     Number       Type             X           Y           Z
 ---------------------------------------------------------------------
      1          6           0       -3.838715    0.751968    0.142254
      2          6           0       -2.688837    1.479068   -0.555665
      3          6           0       -2.523954    2.921578   -0.076319
      4          1           0       -4.771973    1.305715   -0.029030
      5          1           0       -3.664415    0.761171    1.227118
      6          1           0       -2.864555    1.467290   -1.638994
      7          1           0       -1.758240    0.923421   -0.382859
      8          1           0       -2.324078    2.949492    0.999725
      9          1           0       -3.436680    3.496450   -0.263546
     10          1           0       -1.696434    3.422621   -0.588204
     11          6           0       -4.016148   -0.691184   -0.326317
     12          6           0       -5.166025   -1.418283    0.371603
     13          6           0       -5.330908   -2.860793   -0.107743
     14          1           0       -4.190447   -0.700387   -1.411181
     15          1           0       -3.082890   -1.244931   -0.155032
     16          1           0       -6.096622   -0.862637    0.198797
     17          1           0       -4.990307   -1.406505    1.454931
     18          1           0       -4.418183   -3.435666    0.079484
     19          1           0       -5.530784   -2.888707   -1.183787
     20          1           0       -6.158428   -3.361837    0.404142
     21          6           0        4.624808   -0.030263   -0.219574
     22          6           0        5.492963   -1.203408    0.236523
     23          6           0        6.885150   -1.189355   -0.395467
     24          1           0        4.532477   -0.054451   -1.314031
     25          1           0        5.132547    0.911566    0.030532
     26          1           0        4.983098   -2.142733   -0.013126
     27          1           0        5.583080   -1.176536    1.330036
     28          1           0        7.416746   -0.268127   -0.135956
     29          1           0        6.813357   -1.239813   -1.486751
     30          1           0        7.488876   -2.036645   -0.055653
     31          6           0        3.230055   -0.030520    0.403636
     32          6           0        2.361900    1.142624   -0.052460
     33          6           0        0.969712    1.128570    0.579529
     34          1           0        2.722316   -0.972351    0.153530
     35          1           0        3.322385   -0.006333    1.498093
     36          1           0        2.271784    1.115751   -1.145974
     37          1           0        2.871764    2.081948    0.197189
     38          1           0        1.041507    1.179028    1.670813
     39          1           0        0.438116    0.207342    0.320017
     40          1           0        0.365986    1.975860    0.239715
 ---------------------------------------------------------------------

 SCF Done:  E(RHF) =  -470.732199214     A.U. after   11 cycles
 E2 =    -0.1583396263D+01 EUMP2 =    -0.47231559547697D+03

 The electronic state is 1-A.
 Alpha  occ. eigenvalues --  -11.21621 -11.21615 -11.21568 -11.21423 -11.21417
 Alpha  occ. eigenvalues --  -11.21363 -11.21348 -11.21275 -11.21081 -11.21069
 Alpha  occ. eigenvalues --  -11.21050 -11.21026  -1.08454  -1.08362  -1.03584
 Alpha  occ. eigenvalues --   -1.03443  -0.96055  -0.95891  -0.87037  -0.86947
 Alpha  occ. eigenvalues --   -0.79680  -0.79486  -0.78274  -0.78164  -0.65113
 Alpha  occ. eigenvalues --   -0.64984  -0.61084  -0.60828  -0.59547  -0.59128
 Alpha  occ. eigenvalues --   -0.57715  -0.57429  -0.55336  -0.55205  -0.52763
 Alpha  occ. eigenvalues --   -0.52542  -0.52472  -0.52276  -0.50076  -0.49788
 Alpha  occ. eigenvalues --   -0.47976  -0.47806  -0.46800  -0.46419  -0.45839
 Alpha  occ. eigenvalues --   -0.45760  -0.45690  -0.45516  -0.43754  -0.43725
 Alpha virt. eigenvalues --    0.21891   0.23025   0.23564   0.24900   0.25744
 Alpha virt. eigenvalues --    0.26725   0.26990   0.27331   0.27749   0.29160
 Alpha virt. eigenvalues --    0.30626   0.31240   0.31692   0.31943   0.32364

 Mulliken charges:
               1
     1  C   -0.297554
     2  C   -0.307928
     3  C   -0.477422
     4  H    0.148991
     5  H    0.149351
     6  H    0.150561
     7  H    0.162878
     8  H    0.155900
     9  H    0.155597
    10  H    0.158645
    11  C   -0.298088
    12  C   -0.299581
    13  C   -0.475667
    14  H    0.149341
    15  H    0.148834
    16  H    0.151937
    17  H    0.151936
    18  H    0.155001
    19  H    0.155072
    20  H    0.160158
    21  C   -0.298273
    22  C   -0.299644
    23  C   -0.475715
    24  H    0.149716
    25  H    0.149585
    26  H    0.151915
    27  H    0.151926
    28  H    0.155207
    29  H    0.155216
    30  H    0.160287
    31  C   -0.298787
    32  C   -0.299433
    33  C   -0.483137
    34  H    0.149555
    35  H    0.149618
    36  H    0.152185
    37  H    0.152024
    38  H    0.154918
    39  H    0.155304
    40  H    0.169573
 Sum of Mulliken charges =  -0.00000

 Dipole moment (field-independent basis, Debye):
    X=              0.0427    Y=              0.0081    Z=              0.0118  Tot=              0.0450
 Quadrupole moment (field-independent basis, Debye-Ang):
   XX=            -85.6156   YY=            -85.5669   ZZ=            -83.8551
   XY=             -0.0886   XZ=              1.0330   YZ=             -0.0582

 Normal termination of Gaussian 16 at Thu May  6 02:22:03 2021.
