 Gaussian 16, Revision A.03,
 Gaussian 16:  EM64L-G16RevA.03 25-Dec-2016

 -------------
 #p 6-31g* mp2
 -------------

 ------------------------------------------------------
 Input file generated by CHIRIPA (05-May-2021 14:57:25)
 ------------------------------------------------------
 Symbolic Z-matrix:
 Charge =  0 Multiplicity = 1

                         Standard orientation:
 ---------------------------------------------------------------------
 Center     Atomic      Atomic             Coordinates (Angstroms)
 Number     Number       Type             X           Y           Z
 ---------------------------------------------------------------------
      1          6           0        0.702973   -2.116866    0.946624
      2          6           0        1.043320   -2.056415   -0.408747
      3          6           0        2.048183   -1.190610   -0.850538
      4          6           0        2.695064   -0.395863    0.094561
      5          6           0        2.378657   -0.433317    1.451680
      6          6           0        1.370551   -1.306553    1.870883
      7          1           0       -0.078889   -2.792330    1.281045
      8          1           0        0.526557   -2.684551   -1.128779
      9          1           0        2.331688   -1.123716   -1.893883
     10          1           0        2.911571    0.205107    2.145824
     11          1           0        1.108331   -1.351393    2.924104
     12          7           0        3.760584    0.524659   -0.361187
     13          8           0        4.315476    1.214475    0.491389
     14          8           0        4.020671    0.538918   -1.562348
     15          6           0       -4.428349   -1.099659   -0.262698
     16          6           0       -3.239036   -1.366960   -0.948702
     17          6           0       -2.174807   -0.461429   -0.904212
     18          6           0       -2.334908    0.706824   -0.160681
     19          6           0       -3.507306    1.001542    0.533521
     20          6           0       -4.558459    0.081657    0.474925
     21          1           0       -5.249990   -1.808672   -0.302737
     22          1           0       -3.135172   -2.283579   -1.522347
     23          1           0       -1.243010   -0.643307   -1.425838
     24          1           0       -3.581147    1.923771    1.096956
     25          1           0       -5.480937    0.291873    1.008676
     26          7           0       -1.215178    1.673068   -0.106114
     27          8           0       -1.381297    2.695127    0.556032
     28          8           0       -0.192616    1.390056   -0.726524
 ---------------------------------------------------------------------

 SCF Done:  E(RHF) =  -868.335775278     A.U. after   16 cycles
 E2 =    -0.2604143863D+01 EUMP2 =    -0.87093991914154D+03

 The electronic state is 1-A.
 Alpha  occ. eigenvalues --  -20.61059 -20.61036 -20.59984 -20.59978 -15.86098
 Alpha  occ. eigenvalues --  -15.85049 -11.31588 -11.30538 -11.28192 -11.28180
 Alpha  occ. eigenvalues --  -11.27988 -11.27277 -11.27272 -11.27207 -11.27206
 Alpha  occ. eigenvalues --  -11.27140 -11.26407 -11.26287  -1.60115  -1.59040
 Alpha  occ. eigenvalues --   -1.39668  -1.38599  -1.19801  -1.18805  -1.09167
 Alpha  occ. eigenvalues --   -1.08202  -1.05238  -1.04295  -0.95979  -0.94998
 Alpha  occ. eigenvalues --   -0.86623  -0.85700  -0.82821  -0.81866  -0.77851
 Alpha  occ. eigenvalues --   -0.76846  -0.72347  -0.71449  -0.71297  -0.70912
 Alpha  occ. eigenvalues --   -0.70310  -0.70001  -0.65456  -0.65257  -0.64516
 Alpha  occ. eigenvalues --   -0.64387  -0.62598  -0.61646  -0.55731  -0.54858
 Alpha  occ. eigenvalues --   -0.53580  -0.53394  -0.52471  -0.52419  -0.49096
 Alpha  occ. eigenvalues --   -0.49055  -0.48057  -0.48021  -0.45001  -0.43984
 Alpha  occ. eigenvalues --   -0.37877  -0.37196  -0.36380  -0.35797
 Alpha virt. eigenvalues --    0.04679   0.05730   0.10666   0.11880   0.16127
 Alpha virt. eigenvalues --    0.17000   0.20385   0.21961   0.25947   0.27526
 Alpha virt. eigenvalues --    0.28571   0.28937   0.30563   0.31298   0.32519

 Mulliken charges:
               1
     1  C   -0.169555
     2  C   -0.230042
     3  C   -0.156301
     4  C    0.172858
     5  C   -0.165142
     6  C   -0.221494
     7  H    0.220616
     8  H    0.212041
     9  H    0.274364
    10  H    0.276611
    11  H    0.221233
    12  N    0.489554
    13  O   -0.460673
    14  O   -0.461345
    15  C   -0.170720
    16  C   -0.224416
    17  C   -0.167845
    18  C    0.156186
    19  C   -0.170667
    20  C   -0.219558
    21  H    0.226008
    22  H    0.219591
    23  H    0.276278
    24  H    0.277042
    25  H    0.224556
    26  N    0.489669
    27  O   -0.459099
    28  O   -0.459749
 Sum of Mulliken charges =  -0.00000

 Dipole moment (field-independent basis, Debye):
    X=             -7.5203    Y=             -6.2854    Z=              1.4517  Tot=              9.9080
 Quadrupole moment (field-independent basis, Debye-Ang):
   XX=           -105.9415   YY=           -106.5633   ZZ=            -99.0485
   XY=             -3.5769   XZ=              3.8243   YZ=              3.1616

 Normal termination of Gaussian 16 at Thu May  6 16:26:37 2021.
