 Gaussian 16, Revision A.03,
 Gaussian 16:  EM64L-G16RevA.03 25-Dec-2016

 -------------
 #p 6-31g* mp2
 -------------

 ------------------------------------------------------
 Input file generated by CHIRIPA (05-May-2021 14:55:22)
 ------------------------------------------------------
 Symbolic Z-matrix:
 Charge =  0 Multiplicity = 1

                         Standard orientation:
 ---------------------------------------------------------------------
 Center     Atomic      Atomic             Coordinates (Angstroms)
 Number     Number       Type             X           Y           Z
 ---------------------------------------------------------------------
      1          6           0       -1.048445   -0.142975    0.499959
      2          6           0       -1.523345   -0.278359   -0.808728
      3          6           0       -2.897047   -0.325129   -1.064274
      4          6           0       -3.771550   -0.233337    0.017442
      5          6           0       -3.329279   -0.097851    1.332482
      6          6           0       -1.951336   -0.053311    1.564511
      7          1           0        0.020327   -0.107510    0.689339
      8          1           0       -0.824466   -0.348221   -1.637422
      9          1           0       -3.291949   -0.429409   -2.067566
     10          1           0       -4.050388   -0.030604    2.138024
     11          1           0       -1.585379    0.051885    2.581887
     12          7           0       -5.228072   -0.281670   -0.240645
     13          8           0       -5.977883   -0.198780    0.729689
     14          8           0       -5.592302   -0.401527   -1.408381
     15          6           0        4.726732   -0.446582   -0.099464
     16          6           0        6.232032   -0.659034    0.064609
     17          6           0        6.629424   -2.134708    0.017046
     18          1           0        4.197036   -0.996083    0.690736
     19          1           0        4.403742   -0.883651   -1.054473
     20          1           0        6.552329   -0.220475    1.018387
     21          1           0        6.758216   -0.108807   -0.725958
     22          1           0        6.337819   -2.581576   -0.938922
     23          1           0        6.130761   -2.693879    0.815334
     24          1           0        7.709712   -2.263603    0.136303
     25          6           0        4.313902    1.023533   -0.054079
     26          6           0        2.808602    1.235986   -0.218151
     27          6           0        2.411210    2.711659   -0.170589
     28          1           0        4.636892    1.460602    0.900931
     29          1           0        4.843598    1.573035   -0.844278
     30          1           0        2.282418    0.685759    0.572416
     31          1           0        2.488305    0.797425   -1.171929
     32          1           0        2.909873    3.270829   -0.968877
     33          1           0        2.702815    3.158527    0.785380
     34          1           0        1.330922    2.840554   -0.289845
 ---------------------------------------------------------------------

 SCF Done:  E(RHF) =  -669.535631048     A.U. after   15 cycles
 E2 =    -0.2091179193D+01 EUMP2 =    -0.67162681024081D+03

 The electronic state is 1-A.
 Alpha  occ. eigenvalues --  -20.60723 -20.60718 -15.85777 -11.31132 -11.27703
 Alpha  occ. eigenvalues --  -11.27699 -11.27392 -11.26708 -11.26698 -11.22863
 Alpha  occ. eigenvalues --  -11.22322 -11.22272 -11.22194 -11.22038 -11.21639
 Alpha  occ. eigenvalues --   -1.59799  -1.39353  -1.19302  -1.09337  -1.08692
 Alpha  occ. eigenvalues --   -1.04706  -1.04407  -0.96809  -0.95531  -0.87825
 Alpha  occ. eigenvalues --   -0.86100  -0.82371  -0.80516  -0.79139  -0.77419
 Alpha  occ. eigenvalues --   -0.71994  -0.71122  -0.70412  -0.65964  -0.64951
 Alpha  occ. eigenvalues --   -0.64710  -0.62056  -0.61805  -0.60210  -0.58442
 Alpha  occ. eigenvalues --   -0.56086  -0.55184  -0.53510  -0.53231  -0.53024
 Alpha  occ. eigenvalues --   -0.52795  -0.50748  -0.48812  -0.48750  -0.48738
 Alpha  occ. eigenvalues --   -0.47550  -0.46667  -0.46577  -0.44761  -0.44648
 Alpha  occ. eigenvalues --   -0.37271  -0.36315
 Alpha virt. eigenvalues --    0.05108   0.11331   0.16568   0.19716   0.22382
 Alpha virt. eigenvalues --    0.23803   0.24850   0.25847   0.27112   0.27396
 Alpha virt. eigenvalues --    0.28951   0.29831   0.30993   0.31200   0.31789

 Mulliken charges:
               1
     1  C   -0.176434
     2  C   -0.222321
     3  C   -0.170819
     4  C    0.158251
     5  C   -0.170720
     6  C   -0.220915
     7  H    0.236900
     8  H    0.223932
     9  H    0.275353
    10  H    0.275339
    11  H    0.223330
    12  N    0.488021
    13  O   -0.460603
    14  O   -0.460613
    15  C   -0.298833
    16  C   -0.300291
    17  C   -0.476193
    18  H    0.147582
    19  H    0.149532
    20  H    0.153140
    21  H    0.153657
    22  H    0.155823
    23  H    0.155356
    24  H    0.162550
    25  C   -0.297455
    26  C   -0.305007
    27  C   -0.477372
    28  H    0.152098
    29  H    0.153535
    30  H    0.143793
    31  H    0.149835
    32  H    0.159959
    33  H    0.157994
    34  H    0.161596
 Sum of Mulliken charges =  -0.00000

 Dipole moment (field-independent basis, Debye):
    X=              5.3892    Y=              0.2394    Z=              0.8853  Tot=              5.4667
 Quadrupole moment (field-independent basis, Debye-Ang):
   XX=           -133.2003   YY=            -96.4115   ZZ=            -88.8859
   XY=             -1.3000   XZ=             -4.5526   YZ=              0.2077

 Normal termination of Gaussian 16 at Thu May  6 17:33:19 2021.
