 Gaussian 16, Revision A.03,
 Gaussian 16:  EM64L-G16RevA.03 25-Dec-2016

 -------------
 #p 6-31g* mp2
 -------------

 ------------------------------------------------------
 Input file generated by CHIRIPA (05-May-2021 14:51:12)
 ------------------------------------------------------
 Symbolic Z-matrix:
 Charge =  0 Multiplicity = 1

                         Standard orientation:
 ---------------------------------------------------------------------
 Center     Atomic      Atomic             Coordinates (Angstroms)
 Number     Number       Type             X           Y           Z
 ---------------------------------------------------------------------
      1          6           0        2.966391    0.645901    0.490672
      2          6           0        1.990831    0.684193    1.667448
      3          6           0        1.187106    1.983530    1.726986
      4          1           0        3.652989    1.500401    0.563869
      5          1           0        2.405858    0.774636   -0.445611
      6          1           0        2.552875    0.554039    2.601141
      7          1           0        1.306597   -0.170604    1.591545
      8          1           0        0.601514    2.116572    0.811572
      9          1           0        1.854872    2.845333    1.826905
     10          1           0        0.496058    1.989603    2.575677
     11          6           0        3.777145   -0.646801    0.417695
     12          6           0        4.752704   -0.685093   -0.759081
     13          6           0        5.556430   -1.984429   -0.818619
     14          1           0        4.337678   -0.775536    1.353978
     15          1           0        3.090546   -1.501300    0.344498
     16          1           0        5.436938    0.169704   -0.683178
     17          1           0        4.190661   -0.554939   -1.692775
     18          1           0        4.888663   -2.846232   -0.918538
     19          1           0        6.142021   -2.117472    0.096795
     20          1           0        6.247477   -1.990503   -1.667310
     21          6           0       -3.096570    0.693752   -0.618592
     22          6           0       -1.783381    0.655027   -1.400908
     23          6           0       -1.245411    2.049686   -1.722328
     24          1           0       -3.844615    1.252392   -1.197639
     25          1           0       -2.942809    1.252580    0.314931
     26          1           0       -1.939222    0.095254   -2.332027
     27          1           0       -1.038431    0.096250   -0.820017
     28          1           0       -1.061865    2.613352   -0.801897
     29          1           0       -1.967774    2.612349   -2.322498
     30          1           0       -0.306169    1.998569   -2.281854
     31          6           0       -3.646965   -0.692852   -0.289775
     32          6           0       -4.960155   -0.654128    0.492541
     33          6           0       -5.498124   -2.048786    0.813960
     34          1           0       -3.800727   -1.251680   -1.223298
     35          1           0       -2.898921   -1.251492    0.289271
     36          1           0       -5.705105   -0.095351   -0.088349
     37          1           0       -4.804314   -0.094354    1.423660
     38          1           0       -4.775762   -2.611449    1.414131
     39          1           0       -5.681670   -2.612452   -0.106471
     40          1           0       -6.437367   -1.997668    1.373487
 ---------------------------------------------------------------------

 SCF Done:  E(RHF) =  -470.733256076     A.U. after   11 cycles
 E2 =    -0.1582979591D+01 EUMP2 =    -0.47231623566720D+03

 The electronic state is 1-A.
 Alpha  occ. eigenvalues --  -11.21661 -11.21621 -11.21617 -11.21604 -11.21431
 Alpha  occ. eigenvalues --  -11.21411 -11.21372 -11.21351 -11.21120 -11.21084
 Alpha  occ. eigenvalues --  -11.21072 -11.21049  -1.08468  -1.08431  -1.03589
 Alpha  occ. eigenvalues --   -1.03516  -0.96043  -0.95959  -0.87062  -0.86974
 Alpha  occ. eigenvalues --   -0.79657  -0.79573  -0.78274  -0.78246  -0.65194
 Alpha  occ. eigenvalues --   -0.64984  -0.61197  -0.60730  -0.59394  -0.59339
 Alpha  occ. eigenvalues --   -0.57649  -0.57579  -0.55531  -0.55060  -0.52712
 Alpha  occ. eigenvalues --   -0.52680  -0.52499  -0.52345  -0.50149  -0.49736
 Alpha  occ. eigenvalues --   -0.47999  -0.47847  -0.46768  -0.46506  -0.45848
 Alpha  occ. eigenvalues --   -0.45760  -0.45744  -0.45673  -0.43819  -0.43791
 Alpha virt. eigenvalues --    0.19937   0.23209   0.23623   0.25057   0.26201
 Alpha virt. eigenvalues --    0.26411   0.26848   0.27838   0.28098   0.29089
 Alpha virt. eigenvalues --    0.30404   0.31178   0.31485   0.31788   0.32225

 Mulliken charges:
               1
     1  C   -0.299269
     2  C   -0.299177
     3  C   -0.484135
     4  H    0.149821
     5  H    0.150418
     6  H    0.151997
     7  H    0.151238
     8  H    0.164150
     9  H    0.155399
    10  H    0.159410
    11  C   -0.298281
    12  C   -0.299663
    13  C   -0.475720
    14  H    0.149545
    15  H    0.149555
    16  H    0.151972
    17  H    0.151963
    18  H    0.155215
    19  H    0.155171
    20  H    0.160277
    21  C   -0.298461
    22  C   -0.301489
    23  C   -0.480097
    24  H    0.149842
    25  H    0.150320
    26  H    0.152298
    27  H    0.152470
    28  H    0.158877
    29  H    0.156178
    30  H    0.160107
    31  C   -0.298310
    32  C   -0.299709
    33  C   -0.475733
    34  H    0.149485
    35  H    0.149510
    36  H    0.152004
    37  H    0.152113
    38  H    0.155191
    39  H    0.155169
    40  H    0.160348
 Sum of Mulliken charges =  -0.00000

 Dipole moment (field-independent basis, Debye):
    X=             -0.0164    Y=              0.0150    Z=             -0.0146  Tot=              0.0266
 Quadrupole moment (field-independent basis, Debye-Ang):
   XX=            -84.6105   YY=            -86.2425   ZZ=            -83.8360
   XY=              0.3893   XZ=              1.1686   YZ=              0.3589

 Normal termination of Gaussian 16 at Wed May  5 19:54:40 2021.
