 Gaussian 16, Revision A.03,
 Gaussian 16:  EM64L-G16RevA.03 25-Dec-2016

 -------------
 #p 6-31g* mp2
 -------------

 ------------------------------------------------------
 Input file generated by CHIRIPA (05-May-2021 14:53:18)
 ------------------------------------------------------
 Symbolic Z-matrix:
 Charge =  0 Multiplicity = 1

                         Standard orientation:
 ---------------------------------------------------------------------
 Center     Atomic      Atomic             Coordinates (Angstroms)
 Number     Number       Type             X           Y           Z
 ---------------------------------------------------------------------
      1          6           0       -4.067407   -0.652996    0.227020
      2          6           0       -2.650862   -0.183847    0.560613
      3          6           0       -1.672038   -1.343862    0.745180
      4          1           0       -4.426274   -1.313504    1.028200
      5          1           0       -4.039170   -1.259407   -0.688875
      6          1           0       -2.681964    0.422649    1.474840
      7          1           0       -2.295398    0.475773   -0.241361
      8          1           0       -1.611403   -1.945663   -0.167377
      9          1           0       -2.000166   -1.999089    1.558575
     10          1           0       -0.665488   -0.985857    0.982982
     11          6           0       -5.057463    0.495209    0.039558
     12          6           0       -6.474008    0.026061   -0.294035
     13          6           0       -7.452831    1.186075   -0.478602
     14          1           0       -5.085700    1.101620    0.955453
     15          1           0       -4.698596    1.155717   -0.761622
     16          1           0       -6.829471   -0.633560    0.507939
     17          1           0       -6.442906   -0.580436   -1.208261
     18          1           0       -7.124704    1.841302   -1.291997
     19          1           0       -7.513466    1.787876    0.433955
     20          1           0       -8.459381    0.828070   -0.716404
     21          6           0        4.412277    2.427708    0.116619
     22          6           0        5.315969    1.360613    0.082430
     23          6           0        4.857461    0.045538   -0.039617
     24          6           0        3.482433   -0.167108   -0.125473
     25          6           0        2.557037    0.874986   -0.094265
     26          6           0        3.038117    2.181922    0.028318
     27          1           0        4.777224    3.446129    0.211636
     28          1           0        6.383707    1.548512    0.150811
     29          1           0        5.534988   -0.799172   -0.068602
     30          1           0        1.498431    0.656261   -0.164496
     31          1           0        2.333984    3.008694    0.054605
     32          7           0        2.985082   -1.555011   -0.254963
     33          8           0        1.768812   -1.715827   -0.328859
     34          8           0        3.820946   -2.455752   -0.280108
 ---------------------------------------------------------------------

 SCF Done:  E(RHF) =  -669.535650819     A.U. after   15 cycles
 E2 =    -0.2091065836D+01 EUMP2 =    -0.67162671665425D+03

 The electronic state is 1-A.
 Alpha  occ. eigenvalues --  -20.60839 -20.60833 -15.85876 -11.31237 -11.27805
 Alpha  occ. eigenvalues --  -11.27801 -11.27547 -11.26821 -11.26811 -11.21404
 Alpha  occ. eigenvalues --  -11.21183 -11.21155 -11.21007 -11.20937 -11.20142
 Alpha  occ. eigenvalues --   -1.59908  -1.39463  -1.19409  -1.08807  -1.08114
 Alpha  occ. eigenvalues --   -1.04811  -1.03151  -0.95662  -0.95538  -0.86559
 Alpha  occ. eigenvalues --   -0.86210  -0.82475  -0.79222  -0.77937  -0.77520
 Alpha  occ. eigenvalues --   -0.72102  -0.71226  -0.70518  -0.65065  -0.64816
 Alpha  occ. eigenvalues --   -0.64748  -0.62163  -0.60548  -0.58949  -0.57188
 Alpha  occ. eigenvalues --   -0.55313  -0.54837  -0.53141  -0.52908  -0.52208
 Alpha  occ. eigenvalues --   -0.51982  -0.49493  -0.48858  -0.48844  -0.47525
 Alpha  occ. eigenvalues --   -0.46275  -0.45468  -0.45399  -0.44872  -0.43362
 Alpha  occ. eigenvalues --   -0.37390  -0.36414
 Alpha virt. eigenvalues --    0.04985   0.11228   0.16476   0.20870   0.23064
 Alpha virt. eigenvalues --    0.24050   0.26615   0.27029   0.27660   0.27878
 Alpha virt. eigenvalues --    0.29155   0.30596   0.31612   0.31828   0.32128

 Mulliken charges:
               1
     1  C   -0.297603
     2  C   -0.301486
     3  C   -0.476217
     4  H    0.150010
     5  H    0.151027
     6  H    0.147003
     7  H    0.145116
     8  H    0.163379
     9  H    0.152165
    10  H    0.168181
    11  C   -0.297645
    12  C   -0.299462
    13  C   -0.475462
    14  H    0.147819
    15  H    0.147661
    16  H    0.152149
    17  H    0.152438
    18  H    0.154287
    19  H    0.154350
    20  H    0.159978
    21  C   -0.170601
    22  C   -0.218615
    23  C   -0.170760
    24  C    0.157651
    25  C   -0.172615
    26  C   -0.219189
    27  H    0.225797
    28  H    0.223622
    29  H    0.275722
    30  H    0.278699
    31  H    0.224033
    32  N    0.490309
    33  O   -0.461962
    34  O   -0.459779
 Sum of Mulliken charges =  -0.00000

 Dipole moment (field-independent basis, Debye):
    X=              1.9182    Y=              4.7788    Z=              0.4297  Tot=              5.1673
 Quadrupole moment (field-independent basis, Debye-Ang):
   XX=            -79.2458   YY=            -96.7514   ZZ=            -94.8982
   XY=             16.0266   XZ=              1.2361   YZ=             -0.6174

 Normal termination of Gaussian 16 at Thu May  6 19:01:05 2021.
