 Gaussian 16, Revision A.03,
 Gaussian 16:  EM64L-G16RevA.03 25-Dec-2016

 -------------
 #p 6-31g* mp2
 -------------

 ------------------------------------------------------
 Input file generated by CHIRIPA (05-May-2021 14:57:25)
 ------------------------------------------------------
 Symbolic Z-matrix:
 Charge =  0 Multiplicity = 1

                         Standard orientation:
 ---------------------------------------------------------------------
 Center     Atomic      Atomic             Coordinates (Angstroms)
 Number     Number       Type             X           Y           Z
 ---------------------------------------------------------------------
      1          6           0        3.542786    2.384539    0.660136
      2          6           0        4.609324    1.592476    1.097919
      3          6           0        4.671087    0.236581    0.762832
      4          6           0        3.644620   -0.296894   -0.015023
      5          6           0        2.568909    0.466255   -0.466401
      6          6           0        2.527772    1.819896   -0.119253
      7          1           0        3.502818    3.436955    0.925124
      8          1           0        5.399001    2.028294    1.703325
      9          1           0        5.485213   -0.399552    1.088334
     10          1           0        1.796518    0.003456   -1.068603
     11          1           0        1.698274    2.432617   -0.460647
     12          7           0        3.699088   -1.731126   -0.376148
     13          8           0        2.782275   -2.177180   -1.062535
     14          8           0        4.657562   -2.382065    0.034025
     15          6           0       -1.490716    1.071881   -0.906095
     16          6           0       -1.480036   -0.198527   -0.320885
     17          6           0       -2.662505   -0.768718    0.159945
     18          6           0       -3.843006   -0.037260    0.038801
     19          6           0       -3.886043    1.230530   -0.539253
     20          6           0       -2.691569    1.781105   -1.013222
     21          1           0       -0.567483    1.507201   -1.276950
     22          1           0       -0.548912   -0.751616   -0.236355
     23          1           0       -2.682821   -1.750415    0.617412
     24          1           0       -4.829766    1.757668   -0.609472
     25          1           0       -2.702859    2.767910   -1.467240
     26          7           0       -5.101188   -0.630512    0.544203
     27          8           0       -6.128097    0.034342    0.425619
     28          8           0       -5.036617   -1.749124    1.049351
 ---------------------------------------------------------------------

 SCF Done:  E(RHF) =  -868.336373270     A.U. after   16 cycles
 E2 =    -0.2600961980D+01 EUMP2 =    -0.87093733524990D+03

 The electronic state is 1-A.
 Alpha  occ. eigenvalues --  -20.61653 -20.61619 -20.60921 -20.60911 -15.86691
 Alpha  occ. eigenvalues --  -15.85973 -11.32152 -11.31453 -11.28845 -11.28640
 Alpha  occ. eigenvalues --  -11.28420 -11.28030 -11.27970 -11.27950 -11.27849
 Alpha  occ. eigenvalues --  -11.27656 -11.27151 -11.27061  -1.60706  -1.59991
 Alpha  occ. eigenvalues --   -1.40261  -1.39540  -1.20318  -1.19642  -1.09678
 Alpha  occ. eigenvalues --   -1.09060  -1.05760  -1.05042  -0.96509  -0.95871
 Alpha  occ. eigenvalues --   -0.87145  -0.86463  -0.83365  -0.82674  -0.78422
 Alpha  occ. eigenvalues --   -0.77668  -0.72904  -0.72194  -0.72029  -0.71451
 Alpha  occ. eigenvalues --   -0.71313  -0.70847  -0.65977  -0.65793  -0.65310
 Alpha  occ. eigenvalues --   -0.65077  -0.63118  -0.62337  -0.56211  -0.55693
 Alpha  occ. eigenvalues --   -0.54043  -0.53861  -0.53376  -0.53116  -0.49673
 Alpha  occ. eigenvalues --   -0.49654  -0.48961  -0.48937  -0.45645  -0.44919
 Alpha  occ. eigenvalues --   -0.38255  -0.37715  -0.37322  -0.36617
 Alpha virt. eigenvalues --    0.04126   0.04828   0.10246   0.11001   0.15631
 Alpha virt. eigenvalues --    0.16225   0.17724   0.22259   0.24829   0.25302
 Alpha virt. eigenvalues --    0.27628   0.29041   0.30374   0.31264   0.33098

 Mulliken charges:
               1
     1  C   -0.169841
     2  C   -0.217458
     3  C   -0.169350
     4  C    0.160155
     5  C   -0.177069
     6  C   -0.218073
     7  H    0.228947
     8  H    0.227494
     9  H    0.278891
    10  H    0.269788
    11  H    0.218092
    12  N    0.488730
    13  O   -0.464067
    14  O   -0.455234
    15  C   -0.174302
    16  C   -0.222112
    17  C   -0.170200
    18  C    0.159521
    19  C   -0.170846
    20  C   -0.218461
    21  H    0.215192
    22  H    0.231654
    23  H    0.279975
    24  H    0.276431
    25  H    0.222372
    26  N    0.487765
    27  O   -0.460085
    28  O   -0.457912
 Sum of Mulliken charges =  -0.00000

 Dipole moment (field-independent basis, Debye):
    X=              4.4134    Y=              7.0319    Z=             -0.3107  Tot=              8.3080
 Quadrupole moment (field-independent basis, Debye-Ang):
   XX=           -133.8760   YY=           -105.2076   ZZ=           -104.7745
   XY=              7.9135   XZ=             15.4382   YZ=             -1.7559

 Normal termination of Gaussian 16 at Fri May  7 11:08:43 2021.
