 Gaussian 16, Revision A.03,
 Gaussian 16:  EM64L-G16RevA.03 25-Dec-2016

 -------------
 #p 6-31g* mp2
 -------------

 ------------------------------------------------------
 Input file generated by CHIRIPA (05-May-2021 14:55:22)
 ------------------------------------------------------
 Symbolic Z-matrix:
 Charge =  0 Multiplicity = 1

                         Standard orientation:
 ---------------------------------------------------------------------
 Center     Atomic      Atomic             Coordinates (Angstroms)
 Number     Number       Type             X           Y           Z
 ---------------------------------------------------------------------
      1          6           0       -3.765712   -2.297552    0.264269
      2          6           0       -2.798695   -1.863734   -0.648530
      3          6           0       -2.528181   -0.500737   -0.802177
      4          6           0       -3.246687    0.405071   -0.023362
      5          6           0       -4.216170    0.004009    0.894539
      6          6           0       -4.470121   -1.363942    1.031538
      7          1           0       -3.969420   -3.358285    0.377160
      8          1           0       -2.250098   -2.586534   -1.245729
      9          1           0       -1.784862   -0.137394   -1.501373
     10          1           0       -4.746778    0.748283    1.475856
     11          1           0       -5.221676   -1.697968    1.741212
     12          7           0       -2.969073    1.850637   -0.177209
     13          8           0       -3.615806    2.628602    0.520749
     14          8           0       -2.110004    2.178335   -0.992838
     15          6           0        3.481962   -0.004284   -0.059932
     16          6           0        2.544013   -1.164986   -0.393107
     17          6           0        1.082293   -0.730543   -0.504578
     18          1           0        3.162262    0.457749    0.884135
     19          1           0        3.386410    0.769164   -0.834557
     20          1           0        2.642327   -1.936627    0.381181
     21          1           0        2.866098   -1.624431   -1.336393
     22          1           0        0.963117    0.022745   -1.290044
     23          1           0        0.738074   -0.291224    0.437289
     24          1           0        0.429327   -1.575829   -0.743293
     25          6           0        4.946686   -0.422786    0.054827
     26          6           0        5.884635    0.737917    0.388003
     27          6           0        7.346356    0.303472    0.499474
     28          1           0        5.042240   -1.196234    0.829452
     29          1           0        5.266386   -0.884818   -0.889239
     30          1           0        5.562551    1.197360    1.331289
     31          1           0        5.786322    1.509557   -0.386285
     32          1           0        7.690575   -0.135845   -0.442393
     33          1           0        7.465532   -0.449815    1.284939
     34          1           0        7.999322    1.148760    0.738189
 ---------------------------------------------------------------------

 SCF Done:  E(RHF) =  -669.535256252     A.U. after   15 cycles
 E2 =    -0.2091806248D+01 EUMP2 =    -0.67162706249989D+03

 The electronic state is 1-A.
 Alpha  occ. eigenvalues --  -20.60718 -20.60713 -15.85770 -11.31110 -11.27709
 Alpha  occ. eigenvalues --  -11.27659 -11.27457 -11.26713 -11.26697 -11.21758
 Alpha  occ. eigenvalues --  -11.21538 -11.21396 -11.21338 -11.21331 -11.21023
 Alpha  occ. eigenvalues --   -1.59792  -1.39346  -1.19301  -1.08701  -1.08454
 Alpha  occ. eigenvalues --   -1.04708  -1.03593  -0.96063  -0.95530  -0.87092
 Alpha  occ. eigenvalues --   -0.86097  -0.82370  -0.79672  -0.78249  -0.77405
 Alpha  occ. eigenvalues --   -0.71990  -0.71115  -0.70412  -0.65082  -0.64958
 Alpha  occ. eigenvalues --   -0.64712  -0.62079  -0.60983  -0.59434  -0.57656
 Alpha  occ. eigenvalues --   -0.55340  -0.55206  -0.53199  -0.52858  -0.52603
 Alpha  occ. eigenvalues --   -0.52413  -0.49976  -0.48748  -0.48744  -0.47968
 Alpha  occ. eigenvalues --   -0.46675  -0.45794  -0.45707  -0.44753  -0.43858
 Alpha  occ. eigenvalues --   -0.37290  -0.36258
 Alpha virt. eigenvalues --    0.05100   0.11301   0.16524   0.20895   0.22889
 Alpha virt. eigenvalues --    0.24146   0.26169   0.26649   0.27131   0.27971
 Alpha virt. eigenvalues --    0.29039   0.29389   0.31425   0.31749   0.32477

 Mulliken charges:
               1
     1  C   -0.170887
     2  C   -0.220508
     3  C   -0.165599
     4  C    0.155511
     5  C   -0.170898
     6  C   -0.219023
     7  H    0.225289
     8  H    0.222890
     9  H    0.279534
    10  H    0.275311
    11  H    0.223066
    12  N    0.488210
    13  O   -0.460855
    14  O   -0.460760
    15  C   -0.299124
    16  C   -0.300522
    17  C   -0.479592
    18  H    0.151791
    19  H    0.153006
    20  H    0.150957
    21  H    0.150701
    22  H    0.161550
    23  H    0.160917
    24  H    0.149057
    25  C   -0.298415
    26  C   -0.299907
    27  C   -0.475751
    28  H    0.148575
    29  H    0.149016
    30  H    0.152869
    31  H    0.153365
    32  H    0.154817
    33  H    0.154584
    34  H    0.160825
 Sum of Mulliken charges =  -0.00000

 Dipole moment (field-independent basis, Debye):
    X=             -0.9139    Y=             -5.0097    Z=              0.5564  Tot=              5.1227
 Quadrupole moment (field-independent basis, Debye-Ang):
   XX=            -87.6357   YY=            -99.4932   ZZ=            -91.8577
   XY=             15.9298   XZ=             -4.8001   YZ=              0.9296

 Normal termination of Gaussian 16 at Wed May  5 16:00:35 2021.
