 Gaussian 16, Revision A.03,
 Gaussian 16:  EM64L-G16RevA.03 25-Dec-2016

 -------------
 #p 6-31g* mp2
 -------------

 ------------------------------------------------------
 Input file generated by CHIRIPA (05-May-2021 14:53:13)
 ------------------------------------------------------
 Symbolic Z-matrix:
 Charge =  0 Multiplicity = 1

                         Standard orientation:
 ---------------------------------------------------------------------
 Center     Atomic      Atomic             Coordinates (Angstroms)
 Number     Number       Type             X           Y           Z
 ---------------------------------------------------------------------
      1          6           0        4.100126   -0.534086    0.156841
      2          6           0        5.232935   -1.203431   -0.622072
      3          6           0        5.700849   -2.509598    0.020406
      4          1           0        4.435625   -0.339217    1.184660
      5          1           0        3.253856   -1.231012    0.231116
      6          1           0        6.076295   -0.504942   -0.696049
      7          1           0        4.894766   -1.396556   -1.648211
      8          1           0        4.875838   -3.226825    0.079919
      9          1           0        6.064081   -2.330145    1.037490
     10          1           0        6.511014   -2.971204   -0.552668
     11          6           0        3.621513    0.772790   -0.473026
     12          6           0        2.488704    1.442134    0.305887
     13          6           0        2.020790    2.748302   -0.336591
     14          1           0        4.467783    1.469716   -0.547301
     15          1           0        3.286014    0.577920   -1.500845
     16          1           0        2.826873    1.635260    1.332025
     17          1           0        1.645344    0.743645    0.379864
     18          1           0        1.657558    2.568849   -1.353675
     19          1           0        2.845801    3.465529   -0.396104
     20          1           0        1.210625    3.209907    0.236483
     21          6           0       -4.829981   -1.704472   -0.569527
     22          6           0       -4.742030   -0.446763   -1.175295
     23          6           0       -3.741192    0.454027   -0.799201
     24          6           0       -2.840922    0.062524    0.190510
     25          6           0       -2.902474   -1.183421    0.812700
     26          6           0       -3.911541   -2.068146    0.420791
     27          1           0       -5.610652   -2.397988   -0.867829
     28          1           0       -5.453935   -0.161632   -1.944670
     29          1           0       -3.650095    1.434005   -1.251711
     30          1           0       -2.178395   -1.439229    1.576697
     31          1           0       -3.977434   -3.044238    0.892963
     32          7           0       -1.777023    1.007647    0.597035
     33          8           0       -0.996057    0.638734    1.471468
     34          8           0       -1.744251    2.099451    0.033540
 ---------------------------------------------------------------------

 SCF Done:  E(RHF) =  -669.536407565     A.U. after   15 cycles
 E2 =    -0.2091766982D+01 EUMP2 =    -0.67162817454695D+03

 The electronic state is 1-A.
 Alpha  occ. eigenvalues --  -20.61050 -20.61039 -15.86049 -11.31353 -11.27909
 Alpha  occ. eigenvalues --  -11.27905 -11.27642 -11.26909 -11.26899 -11.20966
 Alpha  occ. eigenvalues --  -11.20587 -11.20528 -11.20250 -11.19922 -11.19297
 Alpha  occ. eigenvalues --   -1.60088  -1.39645  -1.19515  -1.08924  -1.07408
 Alpha  occ. eigenvalues --   -1.04906  -1.02403  -0.95770  -0.94878  -0.86308
 Alpha  occ. eigenvalues --   -0.85910  -0.82602  -0.78538  -0.77660  -0.77121
 Alpha  occ. eigenvalues --   -0.72258  -0.71400  -0.70622  -0.65169  -0.64909
 Alpha  occ. eigenvalues --   -0.64060  -0.62253  -0.59820  -0.58319  -0.56434
 Alpha  occ. eigenvalues --   -0.55406  -0.54212  -0.53238  -0.52997  -0.51551
 Alpha  occ. eigenvalues --   -0.51314  -0.49057  -0.48987  -0.48864  -0.46829
 Alpha  occ. eigenvalues --   -0.45671  -0.45150  -0.44671  -0.44358  -0.42644
 Alpha  occ. eigenvalues --   -0.37491  -0.36506
 Alpha virt. eigenvalues --    0.04830   0.11150   0.16321   0.21285   0.23764
 Alpha virt. eigenvalues --    0.25475   0.27212   0.27605   0.28137   0.28563
 Alpha virt. eigenvalues --    0.29100   0.30857   0.32325   0.32475   0.32725

 Mulliken charges:
               1
     1  C   -0.296550
     2  C   -0.298595
     3  C   -0.474845
     4  H    0.149046
     5  H    0.147526
     6  H    0.150993
     7  H    0.149756
     8  H    0.153080
     9  H    0.154728
    10  H    0.157788
    11  C   -0.297807
    12  C   -0.301462
    13  C   -0.476824
    14  H    0.145565
    15  H    0.144833
    16  H    0.148843
    17  H    0.164848
    18  H    0.148637
    19  H    0.144165
    20  H    0.179248
    21  C   -0.170465
    22  C   -0.218594
    23  C   -0.170734
    24  C    0.158408
    25  C   -0.170882
    26  C   -0.218583
    27  H    0.226230
    28  H    0.224056
    29  H    0.276085
    30  H    0.275999
    31  H    0.224066
    32  N    0.487987
    33  O   -0.458309
    34  O   -0.458237
 Sum of Mulliken charges =  -0.00000

 Dipole moment (field-independent basis, Debye):
    X=             -4.1798    Y=             -3.2838    Z=             -1.3190  Tot=              5.4767
 Quadrupole moment (field-independent basis, Debye-Ang):
   XX=            -74.4371   YY=            -94.1278   ZZ=            -93.5301
   XY=              8.9218   XZ=              5.3968   YZ=             -2.5011

 Normal termination of Gaussian 16 at Wed May  5 15:32:27 2021.
