 Gaussian 16, Revision A.03,
 Gaussian 16:  EM64L-G16RevA.03 25-Dec-2016

 -------------
 #p 6-31g* mp2
 -------------

 ------------------------------------------------------
 Input file generated by CHIRIPA (05-May-2021 14:57:26)
 ------------------------------------------------------
 Symbolic Z-matrix:
 Charge =  0 Multiplicity = 1

                         Standard orientation:
 ---------------------------------------------------------------------
 Center     Atomic      Atomic             Coordinates (Angstroms)
 Number     Number       Type             X           Y           Z
 ---------------------------------------------------------------------
      1          6           0       -1.138402    1.489162   -0.280495
      2          6           0       -2.355619    2.167870   -0.161085
      3          6           0       -3.562389    1.462448   -0.135893
      4          6           0       -3.514827    0.072611   -0.232740
      5          6           0       -2.318130   -0.632245   -0.352678
      6          6           0       -1.123569    0.093730   -0.375742
      7          1           0       -0.205697    2.045134   -0.299237
      8          1           0       -2.370171    3.251538   -0.086933
      9          1           0       -4.518876    1.962610   -0.044304
     10          1           0       -2.335573   -1.712952   -0.424697
     11          1           0       -0.179746   -0.436013   -0.468567
     12          7           0       -4.785917   -0.685068   -0.207197
     13          8           0       -4.717041   -1.909134   -0.294122
     14          8           0       -5.827006   -0.040523   -0.100735
     15          6           0        4.729373    0.002316   -1.836241
     16          6           0        4.092808   -1.206996   -1.538130
     17          6           0        3.301377   -1.329137   -0.392152
     18          6           0        3.167665   -0.216801    0.437378
     19          6           0        3.789126    1.001491    0.167485
     20          6           0        4.575771    1.100763   -0.983984
     21          1           0        5.342316    0.088315   -2.728597
     22          1           0        4.210310   -2.061723   -2.198192
     23          1           0        2.797307   -2.253501   -0.137433
     24          1           0        3.653161    1.836054    0.844564
     25          1           0        5.068955    2.041173   -1.212992
     26          7           0        2.332346   -0.334002    1.653481
     27          8           0        2.230445    0.660717    2.368175
     28          8           0        1.795340   -1.418362    1.868941
 ---------------------------------------------------------------------

 SCF Done:  E(RHF) =  -868.338172602     A.U. after   16 cycles
 E2 =    -0.2600237761D+01 EUMP2 =    -0.87093841036365D+03

 The electronic state is 1-A.
 Alpha  occ. eigenvalues --  -20.61788 -20.61780 -20.60328 -20.60322 -15.86819
 Alpha  occ. eigenvalues --  -15.85380 -11.32210 -11.30675 -11.28738 -11.28733
 Alpha  occ. eigenvalues --  -11.28407 -11.27720 -11.27701 -11.27258 -11.27226
 Alpha  occ. eigenvalues --  -11.26996 -11.26270 -11.26236  -1.60858  -1.59404
 Alpha  occ. eigenvalues --   -1.40409  -1.38960  -1.20353  -1.18845  -1.09733
 Alpha  occ. eigenvalues --   -1.08260  -1.05732  -1.04242  -0.96565  -0.95105
 Alpha  occ. eigenvalues --   -0.87125  -0.85658  -0.83382  -0.81940  -0.78451
 Alpha  occ. eigenvalues --   -0.76997  -0.73017  -0.72222  -0.71601  -0.71406
 Alpha  occ. eigenvalues --   -0.70723  -0.69972  -0.65979  -0.65698  -0.64508
 Alpha  occ. eigenvalues --   -0.64262  -0.63066  -0.61602  -0.56185  -0.54773
 Alpha  occ. eigenvalues --   -0.54083  -0.53796  -0.52559  -0.52352  -0.49789
 Alpha  occ. eigenvalues --   -0.49779  -0.48359  -0.48356  -0.45787  -0.44381
 Alpha  occ. eigenvalues --   -0.38317  -0.37343  -0.36816  -0.35824
 Alpha virt. eigenvalues --    0.04051   0.05549   0.10211   0.11812   0.15553
 Alpha virt. eigenvalues --    0.17057   0.20525   0.21639   0.26382   0.27026
 Alpha virt. eigenvalues --    0.27699   0.28568   0.30313   0.30694   0.32362

 Mulliken charges:
               1
     1  C   -0.167308
     2  C   -0.218159
     3  C   -0.171251
     4  C    0.158255
     5  C   -0.169585
     6  C   -0.214939
     7  H    0.222444
     8  H    0.221519
     9  H    0.274112
    10  H    0.275459
    11  H    0.219978
    12  N    0.488220
    13  O   -0.460984
    14  O   -0.461909
    15  C   -0.170408
    16  C   -0.217470
    17  C   -0.176714
    18  C    0.153474
    19  C   -0.175134
    20  C   -0.218006
    21  H    0.229395
    22  H    0.227498
    23  H    0.277274
    24  H    0.276142
    25  H    0.226351
    26  N    0.487139
    27  O   -0.457396
    28  O   -0.457997
 Sum of Mulliken charges =  -0.00000

 Dipole moment (field-independent basis, Debye):
    X=              7.7249    Y=              3.0365    Z=             -4.3641  Tot=              9.3776
 Quadrupole moment (field-independent basis, Debye-Ang):
   XX=           -116.6936   YY=            -96.5279   ZZ=           -109.4833
   XY=             -9.7943   XZ=            -13.6973   YZ=              2.2631

 Normal termination of Gaussian 16 at Wed May  5 19:36:04 2021.
