 Gaussian 16, Revision A.03,
 Gaussian 16:  EM64L-G16RevA.03 25-Dec-2016

 -------------
 #p 6-31g* mp2
 -------------

 ------------------------------------------------------
 Input file generated by CHIRIPA (05-May-2021 14:55:21)
 ------------------------------------------------------
 Symbolic Z-matrix:
 Charge =  0 Multiplicity = 1

                         Standard orientation:
 ---------------------------------------------------------------------
 Center     Atomic      Atomic             Coordinates (Angstroms)
 Number     Number       Type             X           Y           Z
 ---------------------------------------------------------------------
      1          6           0       -1.152879    0.804314   -0.106026
      2          6           0       -2.195589    1.498946   -0.727930
      3          6           0       -3.500222    0.997385   -0.697665
      4          6           0       -3.727406   -0.207045   -0.033569
      5          6           0       -2.709662   -0.922427    0.595491
      6          6           0       -1.412785   -0.402029    0.552538
      7          1           0       -0.142421    1.201255   -0.134465
      8          1           0       -1.996680    2.436041   -1.240115
      9          1           0       -4.326100    1.514585   -1.170791
     10          1           0       -2.938903   -1.854112    1.098312
     11          1           0       -0.604958   -0.943644    1.036389
     12          7           0       -5.104457   -0.747997    0.005187
     13          8           0       -5.278469   -1.811176    0.596801
     14          8           0       -5.983703   -0.098572   -0.556783
     15          6           0        4.612928   -0.599143    0.109036
     16          6           0        5.938126   -1.031326   -0.519497
     17          6           0        6.188693   -2.534549   -0.395688
     18          1           0        4.605966   -0.887388    1.169136
     19          1           0        3.791240   -1.149445   -0.369912
     20          1           0        6.756948   -0.479358   -0.040459
     21          1           0        5.942012   -0.741848   -1.578178
     22          1           0        5.391973   -3.099893   -0.889879
     23          1           0        6.211539   -2.835911    0.656576
     24          1           0        7.141379   -2.821643   -0.851569
     25          6           0        4.348228    0.900942   -0.006749
     26          6           0        3.023030    1.333125    0.621785
     27          6           0        2.772463    2.836348    0.497974
     28          1           0        5.169916    1.451244    0.472200
     29          1           0        4.355190    1.189187   -1.066849
     30          1           0        3.019144    1.043646    1.680464
     31          1           0        2.204208    0.781156    0.142746
     32          1           0        2.749617    3.137710   -0.554290
     33          1           0        3.569182    3.401692    0.992166
     34          1           0        1.819778    3.123441    0.953856
 ---------------------------------------------------------------------

 SCF Done:  E(RHF) =  -669.535574275     A.U. after   15 cycles
 E2 =    -0.2091158819D+01 EUMP2 =    -0.67162673309400D+03

 The electronic state is 1-A.
 Alpha  occ. eigenvalues --  -20.60723 -20.60717 -15.85776 -11.31131 -11.27701
 Alpha  occ. eigenvalues --  -11.27698 -11.27396 -11.26707 -11.26695 -11.22885
 Alpha  occ. eigenvalues --  -11.22341 -11.22270 -11.22254 -11.22177 -11.21610
 Alpha  occ. eigenvalues --   -1.59799  -1.39352  -1.19301  -1.09354  -1.08694
 Alpha  occ. eigenvalues --   -1.04704  -1.04452  -0.96873  -0.95532  -0.87887
 Alpha  occ. eigenvalues --   -0.86099  -0.82370  -0.80547  -0.79132  -0.77417
 Alpha  occ. eigenvalues --   -0.71994  -0.71122  -0.70430  -0.65983  -0.64951
 Alpha  occ. eigenvalues --   -0.64708  -0.62054  -0.61850  -0.60289  -0.58494
 Alpha  occ. eigenvalues --   -0.56165  -0.55148  -0.53578  -0.53289  -0.53032
 Alpha  occ. eigenvalues --   -0.52793  -0.50810  -0.48844  -0.48751  -0.48749
 Alpha  occ. eigenvalues --   -0.47577  -0.46670  -0.46568  -0.44760  -0.44688
 Alpha  occ. eigenvalues --   -0.37276  -0.36313
 Alpha virt. eigenvalues --    0.05111   0.11339   0.16586   0.19252   0.22466
 Alpha virt. eigenvalues --    0.23660   0.25404   0.26141   0.26356   0.27792
 Alpha virt. eigenvalues --    0.29122   0.30540   0.30741   0.30989   0.31808

 Mulliken charges:
               1
     1  C   -0.179335
     2  C   -0.220093
     3  C   -0.170705
     4  C    0.158181
     5  C   -0.170879
     6  C   -0.221420
     7  H    0.238292
     8  H    0.223752
     9  H    0.275313
    10  H    0.275390
    11  H    0.223656
    12  N    0.488029
    13  O   -0.460607
    14  O   -0.460588
    15  C   -0.299180
    16  C   -0.300321
    17  C   -0.476295
    18  H    0.150499
    19  H    0.148235
    20  H    0.153475
    21  H    0.153132
    22  H    0.155652
    23  H    0.155866
    24  H    0.162557
    25  C   -0.297790
    26  C   -0.305024
    27  C   -0.479472
    28  H    0.153396
    29  H    0.151515
    30  H    0.155801
    31  H    0.142161
    32  H    0.156344
    33  H    0.162438
    34  H    0.158026
 Sum of Mulliken charges =  -0.00000

 Dipole moment (field-independent basis, Debye):
    X=              5.1427    Y=              1.9314    Z=             -0.1209  Tot=              5.4947
 Quadrupole moment (field-independent basis, Debye-Ang):
   XX=           -129.7541   YY=            -93.6216   ZZ=            -93.1441
   XY=             -9.0753   XZ=              1.8293   YZ=             -2.2712

 Normal termination of Gaussian 16 at Wed May  5 22:12:10 2021.
