 Gaussian 16, Revision A.03,
 Gaussian 16:  EM64L-G16RevA.03 25-Dec-2016

 -------------
 #p 6-31g* mp2
 -------------

 ------------------------------------------------------
 Input file generated by CHIRIPA (05-May-2021 14:51:09)
 ------------------------------------------------------
 Symbolic Z-matrix:
 Charge =  0 Multiplicity = 1

                         Standard orientation:
 ---------------------------------------------------------------------
 Center     Atomic      Atomic             Coordinates (Angstroms)
 Number     Number       Type             X           Y           Z
 ---------------------------------------------------------------------
      1          6           0       -3.049053   -0.355594   -0.372988
      2          6           0       -3.614679   -1.755625   -0.132230
      3          6           0       -2.692121   -2.862074   -0.644532
      4          1           0       -2.871934   -0.218575   -1.448534
      5          1           0       -2.069417   -0.274072    0.117993
      6          1           0       -4.593580   -1.834029   -0.622353
      7          1           0       -3.790651   -1.889258    0.942848
      8          1           0       -1.717981   -2.812386   -0.147357
      9          1           0       -2.525472   -2.756843   -1.721452
     10          1           0       -3.115844   -3.854581   -0.462189
     11          6           0       -3.959967    0.761198    0.133707
     12          6           0       -3.394342    2.161229   -0.107051
     13          6           0       -4.316899    3.267677    0.405252
     14          1           0       -4.939603    0.679676   -0.357274
     15          1           0       -4.137086    0.624179    1.209254
     16          1           0       -3.218370    2.294862   -1.182128
     17          1           0       -2.415440    2.239633    0.383073
     18          1           0       -4.483548    3.162447    1.482171
     19          1           0       -5.291040    3.217990   -0.091923
     20          1           0       -3.893177    4.260184    0.222909
     21          6           0        2.763523   -0.371417    0.196703
     22          6           0        2.506147   -1.847178    0.503085
     23          6           0        1.019078   -2.168902    0.654453
     24          1           0        2.333714    0.243500    0.999254
     25          1           0        2.232453   -0.097531   -0.725439
     26          1           0        3.038671   -2.118550    1.423625
     27          1           0        2.936787   -2.458661   -0.300192
     28          1           0        0.476801   -1.925828   -0.265032
     29          1           0        0.579264   -1.583784    1.468579
     30          1           0        0.857934   -3.229119    0.873160
     31          6           0        4.245498   -0.034187    0.042577
     32          6           0        4.502873    1.441575   -0.263805
     33          6           0        5.989943    1.763298   -0.415172
     34          1           0        4.776568   -0.308073    0.964719
     35          1           0        4.675307   -0.649103   -0.759973
     36          1           0        4.072234    2.053058    0.539472
     37          1           0        3.970350    1.712946   -1.184345
     38          1           0        6.429757    1.178180   -1.229298
     39          1           0        6.532218    1.520225    0.504312
     40          1           0        6.151086    2.823515   -0.633880
 ---------------------------------------------------------------------

 SCF Done:  E(RHF) =  -470.732882461     A.U. after   11 cycles
 E2 =    -0.1582921804D+01 EUMP2 =    -0.47231580426513D+03

 The electronic state is 1-A.
 Alpha  occ. eigenvalues --  -11.21637 -11.21615 -11.21566 -11.21506 -11.21430
 Alpha  occ. eigenvalues --  -11.21370 -11.21345 -11.21279 -11.21127 -11.21082
 Alpha  occ. eigenvalues --  -11.21045 -11.20883  -1.08458  -1.08364  -1.03573
 Alpha  occ. eigenvalues --   -1.03449  -0.96043  -0.95887  -0.87085  -0.86887
 Alpha  occ. eigenvalues --   -0.79698  -0.79468  -0.78285  -0.78159  -0.65091
 Alpha  occ. eigenvalues --   -0.64994  -0.61003  -0.60830  -0.59388  -0.59281
 Alpha  occ. eigenvalues --   -0.57644  -0.57510  -0.55397  -0.55128  -0.52785
 Alpha  occ. eigenvalues --   -0.52603  -0.52484  -0.52242  -0.50059  -0.49739
 Alpha  occ. eigenvalues --   -0.48073  -0.47736  -0.46704  -0.46486  -0.45894
 Alpha  occ. eigenvalues --   -0.45747  -0.45687  -0.45486  -0.43801  -0.43714
 Alpha virt. eigenvalues --    0.22014   0.22982   0.23644   0.24693   0.26077
 Alpha virt. eigenvalues --    0.26567   0.27156   0.27432   0.27984   0.29243
 Alpha virt. eigenvalues --    0.30590   0.31099   0.31547   0.31836   0.32229

 Mulliken charges:
               1
     1  C   -0.300723
     2  C   -0.298596
     3  C   -0.485593
     4  H    0.148811
     5  H    0.152146
     6  H    0.151228
     7  H    0.151408
     8  H    0.169054
     9  H    0.153321
    10  H    0.159154
    11  C   -0.298159
    12  C   -0.299587
    13  C   -0.475659
    14  H    0.149421
    15  H    0.149439
    16  H    0.151759
    17  H    0.151933
    18  H    0.155064
    19  H    0.155130
    20  H    0.160097
    21  C   -0.298622
    22  C   -0.300327
    23  C   -0.480260
    24  H    0.149293
    25  H    0.150111
    26  H    0.151933
    27  H    0.152443
    28  H    0.159565
    29  H    0.154933
    30  H    0.160968
    31  C   -0.298334
    32  C   -0.299658
    33  C   -0.475727
    34  H    0.149554
    35  H    0.149778
    36  H    0.151899
    37  H    0.152078
    38  H    0.155227
    39  H    0.155181
    40  H    0.160320
 Sum of Mulliken charges =  -0.00000

 Dipole moment (field-independent basis, Debye):
    X=              0.0609    Y=             -0.0106    Z=              0.0091  Tot=              0.0625
 Quadrupole moment (field-independent basis, Debye-Ang):
   XX=            -86.1747   YY=            -85.7719   ZZ=            -83.0743
   XY=              0.0115   XZ=              0.7333   YZ=             -0.1025

 Normal termination of Gaussian 16 at Thu May  6 03:45:51 2021.
