 Gaussian 16, Revision A.03,
 Gaussian 16:  EM64L-G16RevA.03 25-Dec-2016

 -------------
 #p 6-31g* mp2
 -------------

 ------------------------------------------------------
 Input file generated by CHIRIPA (05-May-2021 14:55:25)
 ------------------------------------------------------
 Symbolic Z-matrix:
 Charge =  0 Multiplicity = 1

                         Standard orientation:
 ---------------------------------------------------------------------
 Center     Atomic      Atomic             Coordinates (Angstroms)
 Number     Number       Type             X           Y           Z
 ---------------------------------------------------------------------
      1          6           0       -1.056863    1.660252   -1.802909
      2          6           0       -0.570085    0.350940   -1.730305
      3          6           0       -1.263830   -0.625518   -1.009337
      4          6           0       -2.446405   -0.256238   -0.370243
      5          6           0       -2.957058    1.039772   -0.423924
      6          6           0       -2.246698    1.999890   -1.150637
      7          1           0       -0.511492    2.412441   -2.365206
      8          1           0        0.353690    0.084316   -2.235871
      9          1           0       -0.909628   -1.646633   -0.936668
     10          1           0       -3.880736    1.275453    0.090556
     11          1           0       -2.627110    3.015933   -1.205296
     12          7           0       -3.189636   -1.281321    0.396054
     13          8           0       -4.229110   -0.930569    0.950225
     14          8           0       -2.718635   -2.416122    0.427997
     15          6           0        3.690146    0.131492    0.369027
     16          6           0        4.022457   -1.034261   -0.562947
     17          6           0        5.457470   -0.980819   -1.087993
     18          1           0        3.851478    1.077557   -0.165650
     19          1           0        4.391470    0.126987    1.214911
     20          1           0        3.319841   -1.028380   -1.406103
     21          1           0        3.860132   -1.977663   -0.026049
     22          1           0        6.172248   -1.009976   -0.259232
     23          1           0        5.628888   -0.055299   -1.647127
     24          1           0        5.673585   -1.823426   -1.752197
     25          6           0        2.259066    0.091975    0.902111
     26          6           0        1.926756    1.257728    1.834084
     27          6           0        0.491742    1.204286    2.359131
     28          1           0        1.557743    0.096479    0.056227
     29          1           0        2.097735   -0.854089    1.436788
     30          1           0        2.089082    2.201130    1.297188
     31          1           0        2.629371    1.251847    2.677242
     32          1           0        0.320325    0.278766    2.918265
     33          1           0       -0.223035    1.233443    1.530371
     34          1           0        0.275628    2.046893    3.023336
 ---------------------------------------------------------------------

 SCF Done:  E(RHF) =  -669.534632029     A.U. after   15 cycles
 E2 =    -0.2094537501D+01 EUMP2 =    -0.67162916953066D+03

 The electronic state is 1-A.
 Alpha  occ. eigenvalues --  -20.60812 -20.60807 -15.85868 -11.31279 -11.27864
 Alpha  occ. eigenvalues --  -11.27845 -11.27620 -11.26897 -11.26875 -11.22123
 Alpha  occ. eigenvalues --  -11.21796 -11.21771 -11.21578 -11.21498 -11.21058
 Alpha  occ. eigenvalues --   -1.59886  -1.39438  -1.19483  -1.08868  -1.08758
 Alpha  occ. eigenvalues --   -1.04892  -1.03824  -0.96253  -0.95679  -0.87271
 Alpha  occ. eigenvalues --   -0.86275  -0.82517  -0.79910  -0.78600  -0.77540
 Alpha  occ. eigenvalues --   -0.72086  -0.71209  -0.70566  -0.65479  -0.65120
 Alpha  occ. eigenvalues --   -0.64845  -0.62223  -0.61249  -0.59640  -0.57875
 Alpha  occ. eigenvalues --   -0.55562  -0.55371  -0.53315  -0.52978  -0.52937
 Alpha  occ. eigenvalues --   -0.52652  -0.50199  -0.48850  -0.48836  -0.48187
 Alpha  occ. eigenvalues --   -0.46939  -0.46092  -0.46018  -0.44831  -0.44080
 Alpha  occ. eigenvalues --   -0.37451  -0.36389
 Alpha virt. eigenvalues --    0.04979   0.11095   0.16350   0.20074   0.22860
 Alpha virt. eigenvalues --    0.23863   0.25227   0.26603   0.27475   0.28249
 Alpha virt. eigenvalues --    0.29226   0.30278   0.31417   0.31551   0.32078

 Mulliken charges:
               1
     1  C   -0.172387
     2  C   -0.220154
     3  C   -0.168430
     4  C    0.160068
     5  C   -0.171845
     6  C   -0.218050
     7  H    0.226362
     8  H    0.225753
     9  H    0.277089
    10  H    0.276451
    11  H    0.224332
    12  N    0.488238
    13  O   -0.460075
    14  O   -0.460005
    15  C   -0.297916
    16  C   -0.298601
    17  C   -0.475649
    18  H    0.146356
    19  H    0.152088
    20  H    0.141999
    21  H    0.155559
    22  H    0.157760
    23  H    0.154026
    24  H    0.161186
    25  C   -0.305937
    26  C   -0.297723
    27  C   -0.482037
    28  H    0.150353
    29  H    0.152420
    30  H    0.147491
    31  H    0.152866
    32  H    0.158624
    33  H    0.160699
    34  H    0.159089
 Sum of Mulliken charges =  -0.00000

 Dipole moment (field-independent basis, Debye):
    X=              2.5267    Y=              3.5756    Z=             -2.6800  Tot=              5.1334
 Quadrupole moment (field-independent basis, Debye-Ang):
   XX=           -106.3072   YY=            -94.3522   ZZ=            -92.7527
   XY=            -12.5840   XZ=              5.5841   YZ=             -0.4187

 Normal termination of Gaussian 16 at Thu May  6 07:59:03 2021.
