 Gaussian 16, Revision A.03,
 Gaussian 16:  EM64L-G16RevA.03 25-Dec-2016

 -------------
 #p 6-31g* mp2
 -------------

 ------------------------------------------------------
 Input file generated by CHIRIPA (05-May-2021 14:57:21)
 ------------------------------------------------------
 Symbolic Z-matrix:
 Charge =  0 Multiplicity = 1

                         Standard orientation:
 ---------------------------------------------------------------------
 Center     Atomic      Atomic             Coordinates (Angstroms)
 Number     Number       Type             X           Y           Z
 ---------------------------------------------------------------------
      1          6           0       -1.296840   -1.092383    0.247348
      2          6           0       -2.300175   -1.528262    1.119043
      3          6           0       -3.596726   -1.014168    1.023069
      4          6           0       -3.856067   -0.061195    0.039264
      5          6           0       -2.877878    0.393141   -0.843921
      6          6           0       -1.588380   -0.134761   -0.729629
      7          1           0       -0.292388   -1.497107    0.329018
      8          1           0       -2.076640   -2.271860    1.878740
      9          1           0       -4.392407   -1.333912    1.684940
     10          1           0       -3.131045    1.135497   -1.591071
     11          1           0       -0.811163    0.205603   -1.407958
     12          7           0       -5.224934    0.490363   -0.072036
     13          8           0       -5.427802    1.329004   -0.947342
     14          8           0       -6.069064    0.073588    0.718142
     15          6           0        3.710256   -2.317906   -0.566166
     16          6           0        2.618062   -1.551653   -0.986271
     17          6           0        2.563246   -0.182258   -0.710047
     18          6           0        3.622747    0.390888   -0.008441
     19          6           0        4.724564   -0.345819    0.423473
     20          6           0        4.758174   -1.713610    0.136127
     21          1           0        3.744602   -3.381063   -0.785064
     22          1           0        1.802808   -2.018282   -1.531856
     23          1           0        1.729739    0.434536   -1.023496
     24          1           0        5.522207    0.147534    0.965494
     25          1           0        5.607648   -2.306221    0.463621
     26          7           0        3.575940    1.839756    0.289872
     27          8           0        4.522061    2.320897    0.909545
     28          8           0        2.594017    2.466806   -0.101633
 ---------------------------------------------------------------------

 SCF Done:  E(RHF) =  -868.336650488     A.U. after   16 cycles
 E2 =    -0.2600921833D+01 EUMP2 =    -0.87093757232107D+03

 The electronic state is 1-A.
 Alpha  occ. eigenvalues --  -20.61556 -20.61547 -20.60863 -20.60857 -15.86617
 Alpha  occ. eigenvalues --  -15.85922 -11.32180 -11.31374 -11.28892 -11.28720
 Alpha  occ. eigenvalues --  -11.28517 -11.27977 -11.27959 -11.27899 -11.27764
 Alpha  occ. eigenvalues --  -11.27734 -11.27099 -11.26997  -1.60625  -1.59936
 Alpha  occ. eigenvalues --   -1.40174  -1.39487  -1.20378  -1.19574  -1.09715
 Alpha  occ. eigenvalues --   -1.08969  -1.05830  -1.04996  -0.96523  -0.95780
 Alpha  occ. eigenvalues --   -0.87195  -0.86413  -0.83368  -0.82609  -0.78397
 Alpha  occ. eigenvalues --   -0.77629  -0.72829  -0.72142  -0.71953  -0.71474
 Alpha  occ. eigenvalues --   -0.71259  -0.70709  -0.66030  -0.65825  -0.65243
 Alpha  occ. eigenvalues --   -0.65066  -0.63165  -0.62314  -0.56264  -0.55591
 Alpha  occ. eigenvalues --   -0.54077  -0.53912  -0.53301  -0.53093  -0.49601
 Alpha  occ. eigenvalues --   -0.49575  -0.48908  -0.48886  -0.45536  -0.44873
 Alpha  occ. eigenvalues --   -0.38331  -0.37595  -0.37410  -0.36586
 Alpha virt. eigenvalues --    0.04132   0.04916   0.10178   0.11025   0.15415
 Alpha virt. eigenvalues --    0.16346   0.18303   0.22053   0.24580   0.26443
 Alpha virt. eigenvalues --    0.27894   0.29155   0.30164   0.30812   0.32181

 Mulliken charges:
               1
     1  C   -0.175009
     2  C   -0.218733
     3  C   -0.169785
     4  C    0.158779
     5  C   -0.168920
     6  C   -0.220189
     7  H    0.224314
     8  H    0.223692
     9  H    0.276527
    10  H    0.278279
    11  H    0.218135
    12  N    0.488007
    13  O   -0.458916
    14  O   -0.459911
    15  C   -0.170865
    16  C   -0.226656
    17  C   -0.177169
    18  C    0.160744
    19  C   -0.168621
    20  C   -0.218322
    21  H    0.228907
    22  H    0.222134
    23  H    0.275226
    24  H    0.279329
    25  H    0.227445
    26  N    0.487720
    27  O   -0.456638
    28  O   -0.459502
 Sum of Mulliken charges =  -0.00000

 Dipole moment (field-independent basis, Debye):
    X=              5.1879    Y=             -6.9848    Z=             -0.5544  Tot=              8.7183
 Quadrupole moment (field-independent basis, Debye-Ang):
   XX=           -135.1158   YY=           -107.8288   ZZ=           -101.7863
   XY=            -10.9797   XZ=             -3.9227   YZ=             -3.2440

 Normal termination of Gaussian 16 at Thu May  6 17:51:38 2021.
