 Gaussian 16, Revision A.03,
 Gaussian 16:  EM64L-G16RevA.03 25-Dec-2016

 -------------
 #p 6-31g* mp2
 -------------

 ------------------------------------------------------
 Input file generated by CHIRIPA (05-May-2021 14:55:22)
 ------------------------------------------------------
 Symbolic Z-matrix:
 Charge =  0 Multiplicity = 1

                         Standard orientation:
 ---------------------------------------------------------------------
 Center     Atomic      Atomic             Coordinates (Angstroms)
 Number     Number       Type             X           Y           Z
 ---------------------------------------------------------------------
      1          6           0        1.159657    0.771289    1.919903
      2          6           0        0.743275   -0.168101    0.970854
      3          6           0        1.640299   -0.660550    0.018284
      4          6           0        2.952158   -0.189737    0.043828
      5          6           0        3.397241    0.745786    0.976559
      6          6           0        2.482978    1.224436    1.919726
      7          1           0        0.456131    1.148475    2.656230
      8          1           0       -0.283823   -0.521809    0.968612
      9          1           0        1.344626   -1.388161   -0.727757
     10          1           0        4.427535    1.079539    0.953729
     11          1           0        2.809141    1.953940    2.655583
     12          7           0        3.910922   -0.703767   -0.959638
     13          8           0        5.061242   -0.273074   -0.915973
     14          8           0        3.493929   -1.527622   -1.770820
     15          6           0       -3.889002   -0.544349   -0.426034
     16          6           0       -3.834774   -1.524890    0.745967
     17          6           0       -4.463839   -2.878347    0.413964
     18          1           0       -4.935706   -0.399895   -0.726848
     19          1           0       -3.373843   -0.987196   -1.289684
     20          1           0       -4.348680   -1.079751    1.607574
     21          1           0       -2.788093   -1.666880    1.044150
     22          1           0       -3.946598   -3.347055   -0.429467
     23          1           0       -5.516053   -2.756592    0.137157
     24          1           0       -4.414238   -3.563864    1.265707
     25          6           0       -3.264001    0.813198   -0.109547
     26          6           0       -3.318229    1.793739   -1.281547
     27          6           0       -2.689164    3.147196   -0.949545
     28          1           0       -3.779160    1.256045    0.754104
     29          1           0       -2.217297    0.668744    0.191267
     30          1           0       -4.364910    1.935729   -1.579731
     31          1           0       -2.804323    1.348600   -2.143154
     32          1           0       -1.636950    3.025440   -0.672738
     33          1           0       -3.206405    3.615905   -0.106114
     34          1           0       -2.738764    3.832712   -1.801288
 ---------------------------------------------------------------------

 SCF Done:  E(RHF) =  -669.535455599     A.U. after   15 cycles
 E2 =    -0.2091852732D+01 EUMP2 =    -0.67162730833065D+03

 The electronic state is 1-A.
 Alpha  occ. eigenvalues --  -20.60780 -20.60775 -15.85834 -11.31207 -11.27783
 Alpha  occ. eigenvalues --  -11.27779 -11.27520 -11.26787 -11.26767 -11.22492
 Alpha  occ. eigenvalues --  -11.22248 -11.22184 -11.22129 -11.21717 -11.21596
 Alpha  occ. eigenvalues --   -1.59855  -1.39408  -1.19383  -1.09202  -1.08772
 Alpha  occ. eigenvalues --   -1.04788  -1.04218  -0.96654  -0.95606  -0.87667
 Alpha  occ. eigenvalues --   -0.86187  -0.82441  -0.80294  -0.79044  -0.77484
 Alpha  occ. eigenvalues --   -0.72052  -0.71178  -0.70482  -0.65925  -0.65032
 Alpha  occ. eigenvalues --   -0.64736  -0.62134  -0.61616  -0.60022  -0.58270
 Alpha  occ. eigenvalues --   -0.55945  -0.55275  -0.53328  -0.53139  -0.53070
 Alpha  occ. eigenvalues --   -0.52868  -0.50596  -0.48817  -0.48806  -0.48604
 Alpha  occ. eigenvalues --   -0.47343  -0.46539  -0.46465  -0.44812  -0.44492
 Alpha  occ. eigenvalues --   -0.37354  -0.36382
 Alpha virt. eigenvalues --    0.05052   0.11132   0.16511   0.19048   0.22828
 Alpha virt. eigenvalues --    0.23477   0.24726   0.26384   0.27269   0.28215
 Alpha virt. eigenvalues --    0.29359   0.30111   0.31136   0.31368   0.32033

 Mulliken charges:
               1
     1  C   -0.173078
     2  C   -0.225040
     3  C   -0.173069
     4  C    0.158769
     5  C   -0.170753
     6  C   -0.218524
     7  H    0.226887
     8  H    0.233257
     9  H    0.275701
    10  H    0.275760
    11  H    0.223643
    12  N    0.488099
    13  O   -0.460364
    14  O   -0.460436
    15  C   -0.299295
    16  C   -0.302328
    17  C   -0.475983
    18  H    0.153901
    19  H    0.151127
    20  H    0.153779
    21  H    0.144074
    22  H    0.157203
    23  H    0.158184
    24  H    0.162081
    25  C   -0.302871
    26  C   -0.299516
    27  C   -0.477127
    28  H    0.150119
    29  H    0.143071
    30  H    0.154410
    31  H    0.154711
    32  H    0.155778
    33  H    0.154214
    34  H    0.163616
 Sum of Mulliken charges =  -0.00000

 Dipole moment (field-independent basis, Debye):
    X=             -3.5235    Y=              1.8311    Z=              3.4731  Tot=              5.2755
 Quadrupole moment (field-independent basis, Debye-Ang):
   XX=           -110.9779   YY=            -95.0090   ZZ=            -94.0904
   XY=              7.8382   XZ=             11.9047   YZ=              0.7452

 Normal termination of Gaussian 16 at Wed May  5 17:28:49 2021.
