 Gaussian 16, Revision A.03,
 Gaussian 16:  EM64L-G16RevA.03 25-Dec-2016

 -------------
 #p 6-31g* mp2
 -------------

 ------------------------------------------------------
 Input file generated by CHIRIPA (05-May-2021 14:57:22)
 ------------------------------------------------------
 Symbolic Z-matrix:
 Charge =  0 Multiplicity = 1

                         Standard orientation:
 ---------------------------------------------------------------------
 Center     Atomic      Atomic             Coordinates (Angstroms)
 Number     Number       Type             X           Y           Z
 ---------------------------------------------------------------------
      1          6           0        2.207268    2.056021    0.153656
      2          6           0        3.179120    1.906772   -0.841205
      3          6           0        4.007678    0.780876   -0.861165
      4          6           0        3.836217   -0.180586    0.133563
      5          6           0        2.877067   -0.060523    1.138006
      6          6           0        2.059603    1.073629    1.138350
      7          1           0        1.567933    2.933850    0.161542
      8          1           0        3.296049    2.668108   -1.607194
      9          1           0        4.768111    0.640063   -1.619671
     10          1           0        2.784227   -0.836339    1.888278
     11          1           0        1.305694    1.186889    1.912196
     12          7           0        4.707502   -1.376892    0.122815
     13          8           0        4.536418   -2.209690    1.010404
     14          8           0        5.545001   -1.459105   -0.772994
     15          6           0       -1.651602    1.444772   -0.389545
     16          6           0       -2.677796    1.821266    0.483208
     17          6           0       -3.813251    1.019300    0.632012
     18          6           0       -3.889937   -0.157858   -0.110758
     19          6           0       -2.884261   -0.560054   -0.988337
     20          6           0       -1.757922    0.257408   -1.121242
     21          1           0       -0.773094    2.073778   -0.498964
     22          1           0       -2.597932    2.742849    1.052727
     23          1           0       -4.622475    1.286869    1.300580
     24          1           0       -2.992375   -1.484428   -1.542649
     25          1           0       -0.962516   -0.037487   -1.799777
     26          7           0       -5.087167   -1.015066    0.038359
     27          8           0       -5.130665   -2.047336   -0.627346
     28          8           0       -5.959388   -0.638442    0.818117
 ---------------------------------------------------------------------

 SCF Done:  E(RHF) =  -868.336616356     A.U. after   16 cycles
 E2 =    -0.2600710028D+01 EUMP2 =    -0.87093732638376D+03

 The electronic state is 1-A.
 Alpha  occ. eigenvalues --  -20.61414 -20.61407 -20.61137 -20.61128 -15.86471
 Alpha  occ. eigenvalues --  -15.86193 -11.32043 -11.31681 -11.28593 -11.28572
 Alpha  occ. eigenvalues --  -11.28493 -11.28276 -11.28223 -11.28089 -11.27722
 Alpha  occ. eigenvalues --  -11.27701 -11.27374 -11.27277  -1.60484  -1.60208
 Alpha  occ. eigenvalues --   -1.40031  -1.39758  -1.20236  -1.19873  -1.09631
 Alpha  occ. eigenvalues --   -1.09260  -1.05641  -1.05284  -0.96430  -0.96066
 Alpha  occ. eigenvalues --   -0.87045  -0.86685  -0.83232  -0.82890  -0.78212
 Alpha  occ. eigenvalues --   -0.77904  -0.72684  -0.72408  -0.71811  -0.71573
 Alpha  occ. eigenvalues --   -0.71533  -0.70886  -0.65887  -0.65640  -0.65528
 Alpha  occ. eigenvalues --   -0.65289  -0.62960  -0.62619  -0.56414  -0.55713
 Alpha  occ. eigenvalues --   -0.53981  -0.53738  -0.53585  -0.53377  -0.49460
 Alpha  occ. eigenvalues --   -0.49427  -0.49178  -0.49155  -0.45389  -0.45136
 Alpha  occ. eigenvalues --   -0.38369  -0.37845  -0.37197  -0.36877
 Alpha virt. eigenvalues --    0.04226   0.04615   0.10360   0.10774   0.15493
 Alpha virt. eigenvalues --    0.16061   0.19152   0.21744   0.25502   0.26465
 Alpha virt. eigenvalues --    0.26887   0.29213   0.29795   0.31700   0.31976

 Mulliken charges:
               1
     1  C   -0.179947
     2  C   -0.219355
     3  C   -0.171325
     4  C    0.159633
     5  C   -0.170865
     6  C   -0.215976
     7  H    0.219357
     8  H    0.225293
     9  H    0.278274
    10  H    0.279410
    11  H    0.226200
    12  N    0.487743
    13  O   -0.457293
    14  O   -0.458283
    15  C   -0.172881
    16  C   -0.221388
    17  C   -0.170322
    18  C    0.159007
    19  C   -0.170442
    20  C   -0.219117
    21  H    0.219282
    22  H    0.220818
    23  H    0.276773
    24  H    0.278248
    25  H    0.227065
    26  N    0.487907
    27  O   -0.458231
    28  O   -0.459585
 Sum of Mulliken charges =  -0.00000

 Dipole moment (field-independent basis, Debye):
    X=              1.2688    Y=              6.9819    Z=             -0.4897  Tot=              7.1131
 Quadrupole moment (field-independent basis, Debye-Ang):
   XX=           -159.3846   YY=           -105.9540   ZZ=            -99.7022
   XY=              3.8284   XZ=             -2.2163   YZ=              1.1520

 Normal termination of Gaussian 16 at Fri May  7 03:18:37 2021.
