 Gaussian 16, Revision A.03,
 Gaussian 16:  EM64L-G16RevA.03 25-Dec-2016

 -------------
 #p 6-31g* mp2
 -------------

 ------------------------------------------------------
 Input file generated by CHIRIPA (05-May-2021 14:57:24)
 ------------------------------------------------------
 Symbolic Z-matrix:
 Charge =  0 Multiplicity = 1

                         Standard orientation:
 ---------------------------------------------------------------------
 Center     Atomic      Atomic             Coordinates (Angstroms)
 Number     Number       Type             X           Y           Z
 ---------------------------------------------------------------------
      1          6           0       -4.948325   -1.864742    1.073950
      2          6           0       -4.036868   -1.110586    1.820285
      3          6           0       -3.325913   -0.064128    1.225291
      4          6           0       -3.552112    0.201929   -0.124278
      5          6           0       -4.453458   -0.531365   -0.894437
      6          6           0       -5.153350   -1.573238   -0.278644
      7          1           0       -5.496314   -2.675875    1.544234
      8          1           0       -3.875614   -1.334717    2.870908
      9          1           0       -2.614328    0.535676    1.779637
     10          1           0       -4.592833   -0.284185   -1.939853
     11          1           0       -5.860574   -2.157253   -0.860715
     12          7           0       -2.805312    1.307340   -0.765181
     13          8           0       -3.022636    1.521682   -1.955754
     14          8           0       -2.016788    1.938489   -0.064811
     15          6           0        2.434426    2.071710    0.691138
     16          6           0        3.614397    1.714768    1.352032
     17          6           0        4.310170    0.558138    0.987815
     18          6           0        3.795146   -0.221938   -0.046364
     19          6           0        2.622138    0.107095   -0.723918
     20          6           0        1.942929    1.268151   -0.342905
     21          1           0        1.900366    2.971928    0.980594
     22          1           0        3.998443    2.336923    2.155447
     23          1           0        5.225981    0.258335    1.482613
     24          1           0        2.263991   -0.533109   -1.520968
     25          1           0        1.026791    1.542897   -0.857930
     26          7           0        4.522962   -1.448754   -0.440835
     27          8           0        4.048383   -2.119108   -1.355186
     28          8           0        5.554222   -1.716747    0.171798
 ---------------------------------------------------------------------

 SCF Done:  E(RHF) =  -868.340277416     A.U. after   16 cycles
 E2 =    -0.2598237769D+01 EUMP2 =    -0.87093851518484D+03

 The electronic state is 1-A.
 Alpha  occ. eigenvalues --  -20.61700 -20.61659 -20.60303 -20.60296 -15.86702
 Alpha  occ. eigenvalues --  -15.85346 -11.31768 -11.30544 -11.28312 -11.28289
 Alpha  occ. eigenvalues --  -11.27979 -11.27245 -11.27231 -11.27111 -11.27015
 Alpha  occ. eigenvalues --  -11.26686 -11.26097 -11.25838  -1.60747  -1.59382
 Alpha  occ. eigenvalues --   -1.40307  -1.38940  -1.19912  -1.18673  -1.09361
 Alpha  occ. eigenvalues --   -1.08080  -1.05268  -1.04035  -0.96246  -0.94955
 Alpha  occ. eigenvalues --   -0.86680  -0.85421  -0.83089  -0.81787  -0.78171
 Alpha  occ. eigenvalues --   -0.76872  -0.72933  -0.72051  -0.71567  -0.71013
 Alpha  occ. eigenvalues --   -0.70704  -0.69744  -0.65567  -0.65266  -0.64304
 Alpha  occ. eigenvalues --   -0.63979  -0.62620  -0.61368  -0.55775  -0.54487
 Alpha  occ. eigenvalues --   -0.53613  -0.53355  -0.52398  -0.52087  -0.49702
 Alpha  occ. eigenvalues --   -0.49660  -0.48335  -0.48306  -0.45767  -0.44383
 Alpha  occ. eigenvalues --   -0.37870  -0.36856  -0.36630  -0.35649
 Alpha virt. eigenvalues --    0.04315   0.05628   0.10803   0.12011   0.15866
 Alpha virt. eigenvalues --    0.17189   0.20971   0.22321   0.26904   0.27770
 Alpha virt. eigenvalues --    0.28301   0.29104   0.30572   0.31912   0.32073

 Mulliken charges:
               1
     1  C   -0.169450
     2  C   -0.218175
     3  C   -0.170253
     4  C    0.157333
     5  C   -0.170342
     6  C   -0.218332
     7  H    0.228210
     8  H    0.225409
     9  H    0.274254
    10  H    0.276495
    11  H    0.225805
    12  N    0.488050
    13  O   -0.457105
    14  O   -0.469115
    15  C   -0.173043
    16  C   -0.219468
    17  C   -0.173253
    18  C    0.158014
    19  C   -0.174304
    20  C   -0.223746
    21  H    0.230306
    22  H    0.220534
    23  H    0.272583
    24  H    0.273820
    25  H    0.242703
    26  N    0.488074
    27  O   -0.462160
    28  O   -0.462848
 Sum of Mulliken charges =  -0.00000

 Dipole moment (field-independent basis, Debye):
    X=             -5.6684    Y=              0.4394    Z=              3.6170  Tot=              6.7384
 Quadrupole moment (field-independent basis, Debye-Ang):
   XX=           -103.3394   YY=           -109.1596   ZZ=            -99.7657
   XY=             32.5280   XZ=              2.5648   YZ=              1.9243

 Normal termination of Gaussian 16 at Thu May  6 19:39:59 2021.
