 Gaussian 16, Revision A.03,
 Gaussian 16:  EM64L-G16RevA.03 25-Dec-2016

 -------------
 #p 6-31g* mp2
 -------------

 ------------------------------------------------------
 Input file generated by CHIRIPA (05-May-2021 14:57:26)
 ------------------------------------------------------
 Symbolic Z-matrix:
 Charge =  0 Multiplicity = 1

                         Standard orientation:
 ---------------------------------------------------------------------
 Center     Atomic      Atomic             Coordinates (Angstroms)
 Number     Number       Type             X           Y           Z
 ---------------------------------------------------------------------
      1          6           0       -6.002852   -0.224138   -0.882454
      2          6           0       -4.924336   -0.892863   -1.470782
      3          6           0       -3.659185   -0.860164   -0.876751
      4          6           0       -3.507567   -0.145913    0.310746
      5          6           0       -4.562560    0.530511    0.921263
      6          6           0       -5.818846    0.484167    0.309589
      7          1           0       -6.982208   -0.254840   -1.350765
      8          1           0       -5.064304   -1.443733   -2.396524
      9          1           0       -2.806975   -1.368907   -1.310728
     10          1           0       -4.392127    1.071313    1.844250
     11          1           0       -6.654627    1.004447    0.768745
     12          7           0       -2.172902   -0.104073    0.948959
     13          8           0       -2.065418    0.532217    1.995009
     14          8           0       -1.259546   -0.708361    0.391057
     15          6           0        5.504890   -1.543252    0.369172
     16          6           0        4.188708   -1.958366    0.141422
     17          6           0        3.195748   -1.027380   -0.177705
     18          6           0        3.555709    0.316778   -0.261123
     19          6           0        4.858208    0.761507   -0.039759
     20          6           0        5.834856   -0.187032    0.278014
     21          1           0        6.269910   -2.273282    0.616552
     22          1           0        3.929566   -3.010969    0.211531
     23          1           0        2.169001   -1.321270   -0.358916
     24          1           0        5.086121    1.817693   -0.116862
     25          1           0        6.856202    0.138232    0.454375
     26          7           0        2.513140    1.311662   -0.598253
     27          8           0        2.855942    2.490042   -0.665653
     28          8           0        1.372913    0.894233   -0.788711
 ---------------------------------------------------------------------

 SCF Done:  E(RHF) =  -868.337171728     A.U. after   16 cycles
 E2 =    -0.2599871217D+01 EUMP2 =    -0.87093704294531D+03

 The electronic state is 1-A.
 Alpha  occ. eigenvalues --  -20.60127 -20.60059 -20.59705 -20.59602 -15.85145
 Alpha  occ. eigenvalues --  -15.84702 -11.30657 -11.30233 -11.27248 -11.27245
 Alpha  occ. eigenvalues --  -11.27036 -11.26890 -11.26751 -11.26675 -11.26311
 Alpha  occ. eigenvalues --  -11.26301 -11.25947 -11.25884  -1.59143  -1.58735
 Alpha  occ. eigenvalues --   -1.38700  -1.38274  -1.18845  -1.18442  -1.08215
 Alpha  occ. eigenvalues --   -1.07821  -1.04277  -1.03870  -0.95029  -0.94618
 Alpha  occ. eigenvalues --   -0.85669  -0.85262  -0.81872  -0.81438  -0.76888
 Alpha  occ. eigenvalues --   -0.76442  -0.71417  -0.70916  -0.70421  -0.70052
 Alpha  occ. eigenvalues --   -0.69967  -0.69559  -0.64505  -0.64292  -0.64093
 Alpha  occ. eigenvalues --   -0.63889  -0.61627  -0.61200  -0.54786  -0.54401
 Alpha  occ. eigenvalues --   -0.52590  -0.52380  -0.52199  -0.51967  -0.48165
 Alpha  occ. eigenvalues --   -0.48115  -0.47728  -0.47638  -0.44089  -0.43592
 Alpha  occ. eigenvalues --   -0.36834  -0.36458  -0.35885  -0.35481
 Alpha virt. eigenvalues --    0.05661   0.06100   0.11769   0.12170   0.17116
 Alpha virt. eigenvalues --    0.17534   0.21833   0.22241   0.27741   0.28110
 Alpha virt. eigenvalues --    0.28703   0.29197   0.31355   0.31737   0.32944

 Mulliken charges:
               1
     1  C   -0.171314
     2  C   -0.218551
     3  C   -0.169354
     4  C    0.160326
     5  C   -0.170709
     6  C   -0.218552
     7  H    0.223775
     8  H    0.221617
     9  H    0.274823
    10  H    0.275231
    11  H    0.221941
    12  N    0.490852
    13  O   -0.461859
    14  O   -0.457281
    15  C   -0.171415
    16  C   -0.219585
    17  C   -0.170548
    18  C    0.157614
    19  C   -0.171521
    20  C   -0.219250
    21  H    0.222127
    22  H    0.221330
    23  H    0.286821
    24  H    0.273332
    25  H    0.220008
    26  N    0.487569
    27  O   -0.467810
    28  O   -0.449620
 Sum of Mulliken charges =  -0.00000

 Dipole moment (field-independent basis, Debye):
    X=             -1.2156    Y=             -3.6786    Z=             -1.0644  Tot=              4.0178
 Quadrupole moment (field-independent basis, Debye-Ang):
   XX=            -45.9658   YY=           -103.9853   ZZ=           -105.5134
   XY=             -8.8447   XZ=              8.6074   YZ=              4.3601

 Normal termination of Gaussian 16 at Thu May  6 19:44:38 2021.
