 Gaussian 16, Revision A.03,
 Gaussian 16:  EM64L-G16RevA.03 25-Dec-2016

 -------------
 #p 6-31g* mp2
 -------------

 ------------------------------------------------------
 Input file generated by CHIRIPA (05-May-2021 14:53:17)
 ------------------------------------------------------
 Symbolic Z-matrix:
 Charge =  0 Multiplicity = 1

                         Standard orientation:
 ---------------------------------------------------------------------
 Center     Atomic      Atomic             Coordinates (Angstroms)
 Number     Number       Type             X           Y           Z
 ---------------------------------------------------------------------
      1          6           0       -3.801835   -0.595861    0.177196
      2          6           0       -5.228061   -1.147079    0.172555
      3          6           0       -5.348660   -2.481068    0.909931
      4          1           0       -3.129225   -1.332773   -0.282697
      5          1           0       -3.467065   -0.472946    1.216531
      6          1           0       -5.560543   -1.267614   -0.866455
      7          1           0       -5.897384   -0.408688    0.632339
      8          1           0       -5.042924   -2.372286    1.955538
      9          1           0       -4.704169   -3.236092    0.448227
     10          1           0       -6.376450   -2.856920    0.894337
     11          6           0       -3.665213    0.737305   -0.556107
     12          6           0       -2.238986    1.288523   -0.551466
     13          6           0       -2.118387    2.622512   -1.288842
     14          1           0       -3.999982    0.614390   -1.595441
     15          1           0       -4.337822    1.474217   -0.096214
     16          1           0       -1.569663    0.550132   -1.011250
     17          1           0       -1.906504    1.409058    0.487544
     18          1           0       -2.762878    3.377537   -0.827138
     19          1           0       -2.424123    2.513731   -2.334448
     20          1           0       -1.090597    2.998364   -1.273248
     21          6           0        4.285074   -1.763533   -1.107204
     22          6           0        3.183287   -1.160105   -1.722396
     23          6           0        2.418000   -0.212288   -1.036447
     24          6           0        2.784537    0.109898    0.269362
     25          6           0        3.876668   -0.473824    0.909523
     26          6           0        4.627644   -1.419074    0.204479
     27          1           0        4.874009   -2.498822   -1.647482
     28          1           0        2.914909   -1.425673   -2.740970
     29          1           0        1.560086    0.270297   -1.488681
     30          1           0        4.119616   -0.188620    1.925915
     31          1           0        5.482788   -1.886086    0.684765
     32          7           0        1.981937    1.111951    1.005653
     33          8           0        2.325613    1.378514    2.155204
     34          8           0        1.024381    1.611822    0.419265
 ---------------------------------------------------------------------

 SCF Done:  E(RHF) =  -669.535841391     A.U. after   15 cycles
 E2 =    -0.2091741314D+01 EUMP2 =    -0.67162758270598D+03

 The electronic state is 1-A.
 Alpha  occ. eigenvalues --  -20.60924 -20.60910 -15.85950 -11.31276 -11.27840
 Alpha  occ. eigenvalues --  -11.27837 -11.27579 -11.26850 -11.26840 -11.21160
 Alpha  occ. eigenvalues --  -11.20802 -11.20732 -11.20591 -11.20432 -11.19952
 Alpha  occ. eigenvalues --   -1.59981  -1.39537  -1.19445  -1.08850  -1.07721
 Alpha  occ. eigenvalues --   -1.04843  -1.02764  -0.95698  -0.95241  -0.86277
 Alpha  occ. eigenvalues --   -0.86242  -0.82530  -0.78863  -0.77658  -0.77399
 Alpha  occ. eigenvalues --   -0.72179  -0.71292  -0.70555  -0.65104  -0.64849
 Alpha  occ. eigenvalues --   -0.64366  -0.62192  -0.60178  -0.58620  -0.56787
 Alpha  occ. eigenvalues --   -0.55347  -0.54572  -0.53174  -0.52935  -0.51921
 Alpha  occ. eigenvalues --   -0.51669  -0.49241  -0.48942  -0.48920  -0.47185
 Alpha  occ. eigenvalues --   -0.45914  -0.45238  -0.44966  -0.44676  -0.43018
 Alpha  occ. eigenvalues --   -0.37424  -0.36444
 Alpha virt. eigenvalues --    0.04933   0.11201   0.16422   0.20966   0.23393
 Alpha virt. eigenvalues --    0.24451   0.26528   0.27520   0.27659   0.28501
 Alpha virt. eigenvalues --    0.29067   0.30560   0.31580   0.32242   0.32656

 Mulliken charges:
               1
     1  C   -0.297092
     2  C   -0.298858
     3  C   -0.475191
     4  H    0.145314
     5  H    0.151557
     6  H    0.149957
     7  H    0.152027
     8  H    0.155567
     9  H    0.153040
    10  H    0.158653
    11  C   -0.299122
    12  C   -0.292918
    13  C   -0.479886
    14  H    0.144181
    15  H    0.148575
    16  H    0.141264
    17  H    0.167899
    18  H    0.152572
    19  H    0.145105
    20  H    0.173344
    21  C   -0.170523
    22  C   -0.218853
    23  C   -0.171744
    24  C    0.157526
    25  C   -0.170626
    26  C   -0.218602
    27  H    0.225931
    28  H    0.223851
    29  H    0.277612
    30  H    0.275773
    31  H    0.223750
    32  N    0.493675
    33  O   -0.459562
    34  O   -0.464194
 Sum of Mulliken charges =  -0.00000

 Dipole moment (field-independent basis, Debye):
    X=              3.0961    Y=             -3.4364    Z=             -2.4489  Tot=              5.2337
 Quadrupole moment (field-independent basis, Debye-Ang):
   XX=            -78.5950   YY=            -96.9551   ZZ=            -92.9561
   XY=            -10.6607   XZ=             -4.2958   YZ=             -0.4849

 Normal termination of Gaussian 16 at Wed May  5 22:01:38 2021.
