 Gaussian 16, Revision A.03,
 Gaussian 16:  EM64L-G16RevA.03 25-Dec-2016

 -------------
 #p 6-31g* mp2
 -------------

 ------------------------------------------------------
 Input file generated by CHIRIPA (05-May-2021 14:55:20)
 ------------------------------------------------------
 Symbolic Z-matrix:
 Charge =  0 Multiplicity = 1

                         Standard orientation:
 ---------------------------------------------------------------------
 Center     Atomic      Atomic             Coordinates (Angstroms)
 Number     Number       Type             X           Y           Z
 ---------------------------------------------------------------------
      1          6           0        2.803006    2.073473    0.486848
      2          6           0        3.736922    1.326792   -0.238955
      3          6           0        3.549929   -0.044439   -0.437213
      4          6           0        2.412646   -0.639361    0.106795
      5          6           0        1.464124    0.077524    0.834580
      6          6           0        1.671582    1.447559    1.020359
      7          1           0        2.956216    3.138213    0.636013
      8          1           0        4.616527    1.810232   -0.654439
      9          1           0        4.257019   -0.646362   -0.995003
     10          1           0        0.597053   -0.432353    1.236614
     11          1           0        0.944623    2.024939    1.584458
     12          7           0        2.203852   -2.090389   -0.096486
     13          8           0        1.193662   -2.590909    0.393036
     14          8           0        3.054343   -2.699709   -0.741490
     15          6           0       -3.367148   -0.180974   -0.397881
     16          6           0       -4.459809   -0.761668    0.500380
     17          6           0       -4.919364   -2.148934    0.050827
     18          1           0       -3.739290   -0.128850   -1.430227
     19          1           0       -2.508700   -0.866780   -0.409331
     20          1           0       -5.315393   -0.074300    0.511229
     21          1           0       -4.085090   -0.812237    1.530741
     22          1           0       -4.081247   -2.853291    0.057391
     23          1           0       -5.318540   -2.111161   -0.967913
     24          1           0       -5.700678   -2.545184    0.706872
     25          6           0       -2.897320    1.205522    0.038717
     26          6           0       -1.804659    1.786217   -0.859543
     27          6           0       -1.345104    3.173483   -0.409991
     28          1           0       -3.755768    1.891329    0.050166
     29          1           0       -2.525178    1.153398    1.071063
     30          1           0       -2.179377    1.836786   -1.889905
     31          1           0       -0.949075    1.098849   -0.870394
     32          1           0       -0.945928    3.135710    0.608750
     33          1           0       -2.183220    3.877840   -0.416555
     34          1           0       -0.563790    3.569732   -1.066035
 ---------------------------------------------------------------------

 SCF Done:  E(RHF) =  -669.535024200     A.U. after   15 cycles
 E2 =    -0.2093070978D+01 EUMP2 =    -0.67162809517872D+03

 The electronic state is 1-A.
 Alpha  occ. eigenvalues --  -20.60834 -20.60827 -15.85886 -11.31255 -11.27817
 Alpha  occ. eigenvalues --  -11.27805 -11.27536 -11.26828 -11.26808 -11.21942
 Alpha  occ. eigenvalues --  -11.21731 -11.21707 -11.21577 -11.21411 -11.20879
 Alpha  occ. eigenvalues --   -1.59907  -1.39461  -1.19425  -1.08815  -1.08629
 Alpha  occ. eigenvalues --   -1.04834  -1.03722  -0.96197  -0.95649  -0.87220
 Alpha  occ. eigenvalues --   -0.86214  -0.82484  -0.79804  -0.78399  -0.77538
 Alpha  occ. eigenvalues --   -0.72103  -0.71230  -0.70521  -0.65334  -0.65064
 Alpha  occ. eigenvalues --   -0.64831  -0.62236  -0.61069  -0.59584  -0.57781
 Alpha  occ. eigenvalues --   -0.55566  -0.55285  -0.53140  -0.52942  -0.52866
 Alpha  occ. eigenvalues --   -0.52569  -0.50122  -0.48859  -0.48858  -0.48106
 Alpha  occ. eigenvalues --   -0.46838  -0.45957  -0.45843  -0.44863  -0.43975
 Alpha  occ. eigenvalues --   -0.37386  -0.36378
 Alpha virt. eigenvalues --    0.04971   0.11153   0.16398   0.19552   0.22965
 Alpha virt. eigenvalues --    0.24053   0.25685   0.26053   0.27447   0.28742
 Alpha virt. eigenvalues --    0.28914   0.30459   0.31259   0.31968   0.32524

 Mulliken charges:
               1
     1  C   -0.172344
     2  C   -0.218340
     3  C   -0.171016
     4  C    0.158399
     5  C   -0.173957
     6  C   -0.214752
     7  H    0.226419
     8  H    0.223753
     9  H    0.275784
    10  H    0.276069
    11  H    0.226814
    12  N    0.488287
    13  O   -0.461148
    14  O   -0.459875
    15  C   -0.301310
    16  C   -0.299235
    17  C   -0.477056
    18  H    0.150980
    19  H    0.156422
    20  H    0.150611
    21  H    0.150891
    22  H    0.161419
    23  H    0.154907
    24  H    0.159965
    25  C   -0.297711
    26  C   -0.305251
    27  C   -0.473691
    28  H    0.150638
    29  H    0.141817
    30  H    0.155346
    31  H    0.156588
    32  H    0.142403
    33  H    0.157830
    34  H    0.160341
 Sum of Mulliken charges =  -0.00000

 Dipole moment (field-independent basis, Debye):
    X=              0.7466    Y=              5.0236    Z=              0.6260  Tot=              5.1172
 Quadrupole moment (field-independent basis, Debye-Ang):
   XX=            -87.1870   YY=           -102.8327   ZZ=            -93.5765
   XY=             11.3463   XZ=             -0.2032   YZ=             -0.3126

 Normal termination of Gaussian 16 at Thu May  6 01:21:38 2021.
