 Gaussian 16, Revision A.03,
 Gaussian 16:  EM64L-G16RevA.03 25-Dec-2016

 -------------
 #p 6-31g* mp2
 -------------

 ------------------------------------------------------
 Input file generated by CHIRIPA (05-May-2021 14:55:19)
 ------------------------------------------------------
 Symbolic Z-matrix:
 Charge =  0 Multiplicity = 1

                         Standard orientation:
 ---------------------------------------------------------------------
 Center     Atomic      Atomic             Coordinates (Angstroms)
 Number     Number       Type             X           Y           Z
 ---------------------------------------------------------------------
      1          6           0        5.667573   -1.081587    0.072550
      2          6           0        5.462130    0.269167   -0.227077
      3          6           0        4.167858    0.794439   -0.286215
      4          6           0        3.097153   -0.063379   -0.039177
      5          6           0        3.269391   -1.413559    0.261887
      6          6           0        4.572478   -1.917166    0.315648
      7          1           0        6.676419   -1.481216    0.116401
      8          1           0        6.310712    0.920430   -0.416316
      9          1           0        3.980178    1.836275   -0.515936
     10          1           0        2.403635   -2.038102    0.445820
     11          1           0        4.729027   -2.966586    0.548577
     12          7           0        1.722299    0.481235   -0.098937
     13          8           0        0.795763   -0.295330    0.122681
     14          8           0        1.597258    1.674356   -0.366264
     15          6           0       -4.028826    0.896253    0.243015
     16          6           0       -2.547154    1.159775   -0.027526
     17          6           0       -2.110967    2.564823    0.388859
     18          1           0       -4.631238    1.642592   -0.292727
     19          1           0       -4.230485    1.041684    1.313332
     20          1           0       -2.348068    1.012542   -1.096779
     21          1           0       -1.948206    0.412604    0.508769
     22          1           0       -2.281105    2.719657    1.459224
     23          1           0       -2.683239    3.323003   -0.155447
     24          1           0       -1.048384    2.731767    0.186604
     25          6           0       -4.479964   -0.504219   -0.167936
     26          6           0       -5.961635   -0.767742    0.102605
     27          6           0       -6.397822   -2.172789   -0.313781
     28          1           0       -4.278305   -0.649650   -1.238253
     29          1           0       -3.877551   -1.250559    0.367807
     30          1           0       -6.560583   -0.020570   -0.433690
     31          1           0       -6.160721   -0.620508    1.171858
     32          1           0       -5.825551   -2.930969    0.230526
     33          1           0       -6.227684   -2.327622   -1.384145
     34          1           0       -7.460405   -2.339733   -0.111525
 ---------------------------------------------------------------------

 SCF Done:  E(RHF) =  -669.536644192     A.U. after   15 cycles
 E2 =    -0.2092144967D+01 EUMP2 =    -0.67162878915934D+03

 The electronic state is 1-A.
 Alpha  occ. eigenvalues --  -20.61142 -20.61132 -15.86134 -11.31400 -11.27950
 Alpha  occ. eigenvalues --  -11.27946 -11.27676 -11.26942 -11.26932 -11.20707
 Alpha  occ. eigenvalues --  -11.20359 -11.20219 -11.19906 -11.19491 -11.18977
 Alpha  occ. eigenvalues --   -1.60169  -1.39730  -1.19557  -1.08973  -1.07090
 Alpha  occ. eigenvalues --   -1.04943  -1.02086  -0.95826  -0.94584  -0.86346
 Alpha  occ. eigenvalues --   -0.85625  -0.82661  -0.78242  -0.77721  -0.76769
 Alpha  occ. eigenvalues --   -0.72343  -0.71472  -0.70665  -0.65213  -0.64946
 Alpha  occ. eigenvalues --   -0.63746  -0.62290  -0.59509  -0.58042  -0.56151
 Alpha  occ. eigenvalues --   -0.55426  -0.53929  -0.53278  -0.53034  -0.51304
 Alpha  occ. eigenvalues --   -0.51022  -0.49141  -0.48989  -0.48606  -0.46495
 Alpha  occ. eigenvalues --   -0.45320  -0.45148  -0.44324  -0.44146  -0.42325
 Alpha  occ. eigenvalues --   -0.37532  -0.36540
 Alpha virt. eigenvalues --    0.04803   0.11117   0.16314   0.21250   0.24054
 Alpha virt. eigenvalues --    0.25813   0.27181   0.27904   0.28129   0.28859
 Alpha virt. eigenvalues --    0.29402   0.30838   0.32323   0.32703   0.32945

 Mulliken charges:
               1
     1  C   -0.170341
     2  C   -0.218597
     3  C   -0.170394
     4  C    0.157621
     5  C   -0.170566
     6  C   -0.218589
     7  H    0.226389
     8  H    0.224210
     9  H    0.276100
    10  H    0.275977
    11  H    0.224201
    12  N    0.490330
    13  O   -0.457937
    14  O   -0.458640
    15  C   -0.297906
    16  C   -0.298489
    17  C   -0.486168
    18  H    0.143898
    19  H    0.144454
    20  H    0.148543
    21  H    0.170387
    22  H    0.144728
    23  H    0.143803
    24  H    0.184857
    25  C   -0.296501
    26  C   -0.298371
    27  C   -0.474754
    28  H    0.147797
    29  H    0.149318
    30  H    0.150077
    31  H    0.149932
    32  H    0.153665
    33  H    0.153892
    34  H    0.157074
 Sum of Mulliken charges =  -0.00000

 Dipole moment (field-independent basis, Debye):
    X=              5.4436    Y=             -2.0036    Z=              0.1871  Tot=              5.8036
 Quadrupole moment (field-independent basis, Debye-Ang):
   XX=            -66.6359   YY=            -91.8906   ZZ=            -94.7445
   XY=             -4.7350   XZ=              0.1692   YZ=             -1.8707

 Normal termination of Gaussian 16 at Thu May  6 01:19:55 2021.
