 Gaussian 16, Revision A.03,
 Gaussian 16:  EM64L-G16RevA.03 25-Dec-2016

 -------------
 #p 6-31g* mp2
 -------------

 ------------------------------------------------------
 Input file generated by CHIRIPA (05-May-2021 14:57:22)
 ------------------------------------------------------
 Symbolic Z-matrix:
 Charge =  0 Multiplicity = 1

                         Standard orientation:
 ---------------------------------------------------------------------
 Center     Atomic      Atomic             Coordinates (Angstroms)
 Number     Number       Type             X           Y           Z
 ---------------------------------------------------------------------
      1          6           0        5.762371    1.049730    0.485870
      2          6           0        4.920395    1.724207   -0.404455
      3          6           0        3.666041    1.200100   -0.730734
      4          6           0        3.283901   -0.006078   -0.145591
      5          6           0        4.100240   -0.701714    0.744898
      6          6           0        5.350333   -0.158947    1.056699
      7          1           0        6.735128    1.464117    0.733707
      8          1           0        5.237764    2.663061   -0.849286
      9          1           0        2.994320    1.701401   -1.416960
     10          1           0        3.756209   -1.635716    1.172333
     11          1           0        6.002137   -0.684941    1.748454
     12          7           0        1.958228   -0.570804   -0.483344
     13          8           0        1.644915   -1.635048    0.045671
     14          8           0        1.257580    0.061501   -1.270694
     15          6           0       -5.449965    1.478807    0.437957
     16          6           0       -5.110738    1.059664   -0.852687
     17          6           0       -4.033607    0.192226   -1.057360
     18          6           0       -3.314103   -0.238371    0.056279
     19          6           0       -3.627408    0.161383    1.354480
     20          6           0       -4.708525    1.029122    1.535487
     21          1           0       -6.288254    2.152771    0.587761
     22          1           0       -5.684773    1.407283   -1.706906
     23          1           0       -3.749215   -0.148011   -2.045680
     24          1           0       -3.036459   -0.202132    2.186378
     25          1           0       -4.969691    1.352985    2.538956
     26          7           0       -2.171683   -1.156848   -0.147871
     27          8           0       -1.553606   -1.521861    0.849817
     28          8           0       -1.915963   -1.494346   -1.301708
 ---------------------------------------------------------------------

 SCF Done:  E(RHF) =  -868.334161354     A.U. after   16 cycles
 E2 =    -0.2601589685D+01 EUMP2 =    -0.87093575103897D+03

 The electronic state is 1-A.
 Alpha  occ. eigenvalues --  -20.59557 -20.59444 -20.59133 -20.59079 -15.84578
 Alpha  occ. eigenvalues --  -15.84195 -11.30405 -11.30122 -11.27046 -11.27009
 Alpha  occ. eigenvalues --  -11.26861 -11.26775 -11.26742 -11.26619 -11.26159
 Alpha  occ. eigenvalues --  -11.26135 -11.25920 -11.25897  -1.58566  -1.58148
 Alpha  occ. eigenvalues --   -1.38115  -1.37706  -1.18622  -1.18348  -1.07930
 Alpha  occ. eigenvalues --   -1.07635  -1.04093  -1.03840  -0.94688  -0.94369
 Alpha  occ. eigenvalues --   -0.85470  -0.85212  -0.81522  -0.81221  -0.76489
 Alpha  occ. eigenvalues --   -0.76163  -0.70815  -0.70383  -0.69952  -0.69730
 Alpha  occ. eigenvalues --   -0.69461  -0.69459  -0.64262  -0.64101  -0.63990
 Alpha  occ. eigenvalues --   -0.63853  -0.61437  -0.61185  -0.54584  -0.54330
 Alpha  occ. eigenvalues --   -0.52400  -0.52193  -0.52135  -0.51945  -0.47819
 Alpha  occ. eigenvalues --   -0.47533  -0.47099  -0.46819  -0.43460  -0.42932
 Alpha  occ. eigenvalues --   -0.36631  -0.36358  -0.35720  -0.35470
 Alpha virt. eigenvalues --    0.06046   0.06404   0.11927   0.12177   0.17462
 Alpha virt. eigenvalues --    0.17792   0.22004   0.22217   0.27882   0.28085
 Alpha virt. eigenvalues --    0.28937   0.29159   0.31517   0.31719   0.33203

 Mulliken charges:
               1
     1  C   -0.172442
     2  C   -0.218551
     3  C   -0.172244
     4  C    0.159575
     5  C   -0.171589
     6  C   -0.218612
     7  H    0.222527
     8  H    0.220291
     9  H    0.273652
    10  H    0.276908
    11  H    0.221210
    12  N    0.485990
    13  O   -0.442622
    14  O   -0.463866
    15  C   -0.172915
    16  C   -0.218708
    17  C   -0.170742
    18  C    0.161416
    19  C   -0.172407
    20  C   -0.218640
    21  H    0.221327
    22  H    0.219992
    23  H    0.275936
    24  H    0.273576
    25  H    0.219290
    26  N    0.489643
    27  O   -0.456764
    28  O   -0.451232
 Sum of Mulliken charges =  -0.00000

 Dipole moment (field-independent basis, Debye):
    X=              0.7276    Y=              4.8720    Z=              1.8275  Tot=              5.2541
 Quadrupole moment (field-independent basis, Debye-Ang):
   XX=            -51.6588   YY=           -104.4709   ZZ=            -99.1435
   XY=             -4.1729   XZ=              2.5815   YZ=             -3.0640

 Normal termination of Gaussian 16 at Thu May  6 04:56:22 2021.
