 Gaussian 16, Revision A.03,
 Gaussian 16:  EM64L-G16RevA.03 25-Dec-2016

 -------------
 #p 6-31g* mp2
 -------------

 ------------------------------------------------------
 Input file generated by CHIRIPA (05-May-2021 14:55:24)
 ------------------------------------------------------
 Symbolic Z-matrix:
 Charge =  0 Multiplicity = 1

                         Standard orientation:
 ---------------------------------------------------------------------
 Center     Atomic      Atomic             Coordinates (Angstroms)
 Number     Number       Type             X           Y           Z
 ---------------------------------------------------------------------
      1          6           0        0.959686    0.535074    1.560592
      2          6           0        0.808210   -0.206417    0.384255
      3          6           0        1.918979   -0.523034   -0.403459
      4          6           0        3.172130   -0.080103    0.016915
      5          6           0        3.355440    0.660301    1.183744
      6          6           0        2.230577    0.965307    1.955885
      7          1           0        0.091340    0.776520    2.166458
      8          1           0       -0.177571   -0.541862    0.074811
      9          1           0        1.830293   -1.095625   -1.318715
     10          1           0        4.350853    0.980774    1.466354
     11          1           0        2.351210    1.541310    2.868964
     12          7           0        4.355512   -0.409146   -0.808759
     13          8           0        5.448786   -0.007174   -0.416577
     14          8           0        4.167364   -1.062790   -1.832471
     15          6           0       -3.581530   -0.606348    0.153459
     16          6           0       -4.469064   -1.814071   -0.149319
     17          6           0       -3.997813   -3.085806    0.556658
     18          1           0       -2.549463   -0.833265   -0.147028
     19          1           0       -3.561160   -0.438064    1.239121
     20          1           0       -4.488862   -1.979182   -1.234198
     21          1           0       -5.499173   -1.584181    0.151748
     22          1           0       -3.995140   -2.945251    1.642402
     23          1           0       -2.979088   -3.342496    0.248581
     24          1           0       -4.646472   -3.936715    0.326318
     25          6           0       -4.039832    0.672582   -0.545130
     26          6           0       -3.152298    1.880304   -0.242351
     27          6           0       -3.623549    3.152041   -0.948329
     28          1           0       -4.060201    0.504298   -1.630791
     29          1           0       -5.071898    0.899498   -0.244642
     30          1           0       -2.122188    1.650415   -0.543419
     31          1           0       -3.132500    2.045415    0.842527
     32          1           0       -4.642273    3.408730   -0.640251
     33          1           0       -3.626222    3.011485   -2.034072
     34          1           0       -2.974890    4.002948   -0.717989
 ---------------------------------------------------------------------

 SCF Done:  E(RHF) =  -669.535659596     A.U. after   15 cycles
 E2 =    -0.2091628280D+01 EUMP2 =    -0.67162728787582D+03

 The electronic state is 1-A.
 Alpha  occ. eigenvalues --  -20.60733 -20.60727 -15.85786 -11.31142 -11.27715
 Alpha  occ. eigenvalues --  -11.27709 -11.27438 -11.26719 -11.26686 -11.22515
 Alpha  occ. eigenvalues --  -11.22509 -11.22408 -11.22251 -11.21805 -11.21753
 Alpha  occ. eigenvalues --   -1.59808  -1.39362  -1.19313  -1.09356  -1.08704
 Alpha  occ. eigenvalues --   -1.04716  -1.04350  -0.96794  -0.95542  -0.87804
 Alpha  occ. eigenvalues --   -0.86114  -0.82378  -0.80425  -0.79217  -0.77426
 Alpha  occ. eigenvalues --   -0.72004  -0.71132  -0.70410  -0.66025  -0.64962
 Alpha  occ. eigenvalues --   -0.64698  -0.62071  -0.61739  -0.60162  -0.58413
 Alpha  occ. eigenvalues --   -0.56084  -0.55201  -0.53451  -0.53238  -0.53041
 Alpha  occ. eigenvalues --   -0.52803  -0.50728  -0.48774  -0.48760  -0.48728
 Alpha  occ. eigenvalues --   -0.47464  -0.46703  -0.46641  -0.44770  -0.44638
 Alpha  occ. eigenvalues --   -0.37283  -0.36319
 Alpha virt. eigenvalues --    0.05109   0.11254   0.16602   0.19245   0.22712
 Alpha virt. eigenvalues --    0.23409   0.24386   0.25708   0.27201   0.28285
 Alpha virt. eigenvalues --    0.29746   0.30433   0.30964   0.31335   0.31517

 Mulliken charges:
               1
     1  C   -0.173747
     2  C   -0.226470
     3  C   -0.173620
     4  C    0.158940
     5  C   -0.171124
     6  C   -0.218726
     7  H    0.227079
     8  H    0.235637
     9  H    0.275766
    10  H    0.275417
    11  H    0.223210
    12  N    0.488041
    13  O   -0.460630
    14  O   -0.460600
    15  C   -0.304633
    16  C   -0.299595
    17  C   -0.476282
    18  H    0.143855
    19  H    0.148491
    20  H    0.154722
    21  H    0.155366
    22  H    0.155457
    23  H    0.153587
    24  H    0.164309
    25  C   -0.298168
    26  C   -0.302690
    27  C   -0.475919
    28  H    0.152754
    29  H    0.153428
    30  H    0.150188
    31  H    0.148573
    32  H    0.157115
    33  H    0.158045
    34  H    0.162223
 Sum of Mulliken charges =  -0.00000

 Dipole moment (field-independent basis, Debye):
    X=             -4.4083    Y=              1.1771    Z=              2.8742  Tot=              5.3925
 Quadrupole moment (field-independent basis, Debye-Ang):
   XX=           -118.6579   YY=            -94.9886   ZZ=            -92.4513
   XY=              5.8254   XZ=             11.0614   YZ=              2.1967

 Normal termination of Gaussian 16 at Wed May  5 20:47:06 2021.
