 Gaussian 16, Revision A.03,
 Gaussian 16:  EM64L-G16RevA.03 25-Dec-2016

 -------------
 #p 6-31g* mp2
 -------------

 ------------------------------------------------------
 Input file generated by CHIRIPA (05-May-2021 14:57:23)
 ------------------------------------------------------
 Symbolic Z-matrix:
 Charge =  0 Multiplicity = 1

                         Standard orientation:
 ---------------------------------------------------------------------
 Center     Atomic      Atomic             Coordinates (Angstroms)
 Number     Number       Type             X           Y           Z
 ---------------------------------------------------------------------
      1          6           0       -1.919995   -1.523513   -0.065170
      2          6           0       -2.915068   -1.696778   -1.032811
      3          6           0       -4.080866   -0.925885   -0.998342
      4          6           0       -4.219300    0.013303    0.022467
      5          6           0       -3.245890    0.209355    1.000899
      6          6           0       -2.088285   -0.572677    0.946813
      7          1           0       -1.017557   -2.126688   -0.099566
      8          1           0       -2.787076   -2.434456   -1.819891
      9          1           0       -4.867107   -1.039352   -1.734799
     10          1           0       -3.401974    0.952655    1.773272
     11          1           0       -1.317164   -0.435951    1.699623
     12          7           0       -5.449141    0.835309    0.069342
     13          8           0       -5.547045    1.656026    0.978999
     14          8           0       -6.291900    0.643314   -0.804461
     15          6           0        3.581963   -2.332445    0.374946
     16          6           0        2.511239   -1.435895    0.295786
     17          6           0        2.740264   -0.073691    0.080152
     18          6           0        4.058627    0.359476   -0.052415
     19          6           0        5.146496   -0.509052    0.021670
     20          6           0        4.893862   -1.866983    0.237878
     21          1           0        3.394881   -3.388979    0.542678
     22          1           0        1.491357   -1.794550    0.401865
     23          1           0        1.929945    0.642207    0.014648
     24          1           0        6.152165   -0.121720   -0.087970
     25          1           0        5.727351   -2.560969    0.298913
     26          7           0        4.313582    1.799318   -0.281000
     27          8           0        5.484348    2.155776   -0.394504
     28          8           0        3.337823    2.544148   -0.342334
 ---------------------------------------------------------------------

 SCF Done:  E(RHF) =  -868.336303426     A.U. after   16 cycles
 E2 =    -0.2599788415D+01 EUMP2 =    -0.87093609184169D+03

 The electronic state is 1-A.
 Alpha  occ. eigenvalues --  -20.61292 -20.61286 -20.61076 -20.61071 -15.86354
 Alpha  occ. eigenvalues --  -15.86135 -11.31870 -11.31661 -11.28527 -11.28440
 Alpha  occ. eigenvalues --  -11.28279 -11.28242 -11.28229 -11.28171 -11.27665
 Alpha  occ. eigenvalues --  -11.27464 -11.27377 -11.27325  -1.60365  -1.60147
 Alpha  occ. eigenvalues --   -1.39914  -1.39696  -1.20079  -1.19864  -1.09447
 Alpha  occ. eigenvalues --   -1.09263  -1.05522  -1.05282  -0.96247  -0.96065
 Alpha  occ. eigenvalues --   -0.86917  -0.86694  -0.83095  -0.82878  -0.78112
 Alpha  occ. eigenvalues --   -0.77869  -0.72567  -0.72353  -0.71692  -0.71470
 Alpha  occ. eigenvalues --   -0.71185  -0.71071  -0.65739  -0.65605  -0.65514
 Alpha  occ. eigenvalues --   -0.65285  -0.62880  -0.62610  -0.56067  -0.55864
 Alpha  occ. eigenvalues --   -0.53822  -0.53631  -0.53590  -0.53388  -0.49341
 Alpha  occ. eigenvalues --   -0.49313  -0.49126  -0.49094  -0.45286  -0.45065
 Alpha  occ. eigenvalues --   -0.38064  -0.37901  -0.37125  -0.36868
 Alpha virt. eigenvalues --    0.04454   0.04650   0.10519   0.10741   0.15880
 Alpha virt. eigenvalues --    0.16056   0.17548   0.22022   0.24660   0.26492
 Alpha virt. eigenvalues --    0.27754   0.28747   0.29932   0.31344   0.32132

 Mulliken charges:
               1
     1  C   -0.174531
     2  C   -0.217487
     3  C   -0.169763
     4  C    0.159574
     5  C   -0.168951
     6  C   -0.220475
     7  H    0.218709
     8  H    0.224852
     9  H    0.277723
    10  H    0.278648
    11  H    0.221237
    12  N    0.487941
    13  O   -0.458198
    14  O   -0.458846
    15  C   -0.171191
    16  C   -0.221565
    17  C   -0.172070
    18  C    0.159217
    19  C   -0.169429
    20  C   -0.218337
    21  H    0.226241
    22  H    0.215267
    23  H    0.276503
    24  H    0.278175
    25  H    0.225952
    26  N    0.488016
    27  O   -0.458281
    28  O   -0.458932
 Sum of Mulliken charges =  -0.00000

 Dipole moment (field-independent basis, Debye):
    X=              3.4362    Y=             -7.8290    Z=              0.5977  Tot=              8.5707
 Quadrupole moment (field-independent basis, Debye-Ang):
   XX=           -141.6573   YY=           -108.5533   ZZ=           -102.6526
   XY=             -8.9658   XZ=              5.6431   YZ=              2.8315

 Normal termination of Gaussian 16 at Thu May  6 16:17:15 2021.
