 Gaussian 16, Revision A.03,
 Gaussian 16:  EM64L-G16RevA.03 25-Dec-2016

 -------------
 #p 6-31g* mp2
 -------------

 ------------------------------------------------------
 Input file generated by CHIRIPA (05-May-2021 14:53:17)
 ------------------------------------------------------
 Symbolic Z-matrix:
 Charge =  0 Multiplicity = 1

                         Standard orientation:
 ---------------------------------------------------------------------
 Center     Atomic      Atomic             Coordinates (Angstroms)
 Number     Number       Type             X           Y           Z
 ---------------------------------------------------------------------
      1          6           0       -3.312056   -0.141371   -0.339441
      2          6           0       -2.822381   -1.584136   -0.468409
      3          6           0       -1.311587   -1.678628   -0.683733
      4          1           0       -3.033656    0.415887   -1.244373
      5          1           0       -2.790424    0.342032    0.498184
      6          1           0       -3.345793   -2.065093   -1.304672
      7          1           0       -3.102148   -2.138073    0.436854
      8          1           0       -0.773805   -1.223876    0.154474
      9          1           0       -1.018834   -1.150481   -1.596946
     10          1           0       -0.983107   -2.718793   -0.773278
     11          6           0       -4.820344   -0.030519   -0.123781
     12          6           0       -5.310019    1.412246    0.005186
     13          6           0       -6.820813    1.506738    0.220511
     14          1           0       -5.341976   -0.513922   -0.961407
     15          1           0       -5.098744   -0.587777    0.781151
     16          1           0       -5.030252    1.966183   -0.900076
     17          1           0       -4.786607    1.893203    0.841449
     18          1           0       -7.113565    0.978591    1.133724
     19          1           0       -7.358595    1.051986   -0.617697
     20          1           0       -7.149292    2.546903    0.310056
     21          6           0        4.612649    1.962474   -0.662709
     22          6           0        3.903040    2.101222    0.534673
     23          6           0        3.104329    1.057633    1.011676
     24          6           0        3.037898   -0.116089    0.262508
     25          6           0        3.732949   -0.284709   -0.934055
     26          6           0        4.525492    0.772050   -1.391966
     27          1           0        5.230711    2.778274   -1.025841
     28          1           0        3.968839    3.024580    1.103113
     29          1           0        2.544428    1.138239    1.935490
     30          1           0        3.647469   -1.217173   -1.478688
     31          1           0        5.075478    0.661487   -2.322200
     32          7           0        2.195603   -1.227861    0.757384
     33          8           0        2.153869   -2.251770    0.078777
     34          8           0        1.593096   -1.054308    1.814503
 ---------------------------------------------------------------------

 SCF Done:  E(RHF) =  -669.536157973     A.U. after   15 cycles
 E2 =    -0.2091611561D+01 EUMP2 =    -0.67162776953420D+03

 The electronic state is 1-A.
 Alpha  occ. eigenvalues --  -20.60919 -20.60889 -15.85906 -11.31247 -11.27814
 Alpha  occ. eigenvalues --  -11.27807 -11.27554 -11.26823 -11.26813 -11.21195
 Alpha  occ. eigenvalues --  -11.20834 -11.20737 -11.20687 -11.20619 -11.19736
 Alpha  occ. eigenvalues --   -1.59948  -1.39506  -1.19416  -1.08819  -1.07776
 Alpha  occ. eigenvalues --   -1.04815  -1.02802  -0.95663  -0.95230  -0.86249
 Alpha  occ. eigenvalues --   -0.86215  -0.82497  -0.78901  -0.77577  -0.77549
 Alpha  occ. eigenvalues --   -0.72140  -0.71263  -0.70528  -0.65073  -0.64820
 Alpha  occ. eigenvalues --   -0.64411  -0.62163  -0.60197  -0.58641  -0.56840
 Alpha  occ. eigenvalues --   -0.55325  -0.54523  -0.53146  -0.52908  -0.51887
 Alpha  occ. eigenvalues --   -0.51672  -0.49282  -0.48905  -0.48801  -0.47198
 Alpha  occ. eigenvalues --   -0.45946  -0.45113  -0.45059  -0.44859  -0.43025
 Alpha  occ. eigenvalues --   -0.37392  -0.36416
 Alpha virt. eigenvalues --    0.04953   0.11239   0.16435   0.21368   0.23488
 Alpha virt. eigenvalues --    0.25118   0.27259   0.27296   0.28069   0.28218
 Alpha virt. eigenvalues --    0.28833   0.30912   0.32092   0.32378   0.32493

 Mulliken charges:
               1
     1  C   -0.297965
     2  C   -0.300111
     3  C   -0.479411
     4  H    0.145725
     5  H    0.150174
     6  H    0.147423
     7  H    0.153359
     8  H    0.165883
     9  H    0.144106
    10  H    0.169728
    11  C   -0.297657
    12  C   -0.298988
    13  C   -0.475305
    14  H    0.148186
    15  H    0.150081
    16  H    0.150063
    17  H    0.151117
    18  H    0.155276
    19  H    0.154580
    20  H    0.158341
    21  C   -0.170599
    22  C   -0.218568
    23  C   -0.170872
    24  C    0.159503
    25  C   -0.170614
    26  C   -0.218647
    27  H    0.225823
    28  H    0.223650
    29  H    0.275540
    30  H    0.275919
    31  H    0.223667
    32  N    0.487868
    33  O   -0.456702
    34  O   -0.460575
 Sum of Mulliken charges =  -0.00000

 Dipole moment (field-independent basis, Debye):
    X=              3.2261    Y=              3.8195    Z=             -1.6670  Tot=              5.2702
 Quadrupole moment (field-independent basis, Debye-Ang):
   XX=            -78.9481   YY=            -94.4969   ZZ=            -91.9446
   XY=             11.3782   XZ=             -5.7893   YZ=              3.6199

 Normal termination of Gaussian 16 at Wed May  5 23:37:11 2021.
