 Gaussian 16, Revision A.03,
 Gaussian 16:  EM64L-G16RevA.03 25-Dec-2016

 -------------
 #p 6-31g* mp2
 -------------

 ------------------------------------------------------
 Input file generated by CHIRIPA (05-May-2021 14:51:13)
 ------------------------------------------------------
 Symbolic Z-matrix:
 Charge =  0 Multiplicity = 1

                         Standard orientation:
 ---------------------------------------------------------------------
 Center     Atomic      Atomic             Coordinates (Angstroms)
 Number     Number       Type             X           Y           Z
 ---------------------------------------------------------------------
      1          6           0       -3.013965    1.367380    0.176393
      2          6           0       -1.917019    2.338472   -0.261413
      3          6           0       -2.188954    3.776301    0.181861
      4          1           0       -3.976662    1.702931   -0.232954
      5          1           0       -3.110109    1.402808    1.270421
      6          1           0       -1.822024    2.300202   -1.354175
      7          1           0       -0.956791    2.000464    0.148865
      8          1           0       -2.262853    3.835730    1.272553
      9          1           0       -3.133002    4.137171   -0.239027
     10          1           0       -1.392400    4.453595   -0.141613
     11          6           0       -2.756341   -0.073971   -0.259345
     12          6           0       -3.853287   -1.045063    0.178461
     13          6           0       -3.581352   -2.482892   -0.264813
     14          1           0       -2.660196   -0.109399   -1.353373
     15          1           0       -1.793644   -0.409522    0.150002
     16          1           0       -4.813515   -0.707055   -0.231817
     17          1           0       -3.948281   -1.006793    1.271223
     18          1           0       -2.637303   -2.843762    0.156075
     19          1           0       -3.507453   -2.542321   -1.355505
     20          1           0       -4.377905   -3.160186    0.058661
     21          6           0        2.355459   -1.080176   -0.297579
     22          6           0        1.399209   -1.751601    0.688707
     23          6           0        0.345260   -2.615400   -0.004719
     24          1           0        1.776075   -0.462801   -0.997655
     25          1           0        2.852190   -1.853325   -0.899987
     26          1           0        0.905457   -0.977490    1.290018
     27          1           0        1.980954   -2.367298    1.386635
     28          1           0        0.821583   -3.408250   -0.590471
     29          1           0       -0.260025   -2.010544   -0.687638
     30          1           0       -0.327690   -3.085853    0.718933
     31          6           0        3.414847   -0.213232    0.380532
     32          6           0        4.371096    0.458192   -0.605754
     33          6           0        5.425045    1.321991    0.087670
     34          1           0        2.918115    0.559916    0.982938
     35          1           0        3.994231   -0.830608    1.080608
     36          1           0        3.789351    1.073890   -1.303683
     37          1           0        4.864849   -0.315920   -1.207066
     38          1           0        6.030331    0.717135    0.770590
     39          1           0        4.948723    2.114842    0.673424
     40          1           0        6.097996    1.792444   -0.635981
 ---------------------------------------------------------------------

 SCF Done:  E(RHF) =  -470.731948714     A.U. after   11 cycles
 E2 =    -0.1584237565D+01 EUMP2 =    -0.47231618627878D+03

 The electronic state is 1-A.
 Alpha  occ. eigenvalues --  -11.21650 -11.21649 -11.21613 -11.21557 -11.21428
 Alpha  occ. eigenvalues --  -11.21401 -11.21368 -11.21328 -11.21106 -11.21081
 Alpha  occ. eigenvalues --  -11.21043 -11.20917  -1.08477  -1.08412  -1.03591
 Alpha  occ. eigenvalues --   -1.03486  -0.96022  -0.95950  -0.87056  -0.86958
 Alpha  occ. eigenvalues --   -0.79717  -0.79503  -0.78307  -0.78213  -0.65233
 Alpha  occ. eigenvalues --   -0.64942  -0.61100  -0.60820  -0.59438  -0.59288
 Alpha  occ. eigenvalues --   -0.57666  -0.57531  -0.55328  -0.55247  -0.52824
 Alpha  occ. eigenvalues --   -0.52652  -0.52442  -0.52266  -0.50005  -0.49890
 Alpha  occ. eigenvalues --   -0.47962  -0.47854  -0.46763  -0.46537  -0.45921
 Alpha  occ. eigenvalues --   -0.45771  -0.45702  -0.45449  -0.43788  -0.43754
 Alpha virt. eigenvalues --    0.20508   0.23209   0.23651   0.24530   0.26097
 Alpha virt. eigenvalues --    0.26537   0.26964   0.27578   0.28279   0.29348
 Alpha virt. eigenvalues --    0.29848   0.31347   0.31697   0.31896   0.32303

 Mulliken charges:
               1
     1  C   -0.297614
     2  C   -0.299812
     3  C   -0.475663
     4  H    0.149792
     5  H    0.149409
     6  H    0.151840
     7  H    0.150801
     8  H    0.155286
     9  H    0.155491
    10  H    0.160157
    11  C   -0.305800
    12  C   -0.298660
    13  C   -0.482235
    14  H    0.148458
    15  H    0.158241
    16  H    0.151523
    17  H    0.151180
    18  H    0.163873
    19  H    0.154219
    20  H    0.159155
    21  C   -0.298949
    22  C   -0.301405
    23  C   -0.482509
    24  H    0.150578
    25  H    0.149803
    26  H    0.151408
    27  H    0.152320
    28  H    0.155891
    29  H    0.162305
    30  H    0.160834
    31  C   -0.298239
    32  C   -0.299713
    33  C   -0.475722
    34  H    0.149220
    35  H    0.149684
    36  H    0.152181
    37  H    0.151981
    38  H    0.155170
    39  H    0.155196
    40  H    0.160328
 Sum of Mulliken charges =  -0.00000

 Dipole moment (field-independent basis, Debye):
    X=              0.0326    Y=             -0.0173    Z=             -0.0104  Tot=              0.0384
 Quadrupole moment (field-independent basis, Debye-Ang):
   XX=            -85.0160   YY=            -85.7101   ZZ=            -84.2160
   XY=             -1.1399   XZ=              0.1618   YZ=             -0.6979

 Normal termination of Gaussian 16 at Thu May  6 03:58:26 2021.
