 Gaussian 16, Revision A.03,
 Gaussian 16:  EM64L-G16RevA.03 25-Dec-2016

 -------------
 #p 6-31g* mp2
 -------------

 ------------------------------------------------------
 Input file generated by CHIRIPA (05-May-2021 14:55:22)
 ------------------------------------------------------
 Symbolic Z-matrix:
 Charge =  0 Multiplicity = 1

                         Standard orientation:
 ---------------------------------------------------------------------
 Center     Atomic      Atomic             Coordinates (Angstroms)
 Number     Number       Type             X           Y           Z
 ---------------------------------------------------------------------
      1          6           0        0.129805   -1.763346    1.436239
      2          6           0       -0.102597   -2.115458    0.102625
      3          6           0       -1.165473   -1.548176   -0.606624
      4          6           0       -1.979808   -0.628010    0.051741
      5          6           0       -1.774027   -0.256843    1.379589
      6          6           0       -0.705180   -0.836796    2.069349
      7          1           0        0.957792   -2.208946    1.979631
      8          1           0        0.544237   -2.834753   -0.391607
      9          1           0       -1.368127   -1.802813   -1.639827
     10          1           0       -2.435956    0.463089    1.845383
     11          1           0       -0.527076   -0.561459    3.104971
     12          7           0       -3.108188   -0.020747   -0.688793
     13          8           0       -3.811153    0.787468   -0.086078
     14          8           0       -3.268281   -0.364489   -1.857916
     15          6           0        1.979093    1.445315    0.245948
     16          6           0        1.169049    2.515555   -0.486446
     17          6           0        0.541061    3.535304    0.464100
     18          1           0        1.327107    0.927561    0.962741
     19          1           0        2.767866    1.932189    0.836020
     20          1           0        0.382908    2.026716   -1.076051
     21          1           0        1.822992    3.030692   -1.201714
     22          1           0        1.314810    4.049397    1.043428
     23          1           0       -0.133455    3.039717    1.169806
     24          1           0       -0.033394    4.291128   -0.080501
     25          6           0        2.613132    0.418607   -0.690851
     26          6           0        3.423174   -0.651634    0.041544
     27          6           0        4.051162   -1.671382   -0.909002
     28          1           0        1.824358   -0.068268   -1.280922
     29          1           0        3.265116    0.936361   -1.407643
     30          1           0        2.769232   -1.166771    0.756812
     31          1           0        4.209316   -0.162795    0.631150
     32          1           0        4.725680   -1.175795   -1.614707
     33          1           0        3.277413   -2.185475   -1.488331
     34          1           0        4.625619   -2.427207   -0.364401
 ---------------------------------------------------------------------

 SCF Done:  E(RHF) =  -669.533422229     A.U. after   15 cycles
 E2 =    -0.2097376431D+01 EUMP2 =    -0.67163079865988D+03

 The electronic state is 1-A.
 Alpha  occ. eigenvalues --  -20.60902 -20.60897 -15.85961 -11.31400 -11.27970
 Alpha  occ. eigenvalues --  -11.27965 -11.27677 -11.26973 -11.26959 -11.22190
 Alpha  occ. eigenvalues --  -11.21799 -11.21657 -11.21620 -11.21419 -11.21087
 Alpha  occ. eigenvalues --   -1.59978  -1.39529  -1.19587  -1.09016  -1.08656
 Alpha  occ. eigenvalues --   -1.04993  -1.03852  -0.96288  -0.95787  -0.87317
 Alpha  occ. eigenvalues --   -0.86373  -0.82616  -0.79946  -0.78493  -0.77642
 Alpha  occ. eigenvalues --   -0.72175  -0.71306  -0.70702  -0.65508  -0.65216
 Alpha  occ. eigenvalues --   -0.64911  -0.62339  -0.61245  -0.59689  -0.57893
 Alpha  occ. eigenvalues --   -0.55652  -0.55494  -0.53279  -0.53062  -0.52987
 Alpha  occ. eigenvalues --   -0.52695  -0.50268  -0.48940  -0.48926  -0.48260
 Alpha  occ. eigenvalues --   -0.46993  -0.46001  -0.45985  -0.44918  -0.44052
 Alpha  occ. eigenvalues --   -0.37408  -0.36507
 Alpha virt. eigenvalues --    0.04824   0.10926   0.16180   0.19860   0.23101
 Alpha virt. eigenvalues --    0.23465   0.25892   0.26424   0.27401   0.27971
 Alpha virt. eigenvalues --    0.28634   0.29629   0.31325   0.31673   0.32312

 Mulliken charges:
               1
     1  C   -0.170028
     2  C   -0.215053
     3  C   -0.172397
     4  C    0.159748
     5  C   -0.170105
     6  C   -0.221841
     7  H    0.228048
     8  H    0.226969
     9  H    0.276764
    10  H    0.276860
    11  H    0.225386
    12  N    0.487810
    13  O   -0.459523
    14  O   -0.459861
    15  C   -0.305267
    16  C   -0.299690
    17  C   -0.475157
    18  H    0.155896
    19  H    0.146495
    20  H    0.153658
    21  H    0.152029
    22  H    0.153341
    23  H    0.151304
    24  H    0.164685
    25  C   -0.297337
    26  C   -0.301650
    27  C   -0.476195
    28  H    0.149897
    29  H    0.150757
    30  H    0.142357
    31  H    0.153650
    32  H    0.160472
    33  H    0.148952
    34  H    0.159028
 Sum of Mulliken charges =  -0.00000

 Dipole moment (field-independent basis, Debye):
    X=              3.8236    Y=             -2.1529    Z=              2.6093  Tot=              5.1053
 Quadrupole moment (field-independent basis, Debye-Ang):
   XX=           -110.7179   YY=            -91.5417   ZZ=            -91.6396
   XY=              1.9675   XZ=             -6.0447   YZ=              0.0197

 Normal termination of Gaussian 16 at Wed May  5 17:30:59 2021.
