 Gaussian 16, Revision A.03,
 Gaussian 16:  EM64L-G16RevA.03 25-Dec-2016

 -------------
 #p 6-31g* mp2
 -------------

 ------------------------------------------------------
 Input file generated by CHIRIPA (05-May-2021 14:55:20)
 ------------------------------------------------------
 Symbolic Z-matrix:
 Charge =  0 Multiplicity = 1

                         Standard orientation:
 ---------------------------------------------------------------------
 Center     Atomic      Atomic             Coordinates (Angstroms)
 Number     Number       Type             X           Y           Z
 ---------------------------------------------------------------------
      1          6           0       -4.365968    2.122669    0.253292
      2          6           0       -3.088478    2.186461   -0.312810
      3          6           0       -2.393057    1.015782   -0.629744
      4          6           0       -3.007867   -0.207215   -0.365973
      5          6           0       -4.279396   -0.303582    0.197248
      6          6           0       -4.956310    0.880042    0.506068
      7          1           0       -4.899000    3.037109    0.496342
      8          1           0       -2.627548    3.150108   -0.510222
      9          1           0       -1.402949    1.036217   -1.068707
     10          1           0       -4.712913   -1.278874    0.382417
     11          1           0       -5.948308    0.827466    0.945635
     12          7           0       -2.281453   -1.453413   -0.697202
     13          8           0       -2.845021   -2.518481   -0.455008
     14          8           0       -1.162276   -1.341518   -1.192742
     15          6           0        3.343876   -0.381916    0.428941
     16          6           0        2.568385   -0.153810    1.726849
     17          6           0        1.251401   -0.929212    1.772663
     18          1           0        2.714720   -0.089472   -0.422871
     19          1           0        3.545508   -1.455982    0.314396
     20          1           0        2.369480    0.919661    1.839603
     21          1           0        3.199530   -0.446650    2.575680
     22          1           0        1.434532   -2.005049    1.685259
     23          1           0        0.599766   -0.630973    0.945000
     24          1           0        0.713331   -0.751635    2.709043
     25          6           0        4.662752    0.386592    0.368197
     26          6           0        5.438244    0.158486   -0.929711
     27          6           0        6.755229    0.933889   -0.975524
     28          1           0        4.461120    1.460659    0.482743
     29          1           0        5.291909    0.094149    1.220010
     30          1           0        4.807098    0.451327   -1.778542
     31          1           0        5.637148   -0.914985   -1.042464
     32          1           0        7.406863    0.635650   -0.147860
     33          1           0        6.572097    2.009724   -0.888120
     34          1           0        7.293297    0.756312   -1.911905
 ---------------------------------------------------------------------

 SCF Done:  E(RHF) =  -669.536100774     A.U. after   15 cycles
 E2 =    -0.2091270981D+01 EUMP2 =    -0.67162737175523D+03

 The electronic state is 1-A.
 Alpha  occ. eigenvalues --  -20.60911 -20.60906 -15.85927 -11.31262 -11.27832
 Alpha  occ. eigenvalues --  -11.27820 -11.27564 -11.26840 -11.26829 -11.21239
 Alpha  occ. eigenvalues --  -11.21068 -11.20985 -11.20800 -11.20795 -11.20249
 Alpha  occ. eigenvalues --   -1.59959  -1.39519  -1.19431  -1.08832  -1.07956
 Alpha  occ. eigenvalues --   -1.04831  -1.03044  -0.95676  -0.95475  -0.86490
 Alpha  occ. eigenvalues --   -0.86231  -0.82510  -0.79115  -0.77754  -0.77557
 Alpha  occ. eigenvalues --   -0.72156  -0.71268  -0.70542  -0.65089  -0.64837
 Alpha  occ. eigenvalues --   -0.64595  -0.62182  -0.60449  -0.58865  -0.57083
 Alpha  occ. eigenvalues --   -0.55335  -0.54763  -0.53157  -0.52925  -0.52191
 Alpha  occ. eigenvalues --   -0.51882  -0.49431  -0.48912  -0.48908  -0.47431
 Alpha  occ. eigenvalues --   -0.46187  -0.45349  -0.45246  -0.44736  -0.43308
 Alpha  occ. eigenvalues --   -0.37407  -0.36430
 Alpha virt. eigenvalues --    0.04944   0.11187   0.16411   0.21229   0.23253
 Alpha virt. eigenvalues --    0.24646   0.26721   0.27367   0.27730   0.28272
 Alpha virt. eigenvalues --    0.28743   0.30602   0.31679   0.32176   0.32326

 Mulliken charges:
               1
     1  C   -0.170651
     2  C   -0.218411
     3  C   -0.171286
     4  C    0.159316
     5  C   -0.170786
     6  C   -0.218472
     7  H    0.225877
     8  H    0.223664
     9  H    0.275137
    10  H    0.275828
    11  H    0.223746
    12  N    0.488525
    13  O   -0.458339
    14  O   -0.459050
    15  C   -0.297744
    16  C   -0.299515
    17  C   -0.481138
    18  H    0.152475
    19  H    0.152493
    20  H    0.145469
    21  H    0.149690
    22  H    0.160156
    23  H    0.164646
    24  H    0.153345
    25  C   -0.297870
    26  C   -0.299269
    27  C   -0.475367
    28  H    0.146044
    29  H    0.148566
    30  H    0.151906
    31  H    0.153269
    32  H    0.154689
    33  H    0.153394
    34  H    0.159664
 Sum of Mulliken charges =  -0.00000

 Dipole moment (field-independent basis, Debye):
    X=             -2.7427    Y=              4.2829    Z=              1.0707  Tot=              5.1973
 Quadrupole moment (field-independent basis, Debye-Ang):
   XX=            -77.6703   YY=            -95.0397   ZZ=            -96.0230
   XY=            -11.6505   XZ=             -3.9874   YZ=             -3.1674

 Normal termination of Gaussian 16 at Thu May  6 19:05:54 2021.
