 Gaussian 16, Revision A.03,
 Gaussian 16:  EM64L-G16RevA.03 25-Dec-2016

 -------------
 #p 6-31g* mp2
 -------------

 ------------------------------------------------------
 Input file generated by CHIRIPA (05-May-2021 14:51:08)
 ------------------------------------------------------
 Symbolic Z-matrix:
 Charge =  0 Multiplicity = 1

                         Standard orientation:
 ---------------------------------------------------------------------
 Center     Atomic      Atomic             Coordinates (Angstroms)
 Number     Number       Type             X           Y           Z
 ---------------------------------------------------------------------
      1          6           0       -4.362985   -0.269340    0.057134
      2          6           0       -4.440173   -1.669390   -0.552690
      3          6           0       -5.525062   -2.534760    0.089140
      4          1           0       -4.174308   -0.356111    1.135938
      5          1           0       -5.338701    0.224341   -0.050817
      6          1           0       -3.464202   -2.159766   -0.444856
      7          1           0       -4.628498   -1.579272   -1.630200
      8          1           0       -6.509276   -2.070503   -0.030812
      9          1           0       -5.338365   -2.654296    1.161267
     10          1           0       -5.562781   -3.531284   -0.361834
     11          6           0       -3.283106    0.607688   -0.574065
     12          6           0       -3.205918    2.007739    0.035759
     13          6           0       -2.121030    2.873109   -0.606071
     14          1           0       -2.307391    0.114007   -0.466114
     15          1           0       -3.471784    0.694459   -1.652868
     16          1           0       -3.017593    1.917620    1.113269
     17          1           0       -4.181889    2.498115   -0.072075
     18          1           0       -2.307727    2.992644   -1.678198
     19          1           0       -1.136815    2.408852   -0.486118
     20          1           0       -2.083311    3.869632   -0.155096
     21          6           0        4.401364   -0.648126    0.118521
     22          6           0        5.568576    0.009541   -0.618414
     23          6           0        6.717826   -0.961347   -0.891169
     24          1           0        4.763883   -1.065413    1.067942
     25          1           0        4.033063   -1.496166   -0.475262
     26          1           0        5.933672    0.856938   -0.024073
     27          1           0        5.203198    0.425477   -1.566101
     28          1           0        6.375210   -1.801447   -1.503907
     29          1           0        7.109834   -1.367536    0.046883
     30          1           0        7.541517   -0.470364   -1.418736
     31          6           0        3.244727    0.309778    0.398409
     32          6           0        2.077515   -0.347890    1.135344
     33          6           0        0.928266    0.622999    1.408100
     34          1           0        3.613028    1.157818    0.992193
     35          1           0        2.882209    0.727065   -0.551010
     36          1           0        2.442894   -0.763826    2.083032
     37          1           0        1.712420   -1.195286    0.541004
     38          1           0        0.536258    1.029187    0.470048
     39          1           0        1.270882    1.463098    2.020838
     40          1           0        0.104574    0.132016    1.935668
 ---------------------------------------------------------------------

 SCF Done:  E(RHF) =  -470.733262819     A.U. after   11 cycles
 E2 =    -0.1582647441D+01 EUMP2 =    -0.47231591025998D+03

 The electronic state is 1-A.
 Alpha  occ. eigenvalues --  -11.21660 -11.21618 -11.21585 -11.21543 -11.21438
 Alpha  occ. eigenvalues --  -11.21377 -11.21369 -11.21307 -11.21150 -11.21084
 Alpha  occ. eigenvalues --  -11.21059 -11.20994  -1.08467  -1.08392  -1.03578
 Alpha  occ. eigenvalues --   -1.03486  -0.96033  -0.95934  -0.87054  -0.86949
 Alpha  occ. eigenvalues --   -0.79655  -0.79538  -0.78280  -0.78203  -0.65126
 Alpha  occ. eigenvalues --   -0.65000  -0.61073  -0.60805  -0.59390  -0.59311
 Alpha  occ. eigenvalues --   -0.57673  -0.57527  -0.55424  -0.55136  -0.52718
 Alpha  occ. eigenvalues --   -0.52634  -0.52520  -0.52305  -0.50083  -0.49784
 Alpha  occ. eigenvalues --   -0.48012  -0.47811  -0.46760  -0.46482  -0.45846
 Alpha  occ. eigenvalues --   -0.45760  -0.45725  -0.45586  -0.43824  -0.43746
 Alpha virt. eigenvalues --    0.21060   0.23048   0.23639   0.24799   0.26025
 Alpha virt. eigenvalues --    0.26705   0.27008   0.27520   0.27973   0.29070
 Alpha virt. eigenvalues --    0.30343   0.31463   0.31732   0.31793   0.32263

 Mulliken charges:
               1
     1  C   -0.298204
     2  C   -0.299615
     3  C   -0.475670
     4  H    0.149526
     5  H    0.149477
     6  H    0.151775
     7  H    0.151837
     8  H    0.155182
     9  H    0.155132
    10  H    0.160144
    11  C   -0.299951
    12  C   -0.298913
    13  C   -0.481407
    14  H    0.151007
    15  H    0.149195
    16  H    0.152558
    17  H    0.151582
    18  H    0.154479
    19  H    0.160832
    20  H    0.160233
    21  C   -0.298348
    22  C   -0.299718
    23  C   -0.475736
    24  H    0.149700
    25  H    0.149601
    26  H    0.151999
    27  H    0.152100
    28  H    0.155222
    29  H    0.155183
    30  H    0.160353
    31  C   -0.298483
    32  C   -0.299479
    33  C   -0.481950
    34  H    0.149755
    35  H    0.149845
    36  H    0.152193
    37  H    0.151886
    38  H    0.160463
    39  H    0.156050
    40  H    0.160167
 Sum of Mulliken charges =  -0.00000

 Dipole moment (field-independent basis, Debye):
    X=              0.0371    Y=              0.0018    Z=              0.0129  Tot=              0.0393
 Quadrupole moment (field-independent basis, Debye-Ang):
   XX=            -85.5613   YY=            -85.5593   ZZ=            -83.6956
   XY=             -0.1206   XZ=              1.3551   YZ=              0.1428

 Normal termination of Gaussian 16 at Thu May  6 10:00:01 2021.
