 Gaussian 16, Revision A.03,
 Gaussian 16:  EM64L-G16RevA.03 25-Dec-2016

 -------------
 #p 6-31g* mp2
 -------------

 ------------------------------------------------------
 Input file generated by CHIRIPA (05-May-2021 14:51:13)
 ------------------------------------------------------
 Symbolic Z-matrix:
 Charge =  0 Multiplicity = 1

                         Standard orientation:
 ---------------------------------------------------------------------
 Center     Atomic      Atomic             Coordinates (Angstroms)
 Number     Number       Type             X           Y           Z
 ---------------------------------------------------------------------
      1          6           0       -3.211002    0.124047   -0.108459
      2          6           0       -2.652852   -1.228657   -0.551905
      3          6           0       -3.716362   -2.326843   -0.578911
      4          1           0       -3.657840    0.019744    0.889740
      5          1           0       -4.024811    0.417035   -0.786152
      6          1           0       -1.839415   -1.518355    0.125599
      7          1           0       -2.207121   -1.121079   -1.549085
      8          1           0       -4.524397   -2.063706   -1.269157
      9          1           0       -4.154602   -2.463240    0.415042
     10          1           0       -3.295697   -3.285315   -0.898649
     11          6           0       -2.159816    1.232068   -0.076414
     12          6           0       -2.717966    2.584772    0.367032
     13          6           0       -1.654457    3.682958    0.394038
     14          1           0       -1.346007    0.939080    0.601279
     15          1           0       -1.712978    1.336370   -1.074614
     16          1           0       -3.163698    2.477193    1.364211
     17          1           0       -3.531403    2.874470   -0.310472
     18          1           0       -1.216216    3.819355   -0.599915
     19          1           0       -0.846422    3.419821    1.084284
     20          1           0       -2.075122    4.641430    0.713776
     21          6           0        3.095454   -0.272363   -0.408270
     22          6           0        3.999766    0.769338    0.251323
     23          6           0        4.813718    1.572922   -0.763335
     24          1           0        3.711256   -0.955071   -1.009639
     25          1           0        2.415149    0.233045   -1.107656
     26          1           0        4.677229    0.262274    0.950284
     27          1           0        3.381762    1.449529    0.851346
     28          1           0        4.151346    2.104545   -1.454163
     29          1           0        5.454176    0.910544   -1.354663
     30          1           0        5.453151    2.311729   -0.270234
     31          6           0        2.275363   -1.083751    0.593143
     32          6           0        1.371053   -2.125453   -0.066450
     33          6           0        0.557101   -2.929037    0.948208
     34          1           0        2.955669   -1.589160    1.292530
     35          1           0        1.659562   -0.401044    1.194512
     36          1           0        1.989057   -2.805644   -0.666472
     37          1           0        0.693589   -1.618389   -0.765410
     38          1           0       -0.083357   -2.266658    1.539536
     39          1           0        1.219471   -3.460659    1.639037
     40          1           0       -0.082332   -3.667844    0.455108
 ---------------------------------------------------------------------

 SCF Done:  E(RHF) =  -470.732781382     A.U. after   11 cycles
 E2 =    -0.1583946115D+01 EUMP2 =    -0.47231672749645D+03

 The electronic state is 1-A.
 Alpha  occ. eigenvalues --  -11.21649 -11.21587 -11.21563 -11.21524 -11.21453
 Alpha  occ. eigenvalues --  -11.21394 -11.21371 -11.21334 -11.21121 -11.21096
 Alpha  occ. eigenvalues --  -11.21058 -11.21056  -1.08476  -1.08401  -1.03593
 Alpha  occ. eigenvalues --   -1.03479  -0.96026  -0.95959  -0.87032  -0.86984
 Alpha  occ. eigenvalues --   -0.79616  -0.79584  -0.78292  -0.78219  -0.65224
 Alpha  occ. eigenvalues --   -0.64940  -0.61173  -0.60745  -0.59449  -0.59255
 Alpha  occ. eigenvalues --   -0.57673  -0.57519  -0.55390  -0.55189  -0.52704
 Alpha  occ. eigenvalues --   -0.52653  -0.52447  -0.52377  -0.50075  -0.49820
 Alpha  occ. eigenvalues --   -0.48010  -0.47810  -0.46740  -0.46501  -0.45948
 Alpha  occ. eigenvalues --   -0.45823  -0.45598  -0.45554  -0.43803  -0.43775
 Alpha virt. eigenvalues --    0.20259   0.23166   0.23574   0.24578   0.25673
 Alpha virt. eigenvalues --    0.26040   0.27102   0.27993   0.28195   0.29593
 Alpha virt. eigenvalues --    0.30563   0.31200   0.31592   0.31731   0.32435

 Mulliken charges:
               1
     1  C   -0.297669
     2  C   -0.310510
     3  C   -0.475183
     4  H    0.149373
     5  H    0.149473
     6  H    0.165908
     7  H    0.151110
     8  H    0.154960
     9  H    0.155033
    10  H    0.159946
    11  C   -0.299330
    12  C   -0.299591
    13  C   -0.475676
    14  H    0.148904
    15  H    0.149372
    16  H    0.152154
    17  H    0.152344
    18  H    0.155107
    19  H    0.154787
    20  H    0.160584
    21  C   -0.298351
    22  C   -0.299600
    23  C   -0.475703
    24  H    0.149527
    25  H    0.150101
    26  H    0.151780
    27  H    0.151933
    28  H    0.155314
    29  H    0.155070
    30  H    0.160232
    31  C   -0.298485
    32  C   -0.303518
    33  C   -0.478717
    34  H    0.149384
    35  H    0.149308
    36  H    0.151933
    37  H    0.156743
    38  H    0.154108
    39  H    0.156559
    40  H    0.161286
 Sum of Mulliken charges =  -0.00000

 Dipole moment (field-independent basis, Debye):
    X=             -0.0029    Y=             -0.0107    Z=             -0.0027  Tot=              0.0114
 Quadrupole moment (field-independent basis, Debye-Ang):
   XX=            -85.1035   YY=            -85.4737   ZZ=            -84.2303
   XY=             -1.6088   XZ=              0.5477   YZ=              0.0708

 Normal termination of Gaussian 16 at Wed May  5 23:11:41 2021.
