 Gaussian 16, Revision A.03,
 Gaussian 16:  EM64L-G16RevA.03 25-Dec-2016

 -------------
 #p 6-31g* mp2
 -------------

 ------------------------------------------------------
 Input file generated by CHIRIPA (05-May-2021 14:57:24)
 ------------------------------------------------------
 Symbolic Z-matrix:
 Charge =  0 Multiplicity = 1

                         Standard orientation:
 ---------------------------------------------------------------------
 Center     Atomic      Atomic             Coordinates (Angstroms)
 Number     Number       Type             X           Y           Z
 ---------------------------------------------------------------------
      1          6           0        5.911915   -0.369393   -1.060312
      2          6           0        4.877847   -1.289294   -1.262813
      3          6           0        3.664016   -1.154196   -0.582438
      4          6           0        3.517834   -0.082536    0.297030
      5          6           0        4.529326    0.850413    0.520147
      6          6           0        5.734667    0.695647   -0.171046
      7          1           0        6.851551   -0.481980   -1.593046
      8          1           0        5.012687   -2.117392   -1.952825
      9          1           0        2.846907   -1.851856   -0.720359
     10          1           0        4.365268    1.665636    1.214349
     11          1           0        6.536001    1.411573   -0.011806
     12          7           0        2.237300    0.070897    1.023039
     13          8           0        2.133540    1.023699    1.792480
     14          8           0        1.361623   -0.764550    0.808898
     15          6           0       -4.726548   -2.169044    0.254432
     16          6           0       -3.337896   -2.001237    0.257516
     17          6           0       -2.774088   -0.744255    0.019475
     18          6           0       -3.632431    0.327942   -0.219122
     19          6           0       -5.019842    0.192706   -0.228728
     20          6           0       -5.561617   -1.073469    0.011748
     21          1           0       -5.155970   -3.149069    0.440294
     22          1           0       -2.686935   -2.850286    0.445691
     23          1           0       -1.702449   -0.586147    0.016096
     24          1           0       -5.643079    1.057940   -0.419426
     25          1           0       -6.640418   -1.200835    0.008749
     26          7           0       -3.047215    1.663520   -0.472413
     27          8           0       -3.825094    2.592204   -0.679987
     28          8           0       -1.821726    1.756371   -0.458573
 ---------------------------------------------------------------------

 SCF Done:  E(RHF) =  -868.338929281     A.U. after   16 cycles
 E2 =    -0.2598894298D+01 EUMP2 =    -0.87093782357891D+03

 The electronic state is 1-A.
 Alpha  occ. eigenvalues --  -20.60820 -20.60751 -20.59818 -20.59770 -15.85827
 Alpha  occ. eigenvalues --  -15.84849 -11.31135 -11.30198 -11.27729 -11.27672
 Alpha  occ. eigenvalues --  -11.27440 -11.26873 -11.26724 -11.26689 -11.26630
 Alpha  occ. eigenvalues --  -11.26622 -11.25901 -11.25773  -1.59824  -1.58877
 Alpha  occ. eigenvalues --   -1.39390  -1.38425  -1.19300  -1.18404  -1.08705
 Alpha  occ. eigenvalues --   -1.07822  -1.04702  -1.03794  -0.95553  -0.94641
 Alpha  occ. eigenvalues --   -0.86104  -0.85202  -0.82398  -0.81464  -0.77446
 Alpha  occ. eigenvalues --   -0.76487  -0.72066  -0.71128  -0.71059  -0.70420
 Alpha  occ. eigenvalues --   -0.70202  -0.69519  -0.64965  -0.64712  -0.64059
 Alpha  occ. eigenvalues --   -0.63808  -0.62056  -0.61107  -0.55211  -0.54352
 Alpha  occ. eigenvalues --   -0.53024  -0.52801  -0.52155  -0.51880  -0.48819
 Alpha  occ. eigenvalues --   -0.48776  -0.47847  -0.47807  -0.44801  -0.43832
 Alpha  occ. eigenvalues --   -0.37274  -0.36436  -0.36300  -0.35404
 Alpha virt. eigenvalues --    0.05085   0.06025   0.11356   0.12241   0.16565
 Alpha virt. eigenvalues --    0.17486   0.21449   0.22365   0.27371   0.28123
 Alpha virt. eigenvalues --    0.28427   0.29325   0.31009   0.31867   0.32548

 Mulliken charges:
               1
     1  C   -0.170527
     2  C   -0.218349
     3  C   -0.170021
     4  C    0.159749
     5  C   -0.169568
     6  C   -0.218435
     7  H    0.225564
     8  H    0.222566
     9  H    0.272077
    10  H    0.277294
    11  H    0.224047
    12  N    0.492693
    13  O   -0.452116
    14  O   -0.471628
    15  C   -0.171220
    16  C   -0.221375
    17  C   -0.175740
    18  C    0.156180
    19  C   -0.171532
    20  C   -0.219801
    21  H    0.221827
    22  H    0.223850
    23  H    0.295586
    24  H    0.272657
    25  H    0.219578
    26  N    0.487272
    27  O   -0.466040
    28  O   -0.454586
 Sum of Mulliken charges =  -0.00000

 Dipole moment (field-independent basis, Debye):
    X=              2.8768    Y=             -5.1291    Z=             -1.5793  Tot=              6.0892
 Quadrupole moment (field-independent basis, Debye-Ang):
   XX=            -55.1861   YY=           -104.8434   ZZ=           -107.1593
   XY=             14.2542   XZ=             -9.2666   YZ=              3.4990

 Normal termination of Gaussian 16 at Thu May  6 11:23:01 2021.
