 Gaussian 16, Revision A.03,
 Gaussian 16:  EM64L-G16RevA.03 25-Dec-2016

 -------------
 #p 6-31g* mp2
 -------------

 ------------------------------------------------------
 Input file generated by CHIRIPA (05-May-2021 14:57:22)
 ------------------------------------------------------
 Symbolic Z-matrix:
 Charge =  0 Multiplicity = 1

                         Standard orientation:
 ---------------------------------------------------------------------
 Center     Atomic      Atomic             Coordinates (Angstroms)
 Number     Number       Type             X           Y           Z
 ---------------------------------------------------------------------
      1          6           0       -5.369914    1.287340    0.838407
      2          6           0       -5.578378    0.465566   -0.274136
      3          6           0       -4.580304   -0.413877   -0.704224
      4          6           0       -3.380510   -0.445784    0.004836
      5          6           0       -3.142704    0.360371    1.116974
      6          6           0       -4.154884    1.232217    1.529193
      7          1           0       -6.150721    1.967562    1.165569
      8          1           0       -6.520990    0.506246   -0.812534
      9          1           0       -4.715124   -1.061184   -1.562266
     10          1           0       -2.192566    0.297391    1.633393
     11          1           0       -3.990204    1.869253    2.393549
     12          7           0       -2.316427   -1.372790   -0.441021
     13          8           0       -1.268268   -1.381965    0.200786
     14          8           0       -2.550705   -2.072648   -1.423848
     15          6           0        5.060292   -1.498197    0.867346
     16          6           0        5.556634   -0.208003    0.653887
     17          6           0        4.732118    0.792334    0.130393
     18          6           0        3.410443    0.466169   -0.169742
     19          6           0        2.886563   -0.809878    0.031614
     20          6           0        3.729188   -1.794494    0.556077
     21          1           0        5.707830   -2.269177    1.274384
     22          1           0        6.589969    0.024968    0.894698
     23          1           0        5.090460    1.799459   -0.044847
     24          1           0        1.852062   -1.011945   -0.218175
     25          1           0        3.341006   -2.795606    0.720805
     26          7           0        2.527979    1.516860   -0.724454
     27          8           0        1.367315    1.204037   -0.980653
     28          8           0        3.013677    2.633320   -0.892535
 ---------------------------------------------------------------------

 SCF Done:  E(RHF) =  -868.339700489     A.U. after   16 cycles
 E2 =    -0.2598674877D+01 EUMP2 =    -0.87093837536579D+03

 The electronic state is 1-A.
 Alpha  occ. eigenvalues --  -20.60642 -20.60631 -20.60090 -20.60058 -15.85671
 Alpha  occ. eigenvalues --  -15.85126 -11.30871 -11.30383 -11.27446 -11.27415
 Alpha  occ. eigenvalues --  -11.27179 -11.27049 -11.26781 -11.26768 -11.26440
 Alpha  occ. eigenvalues --  -11.26414 -11.26053 -11.25901  -1.59683  -1.59162
 Alpha  occ. eigenvalues --   -1.39245  -1.38710  -1.19035  -1.18577  -1.08467
 Alpha  occ. eigenvalues --   -1.08012  -1.04424  -1.03949  -0.95331  -0.94845
 Alpha  occ. eigenvalues --   -0.85832  -0.85360  -0.82177  -0.81668  -0.77231
 Alpha  occ. eigenvalues --   -0.76702  -0.71925  -0.71352  -0.70957  -0.70488
 Alpha  occ. eigenvalues --   -0.70165  -0.69683  -0.64706  -0.64442  -0.64229
 Alpha  occ. eigenvalues --   -0.63953  -0.61778  -0.61257  -0.54954  -0.54502
 Alpha  occ. eigenvalues --   -0.52749  -0.52527  -0.52321  -0.52025  -0.48672
 Alpha  occ. eigenvalues --   -0.48646  -0.48121  -0.48084  -0.44676  -0.44138
 Alpha  occ. eigenvalues --   -0.37011  -0.36605  -0.36012  -0.35557
 Alpha virt. eigenvalues --    0.05298   0.05793   0.11646   0.12087   0.16792
 Alpha virt. eigenvalues --    0.17278   0.21708   0.22264   0.27648   0.28132
 Alpha virt. eigenvalues --    0.28559   0.29248   0.31254   0.31762   0.32760

 Mulliken charges:
               1
     1  C   -0.170146
     2  C   -0.218680
     3  C   -0.170138
     4  C    0.159714
     5  C   -0.166474
     6  C   -0.218358
     7  H    0.224975
     8  H    0.222578
     9  H    0.274775
    10  H    0.276020
    11  H    0.223328
    12  N    0.492845
    13  O   -0.467008
    14  O   -0.460513
    15  C   -0.170999
    16  C   -0.219881
    17  C   -0.171844
    18  C    0.154892
    19  C   -0.177407
    20  C   -0.221551
    21  H    0.222935
    22  H    0.220012
    23  H    0.272399
    24  H    0.297999
    25  H    0.226343
    26  N    0.486873
    27  O   -0.456665
    28  O   -0.466028
 Sum of Mulliken charges =  -0.00000

 Dipole moment (field-independent basis, Debye):
    X=             -0.9371    Y=             -0.5248    Z=              3.4976  Tot=              3.6588
 Quadrupole moment (field-independent basis, Debye-Ang):
   XX=            -55.6963   YY=           -109.8654   ZZ=           -103.9373
   XY=            -17.5102   XZ=              3.5105   YZ=              2.5345

 Normal termination of Gaussian 16 at Fri May  7 00:13:06 2021.
