 Gaussian 16, Revision A.03,
 Gaussian 16:  EM64L-G16RevA.03 25-Dec-2016

 -------------
 #p 6-31g* mp2
 -------------

 ------------------------------------------------------
 Input file generated by CHIRIPA (05-May-2021 14:55:23)
 ------------------------------------------------------
 Symbolic Z-matrix:
 Charge =  0 Multiplicity = 1

                         Standard orientation:
 ---------------------------------------------------------------------
 Center     Atomic      Atomic             Coordinates (Angstroms)
 Number     Number       Type             X           Y           Z
 ---------------------------------------------------------------------
      1          6           0       -1.647968    2.916915    0.148799
      2          6           0       -2.625863    2.484580   -0.753049
      3          6           0       -3.027711    1.145735   -0.776708
      4          6           0       -2.428020    0.262306    0.119515
      5          6           0       -1.451131    0.662530    1.029898
      6          6           0       -1.064752    2.006116    1.035830
      7          1           0       -1.341811    3.958804    0.160293
      8          1           0       -3.080519    3.189697   -1.443080
      9          1           0       -3.782480    0.784103   -1.464432
     10          1           0       -1.016051   -0.063778    1.705621
     11          1           0       -0.305066    2.339050    1.737313
     12          7           0       -2.845251   -1.157579    0.103851
     13          8           0       -2.301604   -1.916115    0.903669
     14          8           0       -3.708023   -1.485063   -0.707947
     15          6           0        3.297754    0.042558   -0.372437
     16          6           0        4.675637    0.348457    0.215651
     17          6           0        5.218293    1.707984   -0.225942
     18          1           0        3.358385    0.076195   -1.468858
     19          1           0        2.595579    0.833235   -0.073818
     20          1           0        5.374676   -0.443290   -0.082841
     21          1           0        4.611762    0.313901    1.310796
     22          1           0        4.543401    2.511793    0.085531
     23          1           0        5.310650    1.750299   -1.316025
     24          1           0        6.204169    1.906282    0.206014
     25          6           0        2.741941   -1.313138    0.059871
     26          6           0        1.364058   -1.619037   -0.528218
     27          6           0        0.821402   -2.978564   -0.086624
     28          1           0        3.444116   -2.103815   -0.238748
     29          1           0        2.681309   -1.346773    1.156291
     30          1           0        1.427934   -1.584479   -1.623362
     31          1           0        0.665019   -0.827290   -0.229725
     32          1           0        0.729045   -3.020879    1.003459
     33          1           0        1.496294   -3.782371   -0.398097
     34          1           0       -0.164474   -3.176862   -0.518580
 ---------------------------------------------------------------------

 SCF Done:  E(RHF) =  -669.535143137     A.U. after   15 cycles
 E2 =    -0.2093814685D+01 EUMP2 =    -0.67162895782243D+03

 The electronic state is 1-A.
 Alpha  occ. eigenvalues --  -20.60934 -20.60902 -15.85940 -11.31291 -11.27866
 Alpha  occ. eigenvalues --  -11.27861 -11.27603 -11.26881 -11.26860 -11.21739
 Alpha  occ. eigenvalues --  -11.21456 -11.21296 -11.21255 -11.21163 -11.20129
 Alpha  occ. eigenvalues --   -1.59980  -1.39535  -1.19475  -1.08865  -1.08356
 Alpha  occ. eigenvalues --   -1.04879  -1.03341  -0.95794  -0.95670  -0.86767
 Alpha  occ. eigenvalues --   -0.86272  -0.82538  -0.79435  -0.78154  -0.77589
 Alpha  occ. eigenvalues --   -0.72172  -0.71311  -0.70581  -0.65132  -0.65037
 Alpha  occ. eigenvalues --   -0.64849  -0.62234  -0.60741  -0.59170  -0.57357
 Alpha  occ. eigenvalues --   -0.55374  -0.55061  -0.53230  -0.52960  -0.52389
 Alpha  occ. eigenvalues --   -0.52181  -0.49728  -0.48937  -0.48915  -0.47725
 Alpha  occ. eigenvalues --   -0.46507  -0.45678  -0.45624  -0.44900  -0.43546
 Alpha  occ. eigenvalues --   -0.37422  -0.36422
 Alpha virt. eigenvalues --    0.04902   0.11091   0.16369   0.20835   0.22950
 Alpha virt. eigenvalues --    0.24223   0.26306   0.27257   0.27770   0.28080
 Alpha virt. eigenvalues --    0.28678   0.30785   0.31537   0.31830   0.32258

 Mulliken charges:
               1
     1  C   -0.170218
     2  C   -0.218279
     3  C   -0.170524
     4  C    0.161165
     5  C   -0.172674
     6  C   -0.218997
     7  H    0.226265
     8  H    0.223981
     9  H    0.275986
    10  H    0.276878
    11  H    0.224053
    12  N    0.487855
    13  O   -0.457862
    14  O   -0.459597
    15  C   -0.296863
    16  C   -0.299431
    17  C   -0.474869
    18  H    0.150472
    19  H    0.142979
    20  H    0.153742
    21  H    0.150269
    22  H    0.151034
    23  H    0.155890
    24  H    0.160613
    25  C   -0.297350
    26  C   -0.307455
    27  C   -0.472493
    28  H    0.150953
    29  H    0.145923
    30  H    0.150355
    31  H    0.148709
    32  H    0.156196
    33  H    0.148532
    34  H    0.174759
 Sum of Mulliken charges =  -0.00000

 Dipole moment (field-independent basis, Debye):
    X=              1.2505    Y=              4.9389    Z=              0.0471  Tot=              5.0950
 Quadrupole moment (field-independent basis, Debye-Ang):
   XX=           -100.5529   YY=            -92.9687   ZZ=            -91.8012
   XY=            -13.2486   XZ=              2.5404   YZ=              0.2950

 Normal termination of Gaussian 16 at Thu May  6 11:02:00 2021.
