 Gaussian 16, Revision A.03,
 Gaussian 16:  EM64L-G16RevA.03 25-Dec-2016

 -------------
 #p 6-31g* mp2
 -------------

 ------------------------------------------------------
 Input file generated by CHIRIPA (05-May-2021 14:55:19)
 ------------------------------------------------------
 Symbolic Z-matrix:
 Charge =  0 Multiplicity = 1

                         Standard orientation:
 ---------------------------------------------------------------------
 Center     Atomic      Atomic             Coordinates (Angstroms)
 Number     Number       Type             X           Y           Z
 ---------------------------------------------------------------------
      1          6           0       -2.829201   -1.865817    0.996271
      2          6           0       -2.869576   -1.600117   -0.376425
      3          6           0       -2.589518   -0.318647   -0.860110
      4          6           0       -2.271336    0.677950    0.061218
      5          6           0       -2.222912    0.444492    1.434696
      6          6           0       -2.506567   -0.844465    1.895865
      7          1           0       -3.048153   -2.864202    1.363264
      8          1           0       -3.119836   -2.391370   -1.077377
      9          1           0       -2.613542   -0.085363   -1.917663
     10          1           0       -1.970258    1.253720    2.109036
     11          1           0       -2.474453   -1.047920    2.962457
     12          7           0       -1.972947    2.038548   -0.438919
     13          8           0       -1.695315    2.899271    0.393374
     14          8           0       -2.022353    2.218498   -1.653750
     15          6           0        3.350199    0.080148   -0.231789
     16          6           0        4.612015    0.118108    0.630977
     17          6           0        5.361223    1.446692    0.524462
     18          1           0        3.624319    0.265189   -1.279436
     19          1           0        2.685155    0.902182    0.067165
     20          1           0        5.273867   -0.704591    0.331419
     21          1           0        4.334882   -0.067233    1.676664
     22          1           0        4.721630    2.276240    0.842853
     23          1           0        5.665948    1.635260   -0.510036
     24          1           0        6.259864    1.452040    1.149182
     25          6           0        2.590316   -1.241638   -0.135946
     26          6           0        1.328500   -1.279597   -0.998711
     27          6           0        0.579291   -2.608181   -0.892197
     28          1           0        3.255361   -2.063671   -0.434899
     29          1           0        2.316195   -1.426677    0.911701
     30          1           0        1.605632   -1.094255   -2.044399
     31          1           0        0.666648   -0.456899   -0.699154
     32          1           0        0.274566   -2.796750    0.142301
     33          1           0        1.218886   -3.437728   -1.210588
     34          1           0       -0.319350   -2.613530   -1.516917
 ---------------------------------------------------------------------

 SCF Done:  E(RHF) =  -669.534558581     A.U. after   15 cycles
 E2 =    -0.2093893544D+01 EUMP2 =    -0.67162845212463D+03

 The electronic state is 1-A.
 Alpha  occ. eigenvalues --  -20.60829 -20.60821 -15.85883 -11.31262 -11.27822
 Alpha  occ. eigenvalues --  -11.27807 -11.27547 -11.26853 -11.26823 -11.21597
 Alpha  occ. eigenvalues --  -11.21475 -11.21370 -11.21235 -11.21212 -11.20871
 Alpha  occ. eigenvalues --   -1.59905  -1.39457  -1.19439  -1.08828  -1.08363
 Alpha  occ. eigenvalues --   -1.04845  -1.03483  -0.95946  -0.95658  -0.86975
 Alpha  occ. eigenvalues --   -0.86230  -0.82491  -0.79554  -0.78162  -0.77537
 Alpha  occ. eigenvalues --   -0.72098  -0.71235  -0.70529  -0.65087  -0.65000
 Alpha  occ. eigenvalues --   -0.64844  -0.62192  -0.60909  -0.59360  -0.57575
 Alpha  occ. eigenvalues --   -0.55328  -0.55307  -0.53181  -0.52938  -0.52504
 Alpha  occ. eigenvalues --   -0.52356  -0.49885  -0.48860  -0.48852  -0.47873
 Alpha  occ. eigenvalues --   -0.46601  -0.45707  -0.45627  -0.44855  -0.43755
 Alpha  occ. eigenvalues --   -0.37344  -0.36373
 Alpha virt. eigenvalues --    0.04970   0.11196   0.16379   0.21067   0.22890
 Alpha virt. eigenvalues --    0.24284   0.26561   0.26640   0.27413   0.28215
 Alpha virt. eigenvalues --    0.28379   0.30324   0.31358   0.31861   0.32290

 Mulliken charges:
               1
     1  C   -0.170585
     2  C   -0.212887
     3  C   -0.171063
     4  C    0.159839
     5  C   -0.172656
     6  C   -0.218793
     7  H    0.226198
     8  H    0.223867
     9  H    0.275962
    10  H    0.275681
    11  H    0.223729
    12  N    0.487618
    13  O   -0.460716
    14  O   -0.459738
    15  C   -0.299396
    16  C   -0.299442
    17  C   -0.476058
    18  H    0.151150
    19  H    0.153629
    20  H    0.150711
    21  H    0.150259
    22  H    0.157869
    23  H    0.155878
    24  H    0.159208
    25  C   -0.298009
    26  C   -0.301380
    27  C   -0.471732
    28  H    0.148508
    29  H    0.147158
    30  H    0.153498
    31  H    0.153990
    32  H    0.152271
    33  H    0.152901
    34  H    0.152534
 Sum of Mulliken charges =  -0.00000

 Dipole moment (field-independent basis, Debye):
    X=             -1.1218    Y=             -4.7180    Z=              1.7645  Tot=              5.1605
 Quadrupole moment (field-independent basis, Debye-Ang):
   XX=            -90.7018   YY=           -102.3193   ZZ=            -89.6251
   XY=             10.1427   XZ=             -3.8278   YZ=              2.7207

 Normal termination of Gaussian 16 at Thu May  6 12:22:02 2021.
