 Gaussian 16, Revision A.03,
 Gaussian 16:  EM64L-G16RevA.03 25-Dec-2016

 -------------
 #p 6-31g* mp2
 -------------

 ------------------------------------------------------
 Input file generated by CHIRIPA (05-May-2021 14:55:22)
 ------------------------------------------------------
 Symbolic Z-matrix:
 Charge =  0 Multiplicity = 1

                         Standard orientation:
 ---------------------------------------------------------------------
 Center     Atomic      Atomic             Coordinates (Angstroms)
 Number     Number       Type             X           Y           Z
 ---------------------------------------------------------------------
      1          6           0        2.691911   -2.525234    0.469484
      2          6           0        3.779362   -1.661094    0.634509
      3          6           0        3.660160   -0.302821    0.325588
      4          6           0        2.433369    0.159509   -0.148252
      5          6           0        1.331598   -0.676385   -0.323383
      6          6           0        1.473647   -2.030993   -0.008094
      7          1           0        2.793384   -3.578950    0.711934
      8          1           0        4.726684   -2.042145    1.005218
      9          1           0        4.485866    0.388288    0.443894
     10          1           0        0.399934   -0.267205   -0.694855
     11          1           0        0.627424   -2.699776   -0.137245
     12          7           0        2.295082    1.595512   -0.478664
     13          8           0        1.203577    1.978064   -0.894487
     14          8           0        3.280815    2.311309   -0.315561
     15          6           0       -3.357913    0.828894    0.052701
     16          6           0       -2.387238    1.808688    0.712838
     17          6           0       -2.829052    3.265425    0.569619
     18          1           0       -3.455706    1.080891   -1.012136
     19          1           0       -4.354904    0.956002    0.496826
     20          1           0       -1.392064    1.678811    0.268567
     21          1           0       -2.291596    1.554212    1.776187
     22          1           0       -3.810950    3.417175    1.029457
     23          1           0       -2.906307    3.542483   -0.486729
     24          1           0       -2.120851    3.948687    1.048643
     25          6           0       -2.929859   -0.631362    0.187418
     26          6           0       -3.900534   -1.611154   -0.472719
     27          6           0       -3.458719   -3.067892   -0.329500
     28          1           0       -1.932867   -0.758468   -0.256707
     29          1           0       -2.832065   -0.883358    1.252256
     30          1           0       -3.996175   -1.356679   -1.536067
     31          1           0       -4.895707   -1.481277   -0.028448
     32          1           0       -3.381465   -3.344949    0.726849
     33          1           0       -2.476821   -3.219642   -0.789337
     34          1           0       -4.166921   -3.751154   -0.808523
 ---------------------------------------------------------------------

 SCF Done:  E(RHF) =  -669.535783219     A.U. after   15 cycles
 E2 =    -0.2092955058D+01 EUMP2 =    -0.67162873827639D+03

 The electronic state is 1-A.
 Alpha  occ. eigenvalues --  -20.60913 -20.60904 -15.85935 -11.31220 -11.27786
 Alpha  occ. eigenvalues --  -11.27763 -11.27516 -11.26791 -11.26767 -11.21967
 Alpha  occ. eigenvalues --  -11.21757 -11.21661 -11.21265 -11.21031 -11.20431
 Alpha  occ. eigenvalues --   -1.59967  -1.39526  -1.19389  -1.08800  -1.08502
 Alpha  occ. eigenvalues --   -1.04782  -1.03479  -0.95983  -0.95649  -0.86998
 Alpha  occ. eigenvalues --   -0.86186  -0.82488  -0.79628  -0.78284  -0.77504
 Alpha  occ. eigenvalues --   -0.72165  -0.71276  -0.70512  -0.65184  -0.65048
 Alpha  occ. eigenvalues --   -0.64762  -0.62129  -0.60857  -0.59407  -0.57554
 Alpha  occ. eigenvalues --   -0.55353  -0.55241  -0.53114  -0.52894  -0.52629
 Alpha  occ. eigenvalues --   -0.52394  -0.49947  -0.48948  -0.48910  -0.47910
 Alpha  occ. eigenvalues --   -0.46690  -0.45799  -0.45664  -0.44812  -0.43759
 Alpha  occ. eigenvalues --   -0.37368  -0.36373
 Alpha virt. eigenvalues --    0.04944   0.11247   0.16431   0.19087   0.23176
 Alpha virt. eigenvalues --    0.23477   0.24873   0.26565   0.27076   0.28467
 Alpha virt. eigenvalues --    0.29547   0.31108   0.31593   0.32084   0.32710

 Mulliken charges:
               1
     1  C   -0.170701
     2  C   -0.218790
     3  C   -0.170478
     4  C    0.159240
     5  C   -0.176953
     6  C   -0.222259
     7  H    0.226030
     8  H    0.223575
     9  H    0.275508
    10  H    0.283861
    11  H    0.226048
    12  N    0.489604
    13  O   -0.462446
    14  O   -0.458884
    15  C   -0.298203
    16  C   -0.312597
    17  C   -0.473879
    18  H    0.151696
    19  H    0.149281
    20  H    0.172409
    21  H    0.147221
    22  H    0.150059
    23  H    0.157803
    24  H    0.164979
    25  C   -0.300109
    26  C   -0.299415
    27  C   -0.475827
    28  H    0.137893
    29  H    0.150636
    30  H    0.154255
    31  H    0.155302
    32  H    0.155451
    33  H    0.146388
    34  H    0.163303
 Sum of Mulliken charges =  -0.00000

 Dipole moment (field-independent basis, Debye):
    X=              0.5233    Y=             -4.9277    Z=              1.1504  Tot=              5.0872
 Quadrupole moment (field-independent basis, Debye-Ang):
   XX=            -87.3691   YY=            -97.8509   ZZ=            -94.8897
   XY=            -11.2825   XZ=              3.9901   YZ=              0.9525

 Normal termination of Gaussian 16 at Wed May  5 16:00:18 2021.
