 Gaussian 16, Revision A.03,
 Gaussian 16:  EM64L-G16RevA.03 25-Dec-2016

 -------------
 #p 6-31g* mp2
 -------------

 ------------------------------------------------------
 Input file generated by CHIRIPA (05-May-2021 14:53:16)
 ------------------------------------------------------
 Symbolic Z-matrix:
 Charge =  0 Multiplicity = 1

                         Standard orientation:
 ---------------------------------------------------------------------
 Center     Atomic      Atomic             Coordinates (Angstroms)
 Number     Number       Type             X           Y           Z
 ---------------------------------------------------------------------
      1          6           0       -2.500268    1.005831   -0.530024
      2          6           0       -1.674149    2.240163   -0.166792
      3          6           0       -1.851123    3.384676   -1.165073
      4          1           0       -2.216020    0.664961   -1.534989
      5          1           0       -3.561377    1.286151   -0.583538
      6          1           0       -0.615060    1.957297   -0.112622
      7          1           0       -1.960260    2.578021    0.837503
      8          1           0       -2.899905    3.695040   -1.213353
      9          1           0       -1.547062    3.070789   -2.168877
     10          1           0       -1.251693    4.256909   -0.886229
     11          6           0       -2.333920   -0.146879    0.458569
     12          6           0       -3.160039   -1.381211    0.095337
     13          6           0       -2.983065   -2.525724    1.093618
     14          1           0       -1.272811   -0.427199    0.512083
     15          1           0       -2.618168    0.193991    1.463534
     16          1           0       -2.873927   -1.719069   -0.908958
     17          1           0       -4.219127   -1.098345    0.041167
     18          1           0       -3.287126   -2.211837    2.097422
     19          1           0       -1.934282   -2.836087    1.141898
     20          1           0       -3.582494   -3.397957    0.814774
     21          6           0        2.272239    1.267507    1.938104
     22          6           0        1.635266    0.043706    2.168534
     23          6           0        1.417305   -0.852232    1.117660
     24          6           0        1.851242   -0.490504   -0.156758
     25          6           0        2.488754    0.721322   -0.418192
     26          6           0        2.696202    1.601820    0.647751
     27          1           0        2.437472    1.957496    2.760302
     28          1           0        1.304943   -0.218574    3.169604
     29          1           0        0.926724   -1.806256    1.267947
     30          1           0        2.806798    0.954860   -1.427017
     31          1           0        3.191149    2.551548    0.465849
     32          7           0        1.626062   -1.430821   -1.277248
     33          8           0        2.017848   -1.088569   -2.390804
     34          8           0        1.062042   -2.492287   -1.020717
 ---------------------------------------------------------------------

 SCF Done:  E(RHF) =  -669.535175914     A.U. after   15 cycles
 E2 =    -0.2094810533D+01 EUMP2 =    -0.67162998644625D+03

 The electronic state is 1-A.
 Alpha  occ. eigenvalues --  -20.60918 -20.60910 -15.85962 -11.31311 -11.27897
 Alpha  occ. eigenvalues --  -11.27869 -11.27618 -11.26902 -11.26868 -11.21542
 Alpha  occ. eigenvalues --  -11.21302 -11.21243 -11.21166 -11.21089 -11.20882
 Alpha  occ. eigenvalues --   -1.59987  -1.39540  -1.19504  -1.08885  -1.08283
 Alpha  occ. eigenvalues --   -1.04901  -1.03391  -0.95862  -0.95723  -0.86882
 Alpha  occ. eigenvalues --   -0.86294  -0.82551  -0.79459  -0.78125  -0.77595
 Alpha  occ. eigenvalues --   -0.72178  -0.71317  -0.70600  -0.65148  -0.64985
 Alpha  occ. eigenvalues --   -0.64825  -0.62247  -0.60776  -0.59235  -0.57480
 Alpha  occ. eigenvalues --   -0.55388  -0.55166  -0.53312  -0.52978  -0.52536
 Alpha  occ. eigenvalues --   -0.52298  -0.49815  -0.48940  -0.48934  -0.47790
 Alpha  occ. eigenvalues --   -0.46486  -0.45627  -0.45534  -0.44901  -0.43644
 Alpha  occ. eigenvalues --   -0.37447  -0.36416
 Alpha virt. eigenvalues --    0.04904   0.11073   0.16416   0.20740   0.22879
 Alpha virt. eigenvalues --    0.23844   0.25997   0.27128   0.27616   0.27711
 Alpha virt. eigenvalues --    0.28895   0.30273   0.31394   0.31915   0.31977

 Mulliken charges:
               1
     1  C   -0.299065
     2  C   -0.303467
     3  C   -0.475625
     4  H    0.153904
     5  H    0.149094
     6  H    0.154893
     7  H    0.147899
     8  H    0.155556
     9  H    0.157426
    10  H    0.156029
    11  C   -0.304319
    12  C   -0.299067
    13  C   -0.477170
    14  H    0.153066
    15  H    0.144091
    16  H    0.160883
    17  H    0.150063
    18  H    0.149872
    19  H    0.156191
    20  H    0.162762
    21  C   -0.170009
    22  C   -0.215607
    23  C   -0.176999
    24  C    0.161813
    25  C   -0.172175
    26  C   -0.217852
    27  H    0.226511
    28  H    0.224833
    29  H    0.278556
    30  H    0.276219
    31  H    0.224408
    32  N    0.488337
    33  O   -0.459728
    34  O   -0.461325
 Sum of Mulliken charges =  -0.00000

 Dipole moment (field-independent basis, Debye):
    X=              0.9258    Y=              3.2369    Z=              3.8881  Tot=              5.1432
 Quadrupole moment (field-independent basis, Debye-Ang):
   XX=            -90.9166   YY=            -97.2334   ZZ=            -94.4450
   XY=              7.4977   XZ=              5.6385   YZ=             -3.8234

 Normal termination of Gaussian 16 at Thu May  6 15:32:36 2021.
