 Gaussian 16, Revision A.03,
 Gaussian 16:  EM64L-G16RevA.03 25-Dec-2016

 -------------
 #p 6-31g* mp2
 -------------

 ------------------------------------------------------
 Input file generated by CHIRIPA (05-May-2021 14:57:23)
 ------------------------------------------------------
 Symbolic Z-matrix:
 Charge =  0 Multiplicity = 1

                         Standard orientation:
 ---------------------------------------------------------------------
 Center     Atomic      Atomic             Coordinates (Angstroms)
 Number     Number       Type             X           Y           Z
 ---------------------------------------------------------------------
      1          6           0        3.473908    1.844312   -1.522952
      2          6           0        3.395163    2.164469   -0.163606
      3          6           0        3.100445    1.178034    0.782245
      4          6           0        2.889230   -0.124142    0.331672
      5          6           0        2.960739   -0.474460   -1.015715
      6          6           0        3.256828    0.528190   -1.943925
      7          1           0        3.703384    2.616896   -2.250860
      8          1           0        3.563282    3.185745    0.166208
      9          1           0        3.033354    1.398238    1.840747
     10          1           0        2.788211   -1.501395   -1.314137
     11          1           0        3.317340    0.276653   -2.998967
     12          7           0        2.576500   -1.177019    1.323665
     13          8           0        2.394588   -2.316742    0.901083
     14          8           0        2.519215   -0.842604    2.504987
     15          6           0       -1.542392   -1.927370   -1.108196
     16          6           0       -0.934066   -0.730781   -0.714957
     17          6           0       -1.699014    0.316476   -0.192796
     18          6           0       -3.075962    0.132171   -0.077303
     19          6           0       -3.711341   -1.048037   -0.460304
     20          6           0       -2.926648   -2.081907   -0.979840
     21          1           0       -0.940492   -2.735705   -1.512803
     22          1           0        0.140760   -0.607961   -0.813493
     23          1           0       -1.253913    1.253407    0.119394
     24          1           0       -4.784946   -1.140906   -0.350003
     25          1           0       -3.401791   -3.010085   -1.284421
     26          7           0       -3.896230    1.233770    0.474096
     27          8           0       -5.107494    1.046436    0.565651
     28          8           0       -3.312360    2.263677    0.804287
 ---------------------------------------------------------------------

 SCF Done:  E(RHF) =  -868.337569306     A.U. after   16 cycles
 E2 =    -0.2601636746D+01 EUMP2 =    -0.87093920605171D+03

 The electronic state is 1-A.
 Alpha  occ. eigenvalues --  -20.61654 -20.61616 -20.60556 -20.60548 -15.86685
 Alpha  occ. eigenvalues --  -15.85605 -11.32157 -11.30885 -11.28733 -11.28619
 Alpha  occ. eigenvalues --  -11.28348 -11.27727 -11.27627 -11.27455 -11.27450
 Alpha  occ. eigenvalues --  -11.27144 -11.26435 -11.26364  -1.60708  -1.59630
 Alpha  occ. eigenvalues --   -1.40259  -1.39187  -1.20321  -1.19044  -1.09664
 Alpha  occ. eigenvalues --   -1.08448  -1.05707  -1.04443  -0.96487  -0.95301
 Alpha  occ. eigenvalues --   -0.87089  -0.85846  -0.83301  -0.82147  -0.78363
 Alpha  occ. eigenvalues --   -0.77220  -0.72888  -0.72062  -0.71826  -0.71348
 Alpha  occ. eigenvalues --   -0.70950  -0.70148  -0.65930  -0.65653  -0.64698
 Alpha  occ. eigenvalues --   -0.64478  -0.63025  -0.61826  -0.56126  -0.54964
 Alpha  occ. eigenvalues --   -0.54091  -0.53748  -0.52763  -0.52454  -0.49666
 Alpha  occ. eigenvalues --   -0.49640  -0.48588  -0.48576  -0.45627  -0.44613
 Alpha  occ. eigenvalues --   -0.38259  -0.37314  -0.36994  -0.36038
 Alpha virt. eigenvalues --    0.04124   0.05337   0.10216   0.11605   0.15667
 Alpha virt. eigenvalues --    0.16848   0.20522   0.21828   0.26344   0.27245
 Alpha virt. eigenvalues --    0.27774   0.28674   0.30474   0.31404   0.31748

 Mulliken charges:
               1
     1  C   -0.171088
     2  C   -0.217240
     3  C   -0.172347
     4  C    0.158492
     5  C   -0.189726
     6  C   -0.215137
     7  H    0.230363
     8  H    0.229356
     9  H    0.280382
    10  H    0.273552
    11  H    0.226633
    12  N    0.489769
    13  O   -0.463358
    14  O   -0.453663
    15  C   -0.169964
    16  C   -0.222176
    17  C   -0.173933
    18  C    0.159006
    19  C   -0.171192
    20  C   -0.218481
    21  H    0.226938
    22  H    0.228318
    23  H    0.272932
    24  H    0.274708
    25  H    0.222967
    26  N    0.488366
    27  O   -0.460948
    28  O   -0.462528
 Sum of Mulliken charges =  -0.00000

 Dipole moment (field-independent basis, Debye):
    X=              4.2881    Y=             -0.0565    Z=             -5.3620  Tot=              6.8660
 Quadrupole moment (field-independent basis, Debye-Ang):
   XX=           -113.2522   YY=           -103.3070   ZZ=           -104.8487
   XY=             26.7837   XZ=             -3.2661   YZ=              4.8078

 Normal termination of Gaussian 16 at Wed May  5 16:19:17 2021.
