 Gaussian 16, Revision A.03,
 Gaussian 16:  EM64L-G16RevA.03 25-Dec-2016

 -------------
 #p 6-31g* mp2
 -------------

 ------------------------------------------------------
 Input file generated by CHIRIPA (05-May-2021 14:57:23)
 ------------------------------------------------------
 Symbolic Z-matrix:
 Charge =  0 Multiplicity = 1

                         Standard orientation:
 ---------------------------------------------------------------------
 Center     Atomic      Atomic             Coordinates (Angstroms)
 Number     Number       Type             X           Y           Z
 ---------------------------------------------------------------------
      1          6           0        2.117394    2.094968    1.435887
      2          6           0        1.451938    0.952643    1.892817
      3          6           0        1.648135   -0.281661    1.266281
      4          6           0        2.520771   -0.337703    0.180621
      5          6           0        3.198351    0.782588   -0.298047
      6          6           0        2.986943    2.006450    0.343838
      7          1           0        1.959075    3.049749    1.928557
      8          1           0        0.776054    1.018414    2.740696
      9          1           0        1.145818   -1.181747    1.599358
     10          1           0        3.865984    0.685693   -1.145570
     11          1           0        3.505092    2.891945   -0.013186
     12          7           0        2.736527   -1.638878   -0.490789
     13          8           0        3.510489   -1.661798   -1.445302
     14          8           0        2.127590   -2.611181   -0.049814
     15          6           0       -1.239199    2.074048   -1.295159
     16          6           0       -0.614347    0.827727   -1.182186
     17          6           0       -1.295126   -0.260167   -0.627591
     18          6           0       -2.605671   -0.065342   -0.194226
     19          6           0       -3.255451    1.163997   -0.293224
     20          6           0       -2.555436    2.237917   -0.851100
     21          1           0       -0.702883    2.913722   -1.727256
     22          1           0        0.407782    0.697545   -1.526209
     23          1           0       -0.835407   -1.235969   -0.528167
     24          1           0       -4.275191    1.263013    0.058546
     25          1           0       -3.043223    3.204679   -0.937583
     26          7           0       -3.336563   -1.209649    0.394635
     27          8           0       -4.490453   -1.012044    0.768973
     28          8           0       -2.741709   -2.282496    0.470696
 ---------------------------------------------------------------------

 SCF Done:  E(RHF) =  -868.335870564     A.U. after   16 cycles
 E2 =    -0.2605395465D+01 EUMP2 =    -0.87094126602995D+03

 The electronic state is 1-A.
 Alpha  occ. eigenvalues --  -20.61552 -20.61528 -20.60797 -20.60780 -15.86571
 Alpha  occ. eigenvalues --  -15.85841 -11.31958 -11.31238 -11.28586 -11.28448
 Alpha  occ. eigenvalues --  -11.28257 -11.27803 -11.27694 -11.27610 -11.27533
 Alpha  occ. eigenvalues --  -11.27447 -11.26869 -11.26708  -1.60618  -1.59873
 Alpha  occ. eigenvalues --   -1.40162  -1.39421  -1.20194  -1.19399  -1.09547
 Alpha  occ. eigenvalues --   -1.08801  -1.05561  -1.04795  -0.96366  -0.95629
 Alpha  occ. eigenvalues --   -0.86946  -0.86199  -0.83169  -0.82460  -0.78225
 Alpha  occ. eigenvalues --   -0.77510  -0.72761  -0.72061  -0.71976  -0.71241
 Alpha  occ. eigenvalues --   -0.71200  -0.70501  -0.65788  -0.65519  -0.65049
 Alpha  occ. eigenvalues --   -0.64821  -0.62875  -0.62165  -0.56017  -0.55350
 Alpha  occ. eigenvalues --   -0.54302  -0.53603  -0.53024  -0.52538  -0.49540
 Alpha  occ. eigenvalues --   -0.49532  -0.48820  -0.48806  -0.45529  -0.44818
 Alpha  occ. eigenvalues --   -0.38225  -0.37585  -0.37362  -0.35880
 Alpha virt. eigenvalues --    0.04089   0.05153   0.10299   0.11319   0.15718
 Alpha virt. eigenvalues --    0.16544   0.20666   0.21386   0.26349   0.26959
 Alpha virt. eigenvalues --    0.27588   0.28289   0.30494   0.30605   0.31547

 Mulliken charges:
               1
     1  C   -0.171015
     2  C   -0.211496
     3  C   -0.174150
     4  C    0.150750
     5  C   -0.180728
     6  C   -0.219951
     7  H    0.227838
     8  H    0.229291
     9  H    0.283516
    10  H    0.277006
    11  H    0.224738
    12  N    0.486300
    13  O   -0.458222
    14  O   -0.455643
    15  C   -0.174827
    16  C   -0.212205
    17  C   -0.181687
    18  C    0.156258
    19  C   -0.173441
    20  C   -0.219506
    21  H    0.222435
    22  H    0.226833
    23  H    0.283230
    24  H    0.274711
    25  H    0.221694
    26  N    0.487050
    27  O   -0.461589
    28  O   -0.457189
 Sum of Mulliken charges =  -0.00000

 Dipole moment (field-independent basis, Debye):
    X=              1.9761    Y=              8.5142    Z=              0.4855  Tot=              8.7540
 Quadrupole moment (field-independent basis, Debye-Ang):
   XX=           -117.9204   YY=           -106.5803   ZZ=           -101.9599
   XY=              0.2075   XZ=              8.0724   YZ=             -1.5538

 Normal termination of Gaussian 16 at Thu May  6 04:59:58 2021.
