 Gaussian 16, Revision A.03,
 Gaussian 16:  EM64L-G16RevA.03 25-Dec-2016

 -------------
 #p 6-31g* mp2
 -------------

 ------------------------------------------------------
 Input file generated by CHIRIPA (05-May-2021 14:57:23)
 ------------------------------------------------------
 Symbolic Z-matrix:
 Charge =  0 Multiplicity = 1

                         Standard orientation:
 ---------------------------------------------------------------------
 Center     Atomic      Atomic             Coordinates (Angstroms)
 Number     Number       Type             X           Y           Z
 ---------------------------------------------------------------------
      1          6           0        3.266138    2.555951    0.065660
      2          6           0        2.186486    1.913660    0.680750
      3          6           0        2.020560    0.530747    0.560048
      4          6           0        2.957370   -0.182176   -0.186556
      5          6           0        4.043487    0.428939   -0.811199
      6          6           0        4.189564    1.812850   -0.677042
      7          1           0        3.387324    3.630618    0.164651
      8          1           0        1.467789    2.488223    1.258156
      9          1           0        1.193936    0.008081    1.025806
     10          1           0        4.743569   -0.170562   -1.380323
     11          1           0        5.029001    2.308997   -1.155821
     12          7           0        2.792218   -1.646733   -0.321460
     13          8           0        3.631353   -2.252237   -0.984675
     14          8           0        1.826763   -2.161416    0.238572
     15          6           0       -1.311371   -0.894843    1.857830
     16          6           0       -1.826214   -1.767143    0.893179
     17          6           0       -2.753820   -1.315068   -0.050071
     18          6           0       -3.146349    0.021586    0.000600
     19          6           0       -2.651564    0.915095    0.949346
     20          6           0       -1.724961    0.441137    1.882790
     21          1           0       -0.591175   -1.254525    2.586761
     22          1           0       -1.506821   -2.805199    0.871408
     23          1           0       -3.168421   -1.968831   -0.807777
     24          1           0       -2.988992    1.944439    0.945902
     25          1           0       -1.326808    1.120835    2.630808
     26          7           0       -4.127833    0.511761   -0.992787
     27          8           0       -4.457576    1.693950   -0.926916
     28          8           0       -4.548795   -0.295508   -1.818465
 ---------------------------------------------------------------------

 SCF Done:  E(RHF) =  -868.338335963     A.U. after   16 cycles
 E2 =    -0.2601846167D+01 EUMP2 =    -0.87094018213036D+03

 The electronic state is 1-A.
 Alpha  occ. eigenvalues --  -20.61396 -20.61346 -20.60821 -20.60800 -15.86418
 Alpha  occ. eigenvalues --  -15.85865 -11.31601 -11.31256 -11.28160 -11.28115
 Alpha  occ. eigenvalues --  -11.27898 -11.27894 -11.27695 -11.27491 -11.27183
 Alpha  occ. eigenvalues --  -11.27131 -11.26988 -11.26635  -1.60438  -1.59887
 Alpha  occ. eigenvalues --   -1.40002  -1.39440  -1.19776  -1.19423  -1.09204
 Alpha  occ. eigenvalues --   -1.08820  -1.05164  -1.04806  -0.96074  -0.95639
 Alpha  occ. eigenvalues --   -0.86574  -0.86200  -0.82914  -0.82463  -0.77996
 Alpha  occ. eigenvalues --   -0.77501  -0.72666  -0.72082  -0.71747  -0.71210
 Alpha  occ. eigenvalues --   -0.70930  -0.70473  -0.65440  -0.65197  -0.65050
 Alpha  occ. eigenvalues --   -0.64787  -0.62549  -0.62124  -0.55695  -0.55283
 Alpha  occ. eigenvalues --   -0.53526  -0.53462  -0.52902  -0.52851  -0.49414
 Alpha  occ. eigenvalues --   -0.49377  -0.48841  -0.48836  -0.45446  -0.44840
 Alpha  occ. eigenvalues --   -0.37749  -0.37399  -0.36756  -0.36375
 Alpha virt. eigenvalues --    0.04549   0.04960   0.10893   0.11133   0.16082
 Alpha virt. eigenvalues --    0.16357   0.20128   0.22103   0.25921   0.27364
 Alpha virt. eigenvalues --    0.28031   0.29280   0.30200   0.31519   0.32731

 Mulliken charges:
               1
     1  C   -0.169143
     2  C   -0.222995
     3  C   -0.172897
     4  C    0.154538
     5  C   -0.168858
     6  C   -0.219212
     7  H    0.227200
     8  H    0.219433
     9  H    0.282910
    10  H    0.276585
    11  H    0.225183
    12  N    0.488853
    13  O   -0.456802
    14  O   -0.470500
    15  C   -0.183533
    16  C   -0.207047
    17  C   -0.172336
    18  C    0.159414
    19  C   -0.171419
    20  C   -0.225647
    21  H    0.231915
    22  H    0.237272
    23  H    0.278168
    24  H    0.273490
    25  H    0.217777
    26  N    0.488023
    27  O   -0.462146
    28  O   -0.458227
 Sum of Mulliken charges =  -0.00000

 Dipole moment (field-independent basis, Debye):
    X=              4.0484    Y=              3.1800    Z=              3.8173  Tot=              6.4089
 Quadrupole moment (field-independent basis, Debye-Ang):
   XX=           -120.2438   YY=           -102.8243   ZZ=           -103.9337
   XY=             21.5909   XZ=            -12.4801   YZ=              1.0150

 Normal termination of Gaussian 16 at Thu May  6 14:37:29 2021.
