 Gaussian 16, Revision A.03,
 Gaussian 16:  EM64L-G16RevA.03 25-Dec-2016

 -------------
 #p 6-31g* mp2
 -------------

 ------------------------------------------------------
 Input file generated by CHIRIPA (05-May-2021 14:57:22)
 ------------------------------------------------------
 Symbolic Z-matrix:
 Charge =  0 Multiplicity = 1

                         Standard orientation:
 ---------------------------------------------------------------------
 Center     Atomic      Atomic             Coordinates (Angstroms)
 Number     Number       Type             X           Y           Z
 ---------------------------------------------------------------------
      1          6           0       -3.814453    2.552715   -0.365985
      2          6           0       -2.731187    1.824513    0.136783
      3          6           0       -2.824730    0.440226    0.308678
      4          6           0       -4.021874   -0.186452   -0.033975
      5          6           0       -5.118719    0.511412   -0.537173
      6          6           0       -5.002667    1.895000   -0.700768
      7          1           0       -3.733044    3.627791   -0.496294
      8          1           0       -1.807174    2.332655    0.397621
      9          1           0       -2.001595   -0.147933    0.695894
     10          1           0       -6.026861   -0.023022   -0.788321
     11          1           0       -5.845570    2.457974   -1.091435
     12          7           0       -4.132819   -1.651564    0.143610
     13          8           0       -5.198446   -2.180119   -0.165755
     14          8           0       -3.152050   -2.243622    0.588802
     15          6           0        1.587312   -0.165487    0.781102
     16          6           0        2.366152    0.947772    1.113646
     17          6           0        3.706050    1.019710    0.721160
     18          6           0        4.237186   -0.044337   -0.006157
     19          6           0        3.486959   -1.166966   -0.352790
     20          6           0        2.149211   -1.217447    0.050234
     21          1           0        0.547281   -0.213036    1.090088
     22          1           0        1.932427    1.766214    1.681167
     23          1           0        4.331723    1.869678    0.965094
     24          1           0        3.947285   -1.967284   -0.919367
     25          1           0        1.546736   -2.083264   -0.209440
     26          7           0        5.654539    0.020463   -0.427243
     27          8           0        6.098858   -0.930087   -1.067299
     28          8           0        6.294302    1.020577   -0.109261
 ---------------------------------------------------------------------

 SCF Done:  E(RHF) =  -868.337158971     A.U. after   16 cycles
 E2 =    -0.2599547836D+01 EUMP2 =    -0.87093670680709D+03

 The electronic state is 1-A.
 Alpha  occ. eigenvalues --  -20.61578 -20.61545 -20.60932 -20.60923 -15.86619
 Alpha  occ. eigenvalues --  -15.85984 -11.32012 -11.31417 -11.28699 -11.28507
 Alpha  occ. eigenvalues --  -11.28264 -11.28011 -11.27933 -11.27833 -11.27640
 Alpha  occ. eigenvalues --  -11.27513 -11.27112 -11.26952  -1.60634  -1.60003
 Alpha  occ. eigenvalues --   -1.40191  -1.39555  -1.20170  -1.19596  -1.09546
 Alpha  occ. eigenvalues --   -1.08999  -1.05592  -1.04998  -0.96389  -0.95822
 Alpha  occ. eigenvalues --   -0.86982  -0.86402  -0.83232  -0.82643  -0.78293
 Alpha  occ. eigenvalues --   -0.77660  -0.72839  -0.72202  -0.71954  -0.71326
 Alpha  occ. eigenvalues --   -0.71319  -0.70734  -0.65826  -0.65596  -0.65255
 Alpha  occ. eigenvalues --   -0.65002  -0.62966  -0.62333  -0.56080  -0.55556
 Alpha  occ. eigenvalues --   -0.53891  -0.53678  -0.53334  -0.53090  -0.49605
 Alpha  occ. eigenvalues --   -0.49581  -0.48966  -0.48952  -0.45592  -0.44945
 Alpha  occ. eigenvalues --   -0.38115  -0.37614  -0.37183  -0.36591
 Alpha virt. eigenvalues --    0.04269   0.04855   0.10474   0.11047   0.15774
 Alpha virt. eigenvalues --    0.16275   0.17928   0.22028   0.24609   0.26228
 Alpha virt. eigenvalues --    0.27570   0.29555   0.30019   0.30876   0.32621

 Mulliken charges:
               1
     1  C   -0.170065
     2  C   -0.218111
     3  C   -0.176783
     4  C    0.160874
     5  C   -0.169337
     6  C   -0.218065
     7  H    0.228426
     8  H    0.219761
     9  H    0.271309
    10  H    0.278087
    11  H    0.226699
    12  N    0.487775
    13  O   -0.456170
    14  O   -0.464519
    15  C   -0.174565
    16  C   -0.220573
    17  C   -0.170644
    18  C    0.159083
    19  C   -0.170597
    20  C   -0.220084
    21  H    0.224177
    22  H    0.219517
    23  H    0.275616
    24  H    0.277779
    25  H    0.231779
    26  N    0.487895
    27  O   -0.458788
    28  O   -0.460479
 Sum of Mulliken charges =  -0.00000

 Dipole moment (field-independent basis, Debye):
    X=             -4.7544    Y=              4.9013    Z=              0.7163  Tot=              6.8659
 Quadrupole moment (field-independent basis, Debye-Ang):
   XX=           -144.8356   YY=           -103.1048   ZZ=           -104.7594
   XY=            -21.9966   XZ=             11.1717   YZ=              2.0419

 Normal termination of Gaussian 16 at Thu May  6 03:22:33 2021.
