 Gaussian 16, Revision A.03,
 Gaussian 16:  EM64L-G16RevA.03 25-Dec-2016

 -------------
 #p 6-31g* mp2
 -------------

 ------------------------------------------------------
 Input file generated by CHIRIPA (05-May-2021 14:51:14)
 ------------------------------------------------------
 Symbolic Z-matrix:
 Charge =  0 Multiplicity = 1

                         Standard orientation:
 ---------------------------------------------------------------------
 Center     Atomic      Atomic             Coordinates (Angstroms)
 Number     Number       Type             X           Y           Z
 ---------------------------------------------------------------------
      1          6           0        3.625119    0.499125    0.420492
      2          6           0        2.204628    0.114549    0.835570
      3          6           0        1.351816    1.325136    1.216341
      4          1           0        4.106253    1.043833    1.244354
      5          1           0        3.575847    1.195565   -0.428000
      6          1           0        2.256599   -0.582038    1.682140
      7          1           0        1.726886   -0.429473    0.010695
      8          1           0        1.270249    2.019284    0.373663
      9          1           0        1.802971    1.865852    2.054604
     10          1           0        0.340325    1.027356    1.509721
     11          6           0        4.489896   -0.700366    0.036941
     12          6           0        5.910388   -0.315790   -0.378137
     13          6           0        6.763199   -1.526377   -0.758908
     14          1           0        4.539169   -1.396806    0.885433
     15          1           0        4.008763   -1.245074   -0.786921
     16          1           0        6.388129    0.228233    0.446738
     17          1           0        5.858416    0.380797   -1.224707
     18          1           0        6.312044   -2.067093   -1.597171
     19          1           0        6.844766   -2.220524    0.083770
     20          1           0        7.774690   -1.228597   -1.052288
     21          6           0       -3.731633    0.650794   -0.646506
     22          6           0       -2.433010    1.183782   -0.040299
     23          6           0       -1.792961    2.283891   -0.887584
     24          1           0       -3.527316    0.266585   -1.655258
     25          1           0       -4.440412    1.481878   -0.766193
     26          1           0       -1.727391    0.351696    0.079492
     27          1           0       -2.640406    1.566593    0.967202
     28          1           0       -2.475952    3.132530   -0.996841
     29          1           0       -1.557750    1.910731   -1.889596
     30          1           0       -0.865931    2.650464   -0.435811
     31          6           0       -4.383382   -0.449553    0.189072
     32          6           0       -5.682005   -0.982542   -0.417134
     33          6           0       -6.322054   -2.082650    0.430151
     34          1           0       -3.674603   -1.280638    0.308759
     35          1           0       -4.587699   -0.065344    1.197826
     36          1           0       -5.474609   -1.365352   -1.424636
     37          1           0       -6.387624   -0.150455   -0.536925
     38          1           0       -6.557266   -1.709490    1.432163
     39          1           0       -5.639064   -2.931290    0.539409
     40          1           0       -7.249084   -2.449223   -0.021622
 ---------------------------------------------------------------------

 SCF Done:  E(RHF) =  -470.732577917     A.U. after   11 cycles
 E2 =    -0.1583124882D+01 EUMP2 =    -0.47231570279841D+03

 The electronic state is 1-A.
 Alpha  occ. eigenvalues --  -11.21609 -11.21605 -11.21592 -11.21567 -11.21409
 Alpha  occ. eigenvalues --  -11.21388 -11.21349 -11.21328 -11.21075 -11.21064
 Alpha  occ. eigenvalues --  -11.21022 -11.20957  -1.08441  -1.08403  -1.03573
 Alpha  occ. eigenvalues --   -1.03463  -0.96053  -0.95880  -0.87054  -0.86916
 Alpha  occ. eigenvalues --   -0.79603  -0.79573  -0.78248  -0.78228  -0.65087
 Alpha  occ. eigenvalues --   -0.65025  -0.61029  -0.60858  -0.59560  -0.59144
 Alpha  occ. eigenvalues --   -0.57672  -0.57496  -0.55318  -0.55171  -0.52829
 Alpha  occ. eigenvalues --   -0.52562  -0.52435  -0.52254  -0.49913  -0.49856
 Alpha  occ. eigenvalues --   -0.48046  -0.47756  -0.46621  -0.46590  -0.45798
 Alpha  occ. eigenvalues --   -0.45758  -0.45713  -0.45682  -0.43767  -0.43731
 Alpha virt. eigenvalues --    0.21660   0.23095   0.23450   0.25149   0.26473
 Alpha virt. eigenvalues --    0.26577   0.26856   0.27056   0.27886   0.29217
 Alpha virt. eigenvalues --    0.29772   0.30953   0.31248   0.31779   0.32546

 Mulliken charges:
               1
     1  C   -0.298558
     2  C   -0.299926
     3  C   -0.482617
     4  H    0.149753
     5  H    0.149790
     6  H    0.151885
     7  H    0.151735
     8  H    0.157352
     9  H    0.154730
    10  H    0.166751
    11  C   -0.298276
    12  C   -0.299664
    13  C   -0.475705
    14  H    0.149513
    15  H    0.149546
    16  H    0.151966
    17  H    0.151969
    18  H    0.155146
    19  H    0.155176
    20  H    0.160279
    21  C   -0.298183
    22  C   -0.300931
    23  C   -0.480611
    24  H    0.149478
    25  H    0.149556
    26  H    0.153190
    27  H    0.151497
    28  H    0.154464
    29  H    0.153831
    30  H    0.167188
    31  C   -0.298318
    32  C   -0.299602
    33  C   -0.475695
    34  H    0.149352
    35  H    0.149561
    36  H    0.151893
    37  H    0.151952
    38  H    0.155162
    39  H    0.155148
    40  H    0.160223
 Sum of Mulliken charges =  -0.00000

 Dipole moment (field-independent basis, Debye):
    X=              0.0170    Y=              0.0064    Z=              0.0156  Tot=              0.0239
 Quadrupole moment (field-independent basis, Debye-Ang):
   XX=            -85.4297   YY=            -85.5413   ZZ=            -83.9321
   XY=             -0.2830   XZ=              0.4982   YZ=              0.4850

 Normal termination of Gaussian 16 at Wed May  5 21:38:49 2021.
