 Gaussian 16, Revision A.03,
 Gaussian 16:  EM64L-G16RevA.03 25-Dec-2016

 -------------
 #p 6-31g* mp2
 -------------

 ------------------------------------------------------
 Input file generated by CHIRIPA (05-May-2021 14:55:19)
 ------------------------------------------------------
 Symbolic Z-matrix:
 Charge =  0 Multiplicity = 1

                         Standard orientation:
 ---------------------------------------------------------------------
 Center     Atomic      Atomic             Coordinates (Angstroms)
 Number     Number       Type             X           Y           Z
 ---------------------------------------------------------------------
      1          6           0       -2.856533   -2.333087    1.010336
      2          6           0       -1.729285   -1.590622    1.377188
      3          6           0       -1.505149   -0.323385    0.830907
      4          6           0       -2.432916    0.172971   -0.083516
      5          6           0       -3.565525   -0.542492   -0.469000
      6          6           0       -3.769445   -1.807579    0.090036
      7          1           0       -3.022795   -3.316671    1.439655
      8          1           0       -1.018621   -1.996220    2.091675
      9          1           0       -0.640859    0.272824    1.097281
     10          1           0       -4.256204   -0.111644   -1.183667
     11          1           0       -4.645759   -2.381942   -0.196714
     12          7           0       -2.206333    1.513399   -0.668590
     13          8           0       -3.038679    1.928293   -1.472144
     14          8           0       -1.200682    2.123752   -0.312538
     15          6           0        3.219028   -0.454354   -0.577062
     16          6           0        3.705225   -1.821789   -0.095691
     17          6           0        3.814327   -2.842813   -1.228563
     18          1           0        2.240806   -0.570458   -1.063420
     19          1           0        3.907738   -0.077959   -1.346087
     20          1           0        3.016567   -2.194870    0.673189
     21          1           0        4.682316   -1.702385    0.389749
     22          1           0        4.516732   -2.496031   -1.993396
     23          1           0        2.841518   -2.991314   -1.708346
     24          1           0        4.163568   -3.813203   -0.862183
     25          6           0        3.104835    0.577100    0.544007
     26          6           0        2.618638    1.944535    0.062637
     27          6           0        2.509536    2.965560    1.195509
     28          1           0        2.416125    0.200705    1.313033
     29          1           0        4.083057    0.693205    1.030367
     30          1           0        1.641547    1.825131   -0.422803
     31          1           0        3.307296    2.317616   -0.706244
     32          1           0        3.482345    3.114061    1.675291
     33          1           0        1.807131    2.618777    1.960343
     34          1           0        2.160294    3.935950    0.829130
 ---------------------------------------------------------------------

 SCF Done:  E(RHF) =  -669.536095715     A.U. after   15 cycles
 E2 =    -0.2091931584D+01 EUMP2 =    -0.67162802729926D+03

 The electronic state is 1-A.
 Alpha  occ. eigenvalues --  -20.60955 -20.60941 -15.85982 -11.31303 -11.27867
 Alpha  occ. eigenvalues --  -11.27861 -11.27599 -11.26873 -11.26863 -11.21693
 Alpha  occ. eigenvalues --  -11.21307 -11.21218 -11.21165 -11.20874 -11.20427
 Alpha  occ. eigenvalues --   -1.60012  -1.39568  -1.19471  -1.08874  -1.08252
 Alpha  occ. eigenvalues --   -1.04867  -1.03257  -0.95745  -0.95707  -0.86759
 Alpha  occ. eigenvalues --   -0.86267  -0.82552  -0.79351  -0.78028  -0.77601
 Alpha  occ. eigenvalues --   -0.72210  -0.71325  -0.70578  -0.65134  -0.64962
 Alpha  occ. eigenvalues --   -0.64803  -0.62215  -0.60641  -0.59128  -0.57314
 Alpha  occ. eigenvalues --   -0.55370  -0.55039  -0.53198  -0.52957  -0.52404
 Alpha  occ. eigenvalues --   -0.52159  -0.49715  -0.48976  -0.48958  -0.47654
 Alpha  occ. eigenvalues --   -0.46406  -0.45591  -0.45538  -0.44838  -0.43539
 Alpha  occ. eigenvalues --   -0.37448  -0.36468
 Alpha virt. eigenvalues --    0.04885   0.11164   0.16371   0.19534   0.22802
 Alpha virt. eigenvalues --    0.23974   0.26028   0.27315   0.27980   0.28231
 Alpha virt. eigenvalues --    0.29538   0.30329   0.31523   0.32004   0.32250

 Mulliken charges:
               1
     1  C   -0.170485
     2  C   -0.219177
     3  C   -0.173999
     4  C    0.157996
     5  C   -0.170580
     6  C   -0.218623
     7  H    0.226161
     8  H    0.224104
     9  H    0.279379
    10  H    0.275856
    11  H    0.223922
    12  N    0.490379
    13  O   -0.458751
    14  O   -0.462697
    15  C   -0.298450
    16  C   -0.297842
    17  C   -0.475593
    18  H    0.149624
    19  H    0.151888
    20  H    0.144988
    21  H    0.152631
    22  H    0.156949
    23  H    0.154631
    24  H    0.158763
    25  C   -0.296978
    26  C   -0.310828
    27  C   -0.471780
    28  H    0.137133
    29  H    0.149084
    30  H    0.174909
    31  H    0.150329
    32  H    0.149558
    33  H    0.150219
    34  H    0.167284
 Sum of Mulliken charges =  -0.00000

 Dipole moment (field-independent basis, Debye):
    X=             -0.9534    Y=             -4.6073    Z=              1.9243  Tot=              5.0832
 Quadrupole moment (field-independent basis, Debye-Ang):
   XX=            -86.7765   YY=            -97.4262   ZZ=            -94.9117
   XY=             12.5340   XZ=             -2.8085   YZ=              0.1312

 Normal termination of Gaussian 16 at Wed May  5 17:21:19 2021.
