 Gaussian 16, Revision A.03,
 Gaussian 16:  EM64L-G16RevA.03 25-Dec-2016

 -------------
 #p 6-31g* mp2
 -------------

 ------------------------------------------------------
 Input file generated by CHIRIPA (05-May-2021 14:53:11)
 ------------------------------------------------------
 Symbolic Z-matrix:
 Charge =  0 Multiplicity = 1

                         Standard orientation:
 ---------------------------------------------------------------------
 Center     Atomic      Atomic             Coordinates (Angstroms)
 Number     Number       Type             X           Y           Z
 ---------------------------------------------------------------------
      1          6           0        4.111627   -0.691060   -0.349829
      2          6           0        5.150941   -1.701730    0.136339
      3          6           0        4.940460   -3.096428   -0.453836
      4          1           0        3.107603   -1.053200   -0.089565
      5          1           0        4.149344   -0.635632   -1.446597
      6          1           0        5.112225   -1.754215    1.231950
      7          1           0        6.152617   -1.337049   -0.124943
      8          1           0        4.999944   -3.065331   -1.546583
      9          1           0        3.953641   -3.484867   -0.181981
     10          1           0        5.694381   -3.803014   -0.093004
     11          6           0        4.308806    0.707857    0.231444
     12          6           0        3.269491    1.718526   -0.254723
     13          6           0        3.479973    3.113225    0.335452
     14          1           0        4.271088    0.652428    1.328212
     15          1           0        5.312829    1.069997   -0.028819
     16          1           0        2.267815    1.353845    0.006558
     17          1           0        3.308207    1.771012   -1.350334
     18          1           0        4.466791    3.501664    0.063597
     19          1           0        3.420488    3.082128    1.428199
     20          1           0        2.726051    3.819811   -0.025380
     21          6           0       -1.059078    1.165018    0.186747
     22          6           0       -1.200978   -0.132631    0.689236
     23          6           0       -2.431947   -0.791422    0.616751
     24          6           0       -3.504834   -0.119825    0.032660
     25          6           0       -3.395060    1.173066   -0.476920
     26          6           0       -2.154640    1.812583   -0.393705
     27          1           0       -0.099160    1.669296    0.247222
     28          1           0       -0.351874   -0.637980    1.140556
     29          1           0       -2.569689   -1.796008    0.997874
     30          1           0       -4.259664    1.651084   -0.921193
     31          1           0       -2.047362    2.820354   -0.784771
     32          7           0       -4.813010   -0.807056   -0.049756
     33          8           0       -5.742879   -0.193646   -0.569090
     34          8           0       -4.883716   -1.946104    0.406540
 ---------------------------------------------------------------------

 SCF Done:  E(RHF) =  -669.535470939     A.U. after   15 cycles
 E2 =    -0.2091122737D+01 EUMP2 =    -0.67162659367526D+03

 The electronic state is 1-A.
 Alpha  occ. eigenvalues --  -20.60741 -20.60736 -15.85795 -11.31158 -11.27733
 Alpha  occ. eigenvalues --  -11.27727 -11.27443 -11.26747 -11.26731 -11.22785
 Alpha  occ. eigenvalues --  -11.22314 -11.22266 -11.22188 -11.22127 -11.21617
 Alpha  occ. eigenvalues --   -1.59817  -1.39370  -1.19331  -1.09324  -1.08724
 Alpha  occ. eigenvalues --   -1.04737  -1.04401  -0.96822  -0.95561  -0.87835
 Alpha  occ. eigenvalues --   -0.86133  -0.82398  -0.80487  -0.79113  -0.77443
 Alpha  occ. eigenvalues --   -0.72013  -0.71140  -0.70457  -0.65964  -0.64983
 Alpha  occ. eigenvalues --   -0.64741  -0.62087  -0.61804  -0.60221  -0.58439
 Alpha  occ. eigenvalues --   -0.56111  -0.55228  -0.53519  -0.53237  -0.53063
 Alpha  occ. eigenvalues --   -0.52830  -0.50758  -0.48804  -0.48768  -0.48747
 Alpha  occ. eigenvalues --   -0.47523  -0.46654  -0.46559  -0.44777  -0.44648
 Alpha  occ. eigenvalues --   -0.37303  -0.36343
 Alpha virt. eigenvalues --    0.05090   0.11301   0.16559   0.19047   0.22553
 Alpha virt. eigenvalues --    0.23361   0.25087   0.26185   0.26308   0.28040
 Alpha virt. eigenvalues --    0.29043   0.30399   0.30721   0.31042   0.32020

 Mulliken charges:
               1
     1  C   -0.297672
     2  C   -0.300468
     3  C   -0.475968
     4  H    0.144459
     5  H    0.152258
     6  H    0.152223
     7  H    0.153977
     8  H    0.156758
     9  H    0.154646
    10  H    0.162655
    11  C   -0.298569
    12  C   -0.303848
    13  C   -0.476908
    14  H    0.150104
    15  H    0.153775
    16  H    0.141269
    17  H    0.156576
    18  H    0.160879
    19  H    0.156696
    20  H    0.157789
    21  C   -0.175909
    22  C   -0.220929
    23  C   -0.170819
    24  C    0.158274
    25  C   -0.170689
    26  C   -0.219661
    27  H    0.234925
    28  H    0.222456
    29  H    0.275477
    30  H    0.275474
    31  H    0.223756
    32  N    0.488054
    33  O   -0.460482
    34  O   -0.460560
 Sum of Mulliken charges =  -0.00000

 Dipole moment (field-independent basis, Debye):
    X=              4.8626    Y=              2.4221    Z=              0.2496  Tot=              5.4381
 Quadrupole moment (field-independent basis, Debye-Ang):
   XX=           -125.3529   YY=            -93.1685   ZZ=            -93.9204
   XY=            -10.7452   XZ=             -0.4555   YZ=             -2.6273

 Normal termination of Gaussian 16 at Thu May  6 05:40:19 2021.
