 Gaussian 16, Revision A.03,
 Gaussian 16:  EM64L-G16RevA.03 25-Dec-2016

 -------------
 #p 6-31g* mp2
 -------------

 ------------------------------------------------------
 Input file generated by CHIRIPA (05-May-2021 14:53:12)
 ------------------------------------------------------
 Symbolic Z-matrix:
 Charge =  0 Multiplicity = 1

                         Standard orientation:
 ---------------------------------------------------------------------
 Center     Atomic      Atomic             Coordinates (Angstroms)
 Number     Number       Type             X           Y           Z
 ---------------------------------------------------------------------
      1          6           0       -5.577533    0.126519    0.165420
      2          6           0       -6.784310   -0.022440   -0.761666
      3          6           0       -8.017613    0.723263   -0.251094
      4          1           0       -5.843443   -0.243092    1.165232
      5          1           0       -5.340957    1.193501    0.279326
      6          1           0       -7.017683   -1.088899   -0.874891
      7          1           0       -6.515436    0.347391   -1.759437
      8          1           0       -7.808348    1.793598   -0.155212
      9          1           0       -8.313449    0.349148    0.734360
     10          1           0       -8.868476    0.603327   -0.928964
     11          6           0       -4.336838   -0.613379   -0.331526
     12          6           0       -3.130062   -0.464419    0.595559
     13          6           0       -1.896758   -1.210123    0.084987
     14          1           0       -4.573415   -1.680361   -0.445433
     15          1           0       -4.070928   -0.243768   -1.331339
     16          1           0       -3.398936   -0.834251    1.593330
     17          1           0       -2.896689    0.602039    0.708784
     18          1           0       -1.600923   -0.836007   -0.900467
     19          1           0       -2.106024   -2.280458   -0.010895
     20          1           0       -1.045896   -1.090187    0.762857
     21          6           0        1.605437    0.966523    0.853729
     22          6           0        1.964039   -0.380381    0.971098
     23          6           0        3.217671   -0.821754    0.537344
     24          6           0        4.092002    0.115126   -0.011377
     25          6           0        3.763938    1.463704   -0.141770
     26          6           0        2.504946    1.882652    0.298648
     27          1           0        0.629504    1.300682    1.193268
     28          1           0        1.267492   -1.094088    1.401782
     29          1           0        3.521072   -1.858636    0.616334
     30          1           0        4.479607    2.151658   -0.575306
     31          1           0        2.229154    2.929287    0.206254
     32          7           0        5.422004   -0.340266   -0.474101
     33          8           0        6.174293    0.504969   -0.953969
     34          8           0        5.686986   -1.533815   -0.348154
 ---------------------------------------------------------------------

 SCF Done:  E(RHF) =  -669.535185316     A.U. after   15 cycles
 E2 =    -0.2091201709D+01 EUMP2 =    -0.67162638702507D+03

 The electronic state is 1-A.
 Alpha  occ. eigenvalues --  -20.60733 -20.60728 -15.85786 -11.31148 -11.27721
 Alpha  occ. eigenvalues --  -11.27710 -11.27455 -11.26735 -11.26711 -11.22520
 Alpha  occ. eigenvalues --  -11.22114 -11.22090 -11.22075 -11.21953 -11.21481
 Alpha  occ. eigenvalues --   -1.59809  -1.39362  -1.19322  -1.09108  -1.08718
 Alpha  occ. eigenvalues --   -1.04727  -1.04232  -0.96685  -0.95551  -0.87708
 Alpha  occ. eigenvalues --   -0.86125  -0.82384  -0.80303  -0.78887  -0.77435
 Alpha  occ. eigenvalues --   -0.72006  -0.71132  -0.70432  -0.65732  -0.64979
 Alpha  occ. eigenvalues --   -0.64778  -0.62118  -0.61618  -0.60063  -0.58283
 Alpha  occ. eigenvalues --   -0.55950  -0.55221  -0.53513  -0.53131  -0.53020
 Alpha  occ. eigenvalues --   -0.52708  -0.50603  -0.48771  -0.48760  -0.48606
 Alpha  occ. eigenvalues --   -0.47325  -0.46434  -0.46339  -0.44769  -0.44482
 Alpha  occ. eigenvalues --   -0.37290  -0.36321
 Alpha virt. eigenvalues --    0.05101   0.11264   0.16585   0.19773   0.22466
 Alpha virt. eigenvalues --    0.23891   0.25815   0.25954   0.26678   0.27500
 Alpha virt. eigenvalues --    0.28855   0.29725   0.30801   0.31552   0.31707

 Mulliken charges:
               1
     1  C   -0.298611
     2  C   -0.300180
     3  C   -0.476022
     4  H    0.150372
     5  H    0.149050
     6  H    0.153040
     7  H    0.152730
     8  H    0.155251
     9  H    0.155675
    10  H    0.161834
    11  C   -0.299132
    12  C   -0.299833
    13  C   -0.478206
    14  H    0.151842
    15  H    0.151237
    16  H    0.153427
    17  H    0.147718
    18  H    0.160532
    19  H    0.159963
    20  H    0.149081
    21  C   -0.170831
    22  C   -0.219084
    23  C   -0.171555
    24  C    0.158496
    25  C   -0.171078
    26  C   -0.218968
    27  H    0.226378
    28  H    0.225565
    29  H    0.275698
    30  H    0.275437
    31  H    0.223153
    32  N    0.488032
    33  O   -0.460572
    34  O   -0.460437
 Sum of Mulliken charges =  -0.00000

 Dipole moment (field-independent basis, Debye):
    X=             -4.8819    Y=              1.5736    Z=              1.5658  Tot=              5.3629
 Quadrupole moment (field-independent basis, Debye-Ang):
   XX=           -133.6838   YY=            -89.5559   ZZ=            -95.0363
   XY=              8.0993   XZ=              6.6095   YZ=             -1.8584

 Normal termination of Gaussian 16 at Thu May  6 07:15:21 2021.
