 Gaussian 16, Revision A.03,
 Gaussian 16:  EM64L-G16RevA.03 25-Dec-2016

 -------------
 #p 6-31g* mp2
 -------------

 ------------------------------------------------------
 Input file generated by CHIRIPA (05-May-2021 14:57:21)
 ------------------------------------------------------
 Symbolic Z-matrix:
 Charge =  0 Multiplicity = 1

                         Standard orientation:
 ---------------------------------------------------------------------
 Center     Atomic      Atomic             Coordinates (Angstroms)
 Number     Number       Type             X           Y           Z
 ---------------------------------------------------------------------
      1          6           0        6.270875    1.212120   -0.395240
      2          6           0        6.242623    0.202962    0.572915
      3          6           0        5.057621   -0.487329    0.844608
      4          6           0        3.914314   -0.141063    0.126110
      5          6           0        3.910537    0.859543   -0.844489
      6          6           0        5.106794    1.536618   -1.099610
      7          1           0        7.195785    1.743221   -0.599860
      8          1           0        7.145138   -0.051171    1.121484
      9          1           0        5.007580   -1.272859    1.588823
     10          1           0        2.994789    1.090498   -1.375039
     11          1           0        5.125782    2.319895   -1.852046
     12          7           0        2.653848   -0.864847    0.404968
     13          8           0        1.660166   -0.540895   -0.241784
     14          8           0        2.683444   -1.742397    1.265007
     15          6           0       -6.149279    1.356312    0.609264
     16          6           0       -4.867180    1.882222    0.799427
     17          6           0       -3.736794    1.151655    0.421212
     18          6           0       -3.926069   -0.107243   -0.146801
     19          6           0       -5.190392   -0.658431   -0.349215
     20          6           0       -6.306516    0.089897    0.036559
     21          1           0       -7.021850    1.930733    0.906006
     22          1           0       -4.742051    2.865472    1.243957
     23          1           0       -2.732708    1.534787    0.557004
     24          1           0       -5.283340   -1.641372   -0.794865
     25          1           0       -7.301002   -0.321048   -0.112321
     26          7           0       -2.736930   -0.890063   -0.551202
     27          8           0       -2.930520   -1.996799   -1.049495
     28          8           0       -1.633809   -0.382079   -0.362222
 ---------------------------------------------------------------------

 SCF Done:  E(RHF) =  -868.334581930     A.U. after   16 cycles
 E2 =    -0.2600370547D+01 EUMP2 =    -0.87093495247709D+03

 The electronic state is 1-A.
 Alpha  occ. eigenvalues --  -20.59706 -20.59658 -20.59610 -20.59568 -15.84720
 Alpha  occ. eigenvalues --  -15.84676 -11.30475 -11.30436 -11.27102 -11.27078
 Alpha  occ. eigenvalues --  -11.27060 -11.27046 -11.26917 -11.26880 -11.26202
 Alpha  occ. eigenvalues --  -11.26190 -11.26166 -11.26156  -1.58741  -1.58693
 Alpha  occ. eigenvalues --   -1.38284  -1.38231  -1.18690  -1.18650  -1.08016
 Alpha  occ. eigenvalues --   -1.07972  -1.04149  -1.04112  -0.94795  -0.94719
 Alpha  occ. eigenvalues --   -0.85529  -0.85492  -0.81641  -0.81527  -0.76604
 Alpha  occ. eigenvalues --   -0.76537  -0.71087  -0.70669  -0.70098  -0.70047
 Alpha  occ. eigenvalues --   -0.69796  -0.69756  -0.64339  -0.64278  -0.64157
 Alpha  occ. eigenvalues --   -0.64120  -0.61490  -0.61455  -0.54644  -0.54607
 Alpha  occ. eigenvalues --   -0.52461  -0.52421  -0.52246  -0.52211  -0.47872
 Alpha  occ. eigenvalues --   -0.47693  -0.47649  -0.47403  -0.43617  -0.43541
 Alpha  occ. eigenvalues --   -0.36697  -0.36657  -0.35772  -0.35734
 Alpha virt. eigenvalues --    0.05939   0.05999   0.11876   0.11914   0.17361
 Alpha virt. eigenvalues --    0.17419   0.21959   0.21998   0.27848   0.27874
 Alpha virt. eigenvalues --    0.28882   0.28939   0.31485   0.31518   0.33157

 Mulliken charges:
               1
     1  C   -0.172145
     2  C   -0.218610
     3  C   -0.171732
     4  C    0.158796
     5  C   -0.171964
     6  C   -0.218712
     7  H    0.222860
     8  H    0.221055
     9  H    0.274723
    10  H    0.277387
    11  H    0.221070
    12  N    0.486638
    13  O   -0.444491
    14  O   -0.464817
    15  C   -0.172125
    16  C   -0.218609
    17  C   -0.171558
    18  C    0.159157
    19  C   -0.171555
    20  C   -0.218558
    21  H    0.222745
    22  H    0.220699
    23  H    0.276465
    24  H    0.274904
    25  H    0.221069
    26  N    0.487196
    27  O   -0.464190
    28  O   -0.445700
 Sum of Mulliken charges =  -0.00000

 Dipole moment (field-independent basis, Debye):
    X=              0.2556    Y=              5.2426    Z=              0.3814  Tot=              5.2626
 Quadrupole moment (field-independent basis, Debye-Ang):
   XX=            -38.4292   YY=           -103.1157   ZZ=           -104.0213
   XY=              0.0617   XZ=             -5.5041   YZ=             -0.9369

 Normal termination of Gaussian 16 at Thu May  6 19:25:37 2021.
