 Gaussian 16, Revision A.03,
 Gaussian 16:  EM64L-G16RevA.03 25-Dec-2016

 -------------
 #p 6-31g* mp2
 -------------

 ------------------------------------------------------
 Input file generated by CHIRIPA (05-May-2021 14:51:13)
 ------------------------------------------------------
 Symbolic Z-matrix:
 Charge =  0 Multiplicity = 1

                         Standard orientation:
 ---------------------------------------------------------------------
 Center     Atomic      Atomic             Coordinates (Angstroms)
 Number     Number       Type             X           Y           Z
 ---------------------------------------------------------------------
      1          6           0        2.869942    0.647910   -0.392042
      2          6           0        3.248941    1.949248    0.315675
      3          6           0        3.428851    3.118337   -0.653168
      4          1           0        3.645939    0.399257   -1.128891
      5          1           0        1.940533    0.803298   -0.957240
      6          1           0        4.176616    1.791060    0.880487
      7          1           0        2.472047    2.194731    1.051059
      8          1           0        2.503673    3.304680   -1.208075
      9          1           0        4.217926    2.898715   -1.379617
     10          1           0        3.699517    4.038543   -0.126081
     11          6           0        2.686580   -0.530027    0.563244
     12          6           0        2.307581   -1.831365   -0.144473
     13          6           0        2.127671   -3.000454    0.824370
     14          1           0        3.615989   -0.685415    1.128441
     15          1           0        1.910583   -0.281374    1.300093
     16          1           0        3.084475   -2.076848   -0.879858
     17          1           0        1.379906   -1.673177   -0.709285
     18          1           0        1.338596   -2.780832    1.550819
     19          1           0        3.052850   -3.186797    1.379277
     20          1           0        1.857006   -3.920661    0.297283
     21          6           0       -3.121127    0.462057    0.355347
     22          6           0       -3.104149    1.868919   -0.243348
     23          6           0       -3.793838    2.900082    0.650422
     24          1           0       -4.161973    0.158301    0.532310
     25          1           0       -2.630344    0.483442    1.338235
     26          1           0       -3.593590    1.844612   -1.225424
     27          1           0       -2.063230    2.169285   -0.419084
     28          1           0       -3.302011    2.953746    1.627062
     29          1           0       -4.841067    2.627228    0.816142
     30          1           0       -3.770128    3.898772    0.203299
     31          6           0       -2.435395   -0.579940   -0.526550
     32          6           0       -2.452374   -1.986802    0.072146
     33          6           0       -1.762684   -3.017966   -0.821623
     34          1           0       -2.926178   -0.601325   -1.509438
     35          1           0       -1.394549   -0.276185   -0.703512
     36          1           0       -3.493293   -2.287168    0.247882
     37          1           0       -1.962933   -1.962495    1.054221
     38          1           0       -0.715455   -2.745111   -0.987343
     39          1           0       -2.254512   -3.071629   -1.798264
     40          1           0       -1.786395   -4.016654   -0.374501
 ---------------------------------------------------------------------

 SCF Done:  E(RHF) =  -470.733275626     A.U. after   11 cycles
 E2 =    -0.1583436437D+01 EUMP2 =    -0.47231671206301D+03

 The electronic state is 1-A.
 Alpha  occ. eigenvalues --  -11.21651 -11.21647 -11.21644 -11.21631 -11.21460
 Alpha  occ. eigenvalues --  -11.21457 -11.21400 -11.21397 -11.21105 -11.21102
 Alpha  occ. eigenvalues --  -11.21095 -11.21040  -1.08496  -1.08459  -1.03605
 Alpha  occ. eigenvalues --   -1.03529  -0.96053  -0.95972  -0.87043  -0.87012
 Alpha  occ. eigenvalues --   -0.79674  -0.79590  -0.78334  -0.78250  -0.65274
 Alpha  occ. eigenvalues --   -0.64967  -0.61221  -0.60732  -0.59391  -0.59370
 Alpha  occ. eigenvalues --   -0.57691  -0.57565  -0.55479  -0.55106  -0.52732
 Alpha  occ. eigenvalues --   -0.52671  -0.52443  -0.52427  -0.49981  -0.49932
 Alpha  occ. eigenvalues --   -0.48051  -0.47863  -0.46860  -0.46500  -0.45998
 Alpha  occ. eigenvalues --   -0.45817  -0.45780  -0.45490  -0.43844  -0.43800
 Alpha virt. eigenvalues --    0.19467   0.22943   0.23662   0.25079   0.25535
 Alpha virt. eigenvalues --    0.26353   0.26773   0.27682   0.28859   0.29524
 Alpha virt. eigenvalues --    0.30291   0.30746   0.31365   0.32020   0.32308

 Mulliken charges:
               1
     1  C   -0.298958
     2  C   -0.299658
     3  C   -0.475743
     4  H    0.150093
     5  H    0.149387
     6  H    0.152162
     7  H    0.151723
     8  H    0.155212
     9  H    0.155346
    10  H    0.160426
    11  C   -0.297608
    12  C   -0.306989
    13  C   -0.475981
    14  H    0.149935
    15  H    0.149115
    16  H    0.152618
    17  H    0.156775
    18  H    0.155453
    19  H    0.155341
    20  H    0.161496
    21  C   -0.298240
    22  C   -0.299558
    23  C   -0.475730
    24  H    0.150054
    25  H    0.149291
    26  H    0.152156
    27  H    0.151356
    28  H    0.155168
    29  H    0.155348
    30  H    0.160434
    31  C   -0.299908
    32  C   -0.299548
    33  C   -0.482817
    34  H    0.149960
    35  H    0.149499
    36  H    0.152243
    37  H    0.151640
    38  H    0.163103
    39  H    0.154834
    40  H    0.160569
 Sum of Mulliken charges =  -0.00000

 Dipole moment (field-independent basis, Debye):
    X=              0.0137    Y=             -0.0110    Z=             -0.0034  Tot=              0.0179
 Quadrupole moment (field-independent basis, Debye-Ang):
   XX=            -83.1130   YY=            -86.2620   ZZ=            -85.1841
   XY=              0.1330   XZ=              0.6554   YZ=              0.1913

 Normal termination of Gaussian 16 at Wed May  5 19:56:39 2021.
