 Gaussian 16, Revision A.03,
 Gaussian 16:  EM64L-G16RevA.03 25-Dec-2016

 -------------
 #p 6-31g* mp2
 -------------

 ------------------------------------------------------
 Input file generated by CHIRIPA (05-May-2021 14:53:14)
 ------------------------------------------------------
 Symbolic Z-matrix:
 Charge =  0 Multiplicity = 1

                         Standard orientation:
 ---------------------------------------------------------------------
 Center     Atomic      Atomic             Coordinates (Angstroms)
 Number     Number       Type             X           Y           Z
 ---------------------------------------------------------------------
      1          6           0       -5.490348   -0.235600   -0.343080
      2          6           0       -6.923448   -0.070716    0.163893
      3          6           0       -7.965732   -0.255270   -0.939456
      4          1           0       -5.307062    0.489697   -1.147627
      5          1           0       -5.379525   -1.233147   -0.790308
      6          1           0       -7.031154    0.925711    0.611274
      7          1           0       -7.103282   -0.796361    0.967457
      8          1           0       -7.887169   -1.254259   -1.380420
      9          1           0       -7.814630    0.477597   -1.738627
     10          1           0       -8.983181   -0.133153   -0.555080
     11          6           0       -4.436984   -0.053980    0.748326
     12          6           0       -3.003884   -0.218864    0.241353
     13          6           0       -1.961600   -0.034310    1.344701
     14          1           0       -4.547807    0.943567    1.195553
     15          1           0       -4.620270   -0.779278    1.552872
     16          1           0       -2.824050    0.506781   -0.562211
     17          1           0       -2.896178   -1.215291   -0.206028
     18          1           0       -2.112702   -0.767178    2.143872
     19          1           0       -2.040163    0.964679    1.785666
     20          1           0       -0.944151   -0.156427    0.960326
     21          6           0        1.997965    1.784298   -0.355937
     22          6           0        3.297199    2.221803   -0.078263
     23          6           0        4.346529    1.304757    0.033454
     24          6           0        4.059605   -0.048446   -0.139192
     25          6           0        2.775764   -0.515414   -0.416647
     26          6           0        1.741847    0.419491   -0.523946
     27          1           0        1.188807    2.503618   -0.441007
     28          1           0        3.499041    3.281121    0.052701
     29          1           0        5.361719    1.616043    0.247714
     30          1           0        2.605496   -1.577815   -0.542077
     31          1           0        0.733827    0.076845   -0.739666
     32          7           0        5.162326   -1.028736   -0.023261
     33          8           0        4.883427   -2.215489   -0.179685
     34          8           0        6.284658   -0.591772    0.221836
 ---------------------------------------------------------------------

 SCF Done:  E(RHF) =  -669.535429596     A.U. after   15 cycles
 E2 =    -0.2090990485D+01 EUMP2 =    -0.67162642008078D+03

 The electronic state is 1-A.
 Alpha  occ. eigenvalues --  -20.60757 -20.60752 -15.85811 -11.31184 -11.27763
 Alpha  occ. eigenvalues --  -11.27759 -11.27504 -11.26769 -11.26751 -11.22434
 Alpha  occ. eigenvalues --  -11.22036 -11.22020 -11.21941 -11.21892 -11.21435
 Alpha  occ. eigenvalues --   -1.59833  -1.39386  -1.19362  -1.09040  -1.08753
 Alpha  occ. eigenvalues --   -1.04769  -1.04156  -0.96599  -0.95585  -0.87615
 Alpha  occ. eigenvalues --   -0.86163  -0.82419  -0.80224  -0.78828  -0.77468
 Alpha  occ. eigenvalues --   -0.72030  -0.71156  -0.70464  -0.65666  -0.65013
 Alpha  occ. eigenvalues --   -0.64810  -0.62161  -0.61544  -0.59974  -0.58209
 Alpha  occ. eigenvalues --   -0.55865  -0.55264  -0.53436  -0.53100  -0.53045
 Alpha  occ. eigenvalues --   -0.52669  -0.50523  -0.48792  -0.48784  -0.48530
 Alpha  occ. eigenvalues --   -0.47256  -0.46373  -0.46281  -0.44790  -0.44400
 Alpha  occ. eigenvalues --   -0.37332  -0.36360
 Alpha virt. eigenvalues --    0.05073   0.11170   0.16518   0.20131   0.22514
 Alpha virt. eigenvalues --    0.23782   0.26029   0.26165   0.26988   0.28103
 Alpha virt. eigenvalues --    0.28842   0.30151   0.30838   0.31446   0.32061

 Mulliken charges:
               1
     1  C   -0.298708
     2  C   -0.300121
     3  C   -0.476015
     4  H    0.149110
     5  H    0.150604
     6  H    0.152182
     7  H    0.153110
     8  H    0.155955
     9  H    0.155186
    10  H    0.161601
    11  C   -0.298308
    12  C   -0.301200
    13  C   -0.480239
    14  H    0.150092
    15  H    0.152263
    16  H    0.147416
    17  H    0.153229
    18  H    0.161182
    19  H    0.156063
    20  H    0.154765
    21  C   -0.171103
    22  C   -0.218685
    23  C   -0.170574
    24  C    0.158504
    25  C   -0.171783
    26  C   -0.219892
    27  H    0.226005
    28  H    0.223441
    29  H    0.275693
    30  H    0.275796
    31  H    0.227151
    32  N    0.488117
    33  O   -0.460380
    34  O   -0.460458
 Sum of Mulliken charges =  -0.00000

 Dipole moment (field-independent basis, Debye):
    X=             -4.0237    Y=              3.4484    Z=             -0.3682  Tot=              5.3120
 Quadrupole moment (field-independent basis, Debye-Ang):
   XX=           -124.6286   YY=            -91.5355   ZZ=            -95.7092
   XY=             17.1649   XZ=             -1.1785   YZ=              0.0164

 Normal termination of Gaussian 16 at Thu May  6 01:01:05 2021.
