 Gaussian 16, Revision A.03,
 Gaussian 16:  EM64L-G16RevA.03 25-Dec-2016

 -------------
 #p 6-31g* mp2
 -------------

 ------------------------------------------------------
 Input file generated by CHIRIPA (05-May-2021 14:53:17)
 ------------------------------------------------------
 Symbolic Z-matrix:
 Charge =  0 Multiplicity = 1

                         Standard orientation:
 ---------------------------------------------------------------------
 Center     Atomic      Atomic             Coordinates (Angstroms)
 Number     Number       Type             X           Y           Z
 ---------------------------------------------------------------------
      1          6           0        4.649830   -0.305901   -0.329213
      2          6           0        5.694385   -1.105030    0.450713
      3          6           0        6.492829   -2.059516   -0.437677
      4          1           0        3.964047   -1.002370   -0.830787
      5          1           0        5.152105    0.264224   -1.122984
      6          1           0        5.190454   -1.672403    1.243655
      7          1           0        6.377646   -0.406576    0.950644
      8          1           0        7.021351   -1.505908   -1.220482
      9          1           0        5.827414   -2.778928   -0.925806
     10          1           0        7.233782   -2.620671    0.140211
     11          6           0        3.843521    0.652729    0.545213
     12          6           0        2.798967    1.451859   -0.234712
     13          6           0        2.000522    2.406345    0.653677
     14          1           0        3.341246    0.082604    1.338984
     15          1           0        4.529305    1.349199    1.046787
     16          1           0        2.115705    0.753405   -0.734644
     17          1           0        3.302897    2.019232   -1.027655
     18          1           0        2.665937    3.125757    1.141806
     19          1           0        1.472000    1.852737    1.436482
     20          1           0        1.259569    2.967500    0.075789
     21          6           0       -1.983052    1.973704   -0.453073
     22          6           0       -3.357269    2.049556   -0.203487
     23          6           0       -4.106735    0.887439    0.002262
     24          6           0       -3.446746   -0.339389   -0.048731
     25          6           0       -2.078978   -0.447705   -0.295247
     26          6           0       -1.349409    0.727512   -0.498077
     27          1           0       -1.408577    2.881553   -0.611771
     28          1           0       -3.852016    3.015997   -0.167967
     29          1           0       -5.171843    0.917269    0.197384
     30          1           0       -1.613735   -1.425510   -0.324655
     31          1           0       -0.282303    0.665577   -0.691710
     32          7           0       -4.229640   -1.576604    0.167543
     33          8           0       -3.624595   -2.645275    0.117553
     34          8           0       -5.433492   -1.454235    0.382951
 ---------------------------------------------------------------------

 SCF Done:  E(RHF) =  -669.535230677     A.U. after   15 cycles
 E2 =    -0.2091860546D+01 EUMP2 =    -0.67162709122388D+03

 The electronic state is 1-A.
 Alpha  occ. eigenvalues --  -20.60726 -20.60721 -15.85778 -11.31130 -11.27697
 Alpha  occ. eigenvalues --  -11.27687 -11.27423 -11.26709 -11.26655 -11.22748
 Alpha  occ. eigenvalues --  -11.22256 -11.22194 -11.22082 -11.21998 -11.21442
 Alpha  occ. eigenvalues --   -1.59802  -1.39356  -1.19297  -1.09207  -1.08692
 Alpha  occ. eigenvalues --   -1.04704  -1.04317  -0.96757  -0.95531  -0.87772
 Alpha  occ. eigenvalues --   -0.86095  -0.82369  -0.80408  -0.78961  -0.77419
 Alpha  occ. eigenvalues --   -0.71998  -0.71125  -0.70415  -0.65900  -0.64949
 Alpha  occ. eigenvalues --   -0.64711  -0.62190  -0.61567  -0.60154  -0.58345
 Alpha  occ. eigenvalues --   -0.56021  -0.55211  -0.53476  -0.53166  -0.53019
 Alpha  occ. eigenvalues --   -0.52774  -0.50684  -0.48779  -0.48753  -0.48681
 Alpha  occ. eigenvalues --   -0.47437  -0.46506  -0.46395  -0.44765  -0.44559
 Alpha  occ. eigenvalues --   -0.37268  -0.36299
 Alpha virt. eigenvalues --    0.05114   0.11309   0.16599   0.19077   0.22557
 Alpha virt. eigenvalues --    0.24009   0.24880   0.25957   0.26495   0.27576
 Alpha virt. eigenvalues --    0.28840   0.29726   0.30874   0.31697   0.32150

 Mulliken charges:
               1
     1  C   -0.298962
     2  C   -0.300427
     3  C   -0.476229
     4  H    0.149424
     5  H    0.150690
     6  H    0.153459
     7  H    0.152892
     8  H    0.155593
     9  H    0.156177
    10  H    0.162242
    11  C   -0.298667
    12  C   -0.305711
    13  C   -0.480065
    14  H    0.151707
    15  H    0.152865
    16  H    0.145682
    17  H    0.156493
    18  H    0.162231
    19  H    0.160628
    20  H    0.151089
    21  C   -0.174339
    22  C   -0.218658
    23  C   -0.171228
    24  C    0.158837
    25  C   -0.173971
    26  C   -0.225289
    27  H    0.226890
    28  H    0.223237
    29  H    0.275325
    30  H    0.275288
    31  H    0.236081
    32  N    0.488073
    33  O   -0.460720
    34  O   -0.460635
 Sum of Mulliken charges =  -0.00000

 Dipole moment (field-independent basis, Debye):
    X=              3.0237    Y=              4.3641    Z=             -0.6897  Tot=              5.3539
 Quadrupole moment (field-independent basis, Debye-Ang):
   XX=           -109.4925   YY=            -96.6105   ZZ=            -95.6758
   XY=            -17.6988   XZ=              2.3114   YZ=              0.0229

 Normal termination of Gaussian 16 at Thu May  6 15:35:41 2021.
