 Gaussian 16, Revision A.03,
 Gaussian 16:  EM64L-G16RevA.03 25-Dec-2016

 -------------
 #p 6-31g* mp2
 -------------

 ------------------------------------------------------
 Input file generated by CHIRIPA (05-May-2021 14:57:25)
 ------------------------------------------------------
 Symbolic Z-matrix:
 Charge =  0 Multiplicity = 1

                         Standard orientation:
 ---------------------------------------------------------------------
 Center     Atomic      Atomic             Coordinates (Angstroms)
 Number     Number       Type             X           Y           Z
 ---------------------------------------------------------------------
      1          6           0        0.390891   -1.644413    1.216503
      2          6           0        1.216636   -2.235109    0.254346
      3          6           0        2.327768   -1.549318   -0.245277
      4          6           0        2.584796   -0.268644    0.241654
      5          6           0        1.780949    0.346768    1.199979
      6          6           0        0.675182   -0.357629    1.685422
      7          1           0       -0.470179   -2.184379    1.599114
      8          1           0        0.998277   -3.234315   -0.111648
      9          1           0        2.983674   -1.982891   -0.990407
     10          1           0        2.024170    1.344173    1.545587
     11          1           0        0.035643    0.103601    2.432618
     12          7           0        3.758262    0.467221   -0.279768
     13          8           0        3.963133    1.594358    0.165457
     14          8           0        4.450933   -0.097080   -1.123811
     15          6           0       -1.651977    2.798481   -0.193303
     16          6           0       -1.001934    1.913975   -1.060260
     17          6           0       -1.403161    0.577286   -1.142888
     18          6           0       -2.462879    0.157073   -0.340573
     19          6           0       -3.130481    1.014130    0.532955
     20          6           0       -2.712306    2.346533    0.599140
     21          1           0       -1.333712    3.835189   -0.135502
     22          1           0       -0.178165    2.262182   -1.676863
     23          1           0       -0.917521   -0.128822   -1.805446
     24          1           0       -3.948452    0.637709    1.135158
     25          1           0       -3.218982    3.031215    1.273333
     26          7           0       -2.896611   -1.255751   -0.419345
     27          8           0       -3.832927   -1.601213    0.298013
     28          8           0       -2.292040   -1.990908   -1.196953
 ---------------------------------------------------------------------

 SCF Done:  E(RHF) =  -868.338719842     A.U. after   16 cycles
 E2 =    -0.2604166129D+01 EUMP2 =    -0.87094288597018D+03

 The electronic state is 1-A.
 Alpha  occ. eigenvalues --  -20.61581 -20.61573 -20.61011 -20.60989 -15.86594
 Alpha  occ. eigenvalues --  -15.86048 -11.31697 -11.31270 -11.28328 -11.28196
 Alpha  occ. eigenvalues --  -11.27963 -11.27798 -11.27734 -11.27351 -11.27270
 Alpha  occ. eigenvalues --  -11.27132 -11.26746 -11.26646  -1.60661  -1.60086
 Alpha  occ. eigenvalues --   -1.40214  -1.39642  -1.19894  -1.19389  -1.09326
 Alpha  occ. eigenvalues --   -1.08796  -1.05243  -1.04747  -0.96194  -0.95666
 Alpha  occ. eigenvalues --   -0.86647  -0.86137  -0.83027  -0.82492  -0.78105
 Alpha  occ. eigenvalues --   -0.77580  -0.72826  -0.72259  -0.72069  -0.71422
 Alpha  occ. eigenvalues --   -0.70976  -0.70384  -0.65528  -0.65225  -0.65014
 Alpha  occ. eigenvalues --   -0.64701  -0.62585  -0.62093  -0.55743  -0.55188
 Alpha  occ. eigenvalues --   -0.54108  -0.53319  -0.52818  -0.52622  -0.49596
 Alpha  occ. eigenvalues --   -0.49564  -0.49031  -0.49002  -0.45676  -0.45078
 Alpha  occ. eigenvalues --   -0.38186  -0.37206  -0.36896  -0.36011
 Alpha virt. eigenvalues --    0.04280   0.04961   0.10672   0.11441   0.15923
 Alpha virt. eigenvalues --    0.16466   0.20988   0.21574   0.26925   0.27413
 Alpha virt. eigenvalues --    0.27820   0.28395   0.30639   0.31119   0.32067

 Mulliken charges:
               1
     1  C   -0.179528
     2  C   -0.213076
     3  C   -0.177340
     4  C    0.154484
     5  C   -0.172720
     6  C   -0.214163
     7  H    0.234985
     8  H    0.232940
     9  H    0.275724
    10  H    0.271351
    11  H    0.222766
    12  N    0.487422
    13  O   -0.463673
    14  O   -0.459554
    15  C   -0.172709
    16  C   -0.219056
    17  C   -0.163025
    18  C    0.154928
    19  C   -0.176089
    20  C   -0.221517
    21  H    0.229433
    22  H    0.229809
    23  H    0.276984
    24  H    0.274693
    25  H    0.224418
    26  N    0.485672
    27  O   -0.461712
    28  O   -0.461448
 Sum of Mulliken charges =  -0.00000

 Dipole moment (field-independent basis, Debye):
    X=             -2.6581    Y=              2.2965    Z=              2.0269  Tot=              4.0556
 Quadrupole moment (field-independent basis, Debye-Ang):
   XX=           -132.9844   YY=            -98.8757   ZZ=           -100.9223
   XY=            -19.7580   XZ=             -0.9699   YZ=              0.3378

 Normal termination of Gaussian 16 at Wed May  5 21:11:39 2021.
