 Gaussian 16, Revision A.03,
 Gaussian 16:  EM64L-G16RevA.03 25-Dec-2016

 -------------
 #p 6-31g* mp2
 -------------

 ------------------------------------------------------
 Input file generated by CHIRIPA (05-May-2021 14:51:14)
 ------------------------------------------------------
 Symbolic Z-matrix:
 Charge =  0 Multiplicity = 1

                         Standard orientation:
 ---------------------------------------------------------------------
 Center     Atomic      Atomic             Coordinates (Angstroms)
 Number     Number       Type             X           Y           Z
 ---------------------------------------------------------------------
      1          6           0        3.143004   -0.068967   -0.328686
      2          6           0        4.458093    0.331013    0.341046
      3          6           0        5.096435    1.564071   -0.299174
      4          1           0        3.325356   -0.260574   -1.394979
      5          1           0        2.442158    0.775824   -0.278304
      6          1           0        5.155769   -0.514754    0.290640
      7          1           0        4.272624    0.521504    1.405908
      8          1           0        4.421760    2.423951   -0.235776
      9          1           0        5.309923    1.381805   -1.357381
     10          1           0        6.035383    1.832398    0.195031
     11          6           0        2.492760   -1.299982    0.300212
     12          6           0        1.177671   -1.699962   -0.369521
     13          6           0        0.539329   -2.933020    0.270699
     14          1           0        3.193606   -2.144773    0.249829
     15          1           0        2.310408   -1.108375    1.366504
     16          1           0        1.363140   -1.890453   -1.434383
     17          1           0        0.479994   -0.854195   -0.319115
     18          1           0        0.325841   -2.750754    1.328906
     19          1           0        1.214004   -3.792900    0.207301
     20          1           0       -0.399619   -3.201347   -0.223505
     21          6           0       -2.410512    1.242798    0.339438
     22          6           0       -2.591161    2.600295   -0.340675
     23          6           0       -1.769831    3.707099    0.321288
     24          1           0       -2.694221    1.329156    1.397264
     25          1           0       -1.346028    0.970797    0.322519
     26          1           0       -3.655172    2.869014   -0.323707
     27          1           0       -2.307170    2.510649   -1.397050
     28          1           0       -0.702512    3.465165    0.291334
     29          1           0       -2.058172    3.825566    1.370776
     30          1           0       -1.913905    4.668888   -0.180773
     31          6           0       -3.225253    0.126151   -0.310963
     32          6           0       -3.044603   -1.231346    0.369150
     33          6           0       -3.865933   -2.338149   -0.292813
     34          1           0       -4.289736    0.398153   -0.294044
     35          1           0       -2.941542    0.039793   -1.368789
     36          1           0       -3.328593   -1.141700    1.425526
     37          1           0       -1.980592   -1.500065    0.352182
     38          1           0       -3.577593   -2.456617   -1.342302
     39          1           0       -4.933253   -2.096216   -0.262859
     40          1           0       -3.721859   -3.299939    0.209248
 ---------------------------------------------------------------------

 SCF Done:  E(RHF) =  -470.732657262     A.U. after   11 cycles
 E2 =    -0.1584107138D+01 EUMP2 =    -0.47231676440005D+03

 The electronic state is 1-A.
 Alpha  occ. eigenvalues --  -11.21681 -11.21635 -11.21616 -11.21487 -11.21460
 Alpha  occ. eigenvalues --  -11.21410 -11.21400 -11.21333 -11.21110 -11.21098
 Alpha  occ. eigenvalues --  -11.21096 -11.21050  -1.08500  -1.08410  -1.03616
 Alpha  occ. eigenvalues --   -1.03491  -0.96049  -0.95964  -0.87056  -0.86984
 Alpha  occ. eigenvalues --   -0.79665  -0.79566  -0.78332  -0.78212  -0.65287
 Alpha  occ. eigenvalues --   -0.64929  -0.61155  -0.60822  -0.59483  -0.59234
 Alpha  occ. eigenvalues --   -0.57693  -0.57524  -0.55344  -0.55255  -0.52737
 Alpha  occ. eigenvalues --   -0.52649  -0.52459  -0.52394  -0.50030  -0.49863
 Alpha  occ. eigenvalues --   -0.47987  -0.47865  -0.46735  -0.46567  -0.46013
 Alpha  occ. eigenvalues --   -0.45811  -0.45753  -0.45408  -0.43833  -0.43767
 Alpha virt. eigenvalues --    0.20128   0.22828   0.23518   0.24541   0.25753
 Alpha virt. eigenvalues --    0.26893   0.26948   0.27397   0.27905   0.29624
 Alpha virt. eigenvalues --    0.31382   0.31482   0.31770   0.32084   0.32243

 Mulliken charges:
               1
     1  C   -0.298237
     2  C   -0.299745
     3  C   -0.475760
     4  H    0.149789
     5  H    0.148702
     6  H    0.152087
     7  H    0.152196
     8  H    0.155263
     9  H    0.155194
    10  H    0.160448
    11  C   -0.297759
    12  C   -0.308162
    13  C   -0.480484
    14  H    0.149974
    15  H    0.150098
    16  H    0.152400
    17  H    0.157537
    18  H    0.156195
    19  H    0.156983
    20  H    0.162852
    21  C   -0.303088
    22  C   -0.299427
    23  C   -0.475567
    24  H    0.149767
    25  H    0.152322
    26  H    0.152203
    27  H    0.152178
    28  H    0.154431
    29  H    0.155208
    30  H    0.160486
    31  C   -0.297063
    32  C   -0.311369
    33  C   -0.475932
    34  H    0.149358
    35  H    0.149367
    36  H    0.151124
    37  H    0.166353
    38  H    0.154502
    39  H    0.155240
    40  H    0.160339
 Sum of Mulliken charges =  -0.00000

 Dipole moment (field-independent basis, Debye):
    X=              0.0315    Y=             -0.0221    Z=              0.0067  Tot=              0.0391
 Quadrupole moment (field-independent basis, Debye-Ang):
   XX=            -84.5780   YY=            -85.9360   ZZ=            -84.2292
   XY=             -1.5060   XZ=             -0.8210   YZ=              0.4888

 Normal termination of Gaussian 16 at Wed May  5 23:15:26 2021.
