 Gaussian 16, Revision A.03,
 Gaussian 16:  EM64L-G16RevA.03 25-Dec-2016

 -------------
 #p 6-31g* mp2
 -------------

 ------------------------------------------------------
 Input file generated by CHIRIPA (05-May-2021 14:57:21)
 ------------------------------------------------------
 Symbolic Z-matrix:
 Charge =  0 Multiplicity = 1

                         Standard orientation:
 ---------------------------------------------------------------------
 Center     Atomic      Atomic             Coordinates (Angstroms)
 Number     Number       Type             X           Y           Z
 ---------------------------------------------------------------------
      1          6           0       -6.007681    0.898797   -1.080138
      2          6           0       -5.297558    1.714876   -0.193423
      3          6           0       -4.191237    1.215445    0.500241
      4          6           0       -3.821066   -0.110718    0.282170
      5          6           0       -4.508247   -0.948724   -0.594654
      6          6           0       -5.611458   -0.428058   -1.277575
      7          1           0       -6.865890    1.295015   -1.614820
      8          1           0       -5.602996    2.745716   -0.038115
      9          1           0       -3.623543    1.825231    1.192558
     10          1           0       -4.179800   -1.972239   -0.728656
     11          1           0       -6.161068   -1.064141   -1.965596
     12          7           0       -2.651500   -0.650683    1.010834
     13          8           0       -2.345617   -1.822477    0.801139
     14          8           0       -2.062822    0.108111    1.777860
     15          6           0        1.617181   -0.766937   -0.167968
     16          6           0        2.657738   -1.688456   -0.324696
     17          6           0        3.989405   -1.262770   -0.323000
     18          6           0        4.245523    0.097970   -0.161508
     19          6           0        3.230691    1.040479   -0.003139
     20          6           0        1.906469    0.592194   -0.007972
     21          1           0        0.585602   -1.106397   -0.170505
     22          1           0        2.436044   -2.744585   -0.449144
     23          1           0        4.814294   -1.954670   -0.442376
     24          1           0        3.482976    2.086844    0.118885
     25          1           0        1.100383    1.310113    0.113949
     26          7           0        5.651359    0.560588   -0.158052
     27          8           0        5.850583    1.764835   -0.014061
     28          8           0        6.527409   -0.289821   -0.299399
 ---------------------------------------------------------------------

 SCF Done:  E(RHF) =  -868.340297848     A.U. after   16 cycles
 E2 =    -0.2598503236D+01 EUMP2 =    -0.87093880108408D+03

 The electronic state is 1-A.
 Alpha  occ. eigenvalues --  -20.62054 -20.62049 -20.60075 -20.60070 -15.87063
 Alpha  occ. eigenvalues --  -15.85124 -11.32115 -11.30288 -11.28643 -11.28640
 Alpha  occ. eigenvalues --  -11.28308 -11.27573 -11.27563 -11.26860 -11.26853
 Alpha  occ. eigenvalues --  -11.26370 -11.25760 -11.25735  -1.61123  -1.59156
 Alpha  occ. eigenvalues --   -1.40677  -1.38715  -1.20256  -1.18431  -1.09706
 Alpha  occ. eigenvalues --   -1.07823  -1.05605  -1.03818  -0.96589  -0.94698
 Alpha  occ. eigenvalues --   -0.87017  -0.85200  -0.83428  -0.81554  -0.78518
 Alpha  occ. eigenvalues --   -0.76662  -0.73269  -0.72448  -0.71348  -0.71345
 Alpha  occ. eigenvalues --   -0.70478  -0.69431  -0.65904  -0.65594  -0.64066
 Alpha  occ. eigenvalues --   -0.63799  -0.62954  -0.61183  -0.56106  -0.54197
 Alpha  occ. eigenvalues --   -0.53941  -0.53685  -0.52144  -0.51895  -0.50050
 Alpha  occ. eigenvalues --   -0.50005  -0.48112  -0.48083  -0.46141  -0.44167
 Alpha  occ. eigenvalues --   -0.38213  -0.37194  -0.36333  -0.35440
 Alpha virt. eigenvalues --    0.03942   0.05885   0.10465   0.12237   0.15506
 Alpha virt. eigenvalues --    0.17451   0.20656   0.22498   0.26599   0.27495
 Alpha virt. eigenvalues --    0.28242   0.29298   0.30384   0.31593   0.32210

 Mulliken charges:
               1
     1  C   -0.169431
     2  C   -0.218388
     3  C   -0.171335
     4  C    0.156941
     5  C   -0.170820
     6  C   -0.218367
     7  H    0.228967
     8  H    0.226422
     9  H    0.275878
    10  H    0.275799
    11  H    0.226266
    12  N    0.486224
    13  O   -0.463779
    14  O   -0.460070
    15  C   -0.172126
    16  C   -0.220603
    17  C   -0.172015
    18  C    0.157116
    19  C   -0.172273
    20  C   -0.218287
    21  H    0.239956
    22  H    0.223140
    23  H    0.272527
    24  H    0.272028
    25  H    0.223971
    26  N    0.488325
    27  O   -0.463190
    28  O   -0.462878
 Sum of Mulliken charges =  -0.00000

 Dipole moment (field-independent basis, Debye):
    X=             -9.6933    Y=              0.2717    Z=             -2.5769  Tot=             10.0337
 Quadrupole moment (field-independent basis, Debye-Ang):
   XX=           -115.9553   YY=            -97.3671   ZZ=           -106.6034
   XY=            -15.8260   XZ=             10.1365   YZ=              4.1058

 Normal termination of Gaussian 16 at Thu May  6 12:47:31 2021.
