 Gaussian 16, Revision A.03,
 Gaussian 16:  EM64L-G16RevA.03 25-Dec-2016

 -------------
 #p 6-31g* mp2
 -------------

 ------------------------------------------------------
 Input file generated by CHIRIPA (05-May-2021 14:53:12)
 ------------------------------------------------------
 Symbolic Z-matrix:
 Charge =  0 Multiplicity = 1

                         Standard orientation:
 ---------------------------------------------------------------------
 Center     Atomic      Atomic             Coordinates (Angstroms)
 Number     Number       Type             X           Y           Z
 ---------------------------------------------------------------------
      1          6           0       -3.177982    0.869814   -0.127892
      2          6           0       -3.480008    2.332858    0.198092
      3          6           0       -2.300067    3.259754   -0.095842
      4          1           0       -2.302013    0.545239    0.450273
      5          1           0       -2.900888    0.787267   -1.187987
      6          1           0       -3.757792    2.412417    1.256923
      7          1           0       -4.355476    2.653931   -0.380772
      8          1           0       -2.025485    3.209973   -1.154486
      9          1           0       -1.424405    2.967087    0.492514
     10          1           0       -2.537734    4.300740    0.144412
     11          6           0       -4.347960   -0.069141    0.160627
     12          6           0       -4.045934   -1.532186   -0.165357
     13          6           0       -5.225875   -2.459082    0.128576
     14          1           0       -4.625054    0.013405    1.220721
     15          1           0       -5.223929    0.255433   -0.417538
     16          1           0       -3.170465   -1.853259    0.413507
     17          1           0       -3.768150   -1.611744   -1.224188
     18          1           0       -6.101537   -2.166414   -0.459780
     19          1           0       -5.500457   -2.409301    1.187220
     20          1           0       -4.988208   -3.500068   -0.111678
     21          6           0        0.575331   -1.185973   -0.125084
     22          6           0        0.814047    0.192179   -0.140264
     23          6           0        2.120040    0.687268   -0.078501
     24          6           0        3.168411   -0.228344   -0.001931
     25          6           0        2.962882   -1.607024    0.015088
     26          6           0        1.648618   -2.079601   -0.047593
     27          1           0       -0.442409   -1.561827   -0.173420
     28          1           0       -0.017543    0.888520   -0.200386
     29          1           0        2.333355    1.749254   -0.088581
     30          1           0        3.812290   -2.276544    0.075641
     31          1           0        1.466216   -3.150410   -0.035629
     32          7           0        4.555386    0.283869    0.063941
     33          8           0        5.461747   -0.543578    0.130877
     34          8           0        4.709874    1.503088    0.047389
 ---------------------------------------------------------------------

 SCF Done:  E(RHF) =  -669.535353812     A.U. after   15 cycles
 E2 =    -0.2092645060D+01 EUMP2 =    -0.67162799887233D+03

 The electronic state is 1-A.
 Alpha  occ. eigenvalues --  -20.60674 -20.60669 -15.85726 -11.31066 -11.27638
 Alpha  occ. eigenvalues --  -11.27613 -11.27330 -11.26645 -11.26546 -11.22784
 Alpha  occ. eigenvalues --  -11.22700 -11.22630 -11.22461 -11.22166 -11.21985
 Alpha  occ. eigenvalues --   -1.59751  -1.39305  -1.19229  -1.09591  -1.08624
 Alpha  occ. eigenvalues --   -1.04655  -1.04591  -0.97058  -0.95468  -0.88073
 Alpha  occ. eigenvalues --   -0.86034  -0.82304  -0.80693  -0.79471  -0.77348
 Alpha  occ. eigenvalues --   -0.71945  -0.71074  -0.70334  -0.66231  -0.64876
 Alpha  occ. eigenvalues --   -0.64626  -0.62117  -0.61879  -0.60413  -0.58686
 Alpha  occ. eigenvalues --   -0.56342  -0.55118  -0.53712  -0.53497  -0.52963
 Alpha  occ. eigenvalues --   -0.52743  -0.50996  -0.49003  -0.48702  -0.48682
 Alpha  occ. eigenvalues --   -0.47707  -0.46919  -0.46862  -0.44881  -0.44716
 Alpha  occ. eigenvalues --   -0.37206  -0.36233
 Alpha virt. eigenvalues --    0.05169   0.11354   0.16654   0.19379   0.21767
 Alpha virt. eigenvalues --    0.22621   0.24996   0.25735   0.25987   0.28263
 Alpha virt. eigenvalues --    0.29785   0.30154   0.30702   0.31342   0.31663

 Mulliken charges:
               1
     1  C   -0.307460
     2  C   -0.299516
     3  C   -0.481552
     4  H    0.144912
     5  H    0.150496
     6  H    0.156047
     7  H    0.156774
     8  H    0.156736
     9  H    0.151217
    10  H    0.168031
    11  C   -0.297746
    12  C   -0.304209
    13  C   -0.475991
    14  H    0.153414
    15  H    0.154499
    16  H    0.146638
    17  H    0.152701
    18  H    0.158726
    19  H    0.157984
    20  H    0.161757
    21  C   -0.178326
    22  C   -0.229343
    23  C   -0.173011
    24  C    0.158646
    25  C   -0.171236
    26  C   -0.219410
    27  H    0.232157
    28  H    0.237204
    29  H    0.275369
    30  H    0.275037
    31  H    0.222978
    32  N    0.488018
    33  O   -0.460888
    34  O   -0.460654
 Sum of Mulliken charges =  -0.00000

 Dipole moment (field-independent basis, Debye):
    X=             -5.2677    Y=             -1.7045    Z=             -0.2316  Tot=              5.5415
 Quadrupole moment (field-independent basis, Debye-Ang):
   XX=           -124.7553   YY=            -89.6399   ZZ=            -94.7433
   XY=             -7.3689   XZ=             -0.2543   YZ=             -0.1452

 Normal termination of Gaussian 16 at Thu May  6 12:00:57 2021.
