 Gaussian 16, Revision A.03,
 Gaussian 16:  EM64L-G16RevA.03 25-Dec-2016

 -------------
 #p 6-31g* mp2
 -------------

 ------------------------------------------------------
 Input file generated by CHIRIPA (05-May-2021 14:53:15)
 ------------------------------------------------------
 Symbolic Z-matrix:
 Charge =  0 Multiplicity = 1

                         Standard orientation:
 ---------------------------------------------------------------------
 Center     Atomic      Atomic             Coordinates (Angstroms)
 Number     Number       Type             X           Y           Z
 ---------------------------------------------------------------------
      1          6           0        3.088434   -0.502732    0.079006
      2          6           0        3.801606   -1.400177   -0.932904
      3          6           0        3.709769   -2.883854   -0.575043
      4          1           0        3.520809   -0.668531    1.075253
      5          1           0        2.032748   -0.800795    0.142888
      6          1           0        4.855318   -1.099609   -0.995878
      7          1           0        3.367613   -1.232082   -1.926891
      8          1           0        2.664227   -3.205648   -0.531556
      9          1           0        4.160385   -3.072422    0.404747
     10          1           0        4.226233   -3.507210   -1.311625
     11          6           0        3.171430    0.983354   -0.265070
     12          6           0        2.458258    1.880799    0.746841
     13          6           0        2.550095    3.364475    0.388979
     14          1           0        4.227116    1.281416   -0.328951
     15          1           0        2.739056    1.149153   -1.261317
     16          1           0        2.892251    1.712704    1.740828
     17          1           0        1.404546    1.580230    0.809815
     18          1           0        2.099479    3.553043   -0.590811
     19          1           0        3.595637    3.686269    0.345492
     20          1           0        2.033632    3.987831    1.125561
     21          6           0       -2.000396   -2.562141    0.800864
     22          6           0       -3.087011   -2.277525   -0.032671
     23          6           0       -3.343048   -0.965614   -0.442405
     24          6           0       -2.488268    0.041805    0.002283
     25          6           0       -1.397573   -0.209930    0.833130
     26          6           0       -1.160625   -1.529257    1.230347
     27          1           0       -1.808914   -3.584146    1.114294
     28          1           0       -3.740862   -3.077673   -0.367765
     29          1           0       -4.177147   -0.717183   -1.087369
     30          1           0       -0.763420    0.608816    1.150812
     31          1           0       -0.315999   -1.747349    1.877716
     32          7           0       -2.749218    1.434592   -0.424858
     33          8           0       -1.981265    2.304299   -0.019279
     34          8           0       -3.716763    1.630178   -1.157143
 ---------------------------------------------------------------------

 SCF Done:  E(RHF) =  -669.535773904     A.U. after   15 cycles
 E2 =    -0.2092219732D+01 EUMP2 =    -0.67162799363681D+03

 The electronic state is 1-A.
 Alpha  occ. eigenvalues --  -20.60818 -20.60813 -15.85869 -11.31234 -11.27811
 Alpha  occ. eigenvalues --  -11.27794 -11.27546 -11.26824 -11.26810 -11.21905
 Alpha  occ. eigenvalues --  -11.21725 -11.21700 -11.21492 -11.21480 -11.20804
 Alpha  occ. eigenvalues --   -1.59892  -1.39446  -1.19413  -1.08804  -1.08639
 Alpha  occ. eigenvalues --   -1.04814  -1.03676  -0.96110  -0.95639  -0.87127
 Alpha  occ. eigenvalues --   -0.86210  -0.82469  -0.79771  -0.78488  -0.77506
 Alpha  occ. eigenvalues --   -0.72087  -0.71214  -0.70523  -0.65283  -0.65060
 Alpha  occ. eigenvalues --   -0.64810  -0.62177  -0.61045  -0.59498  -0.57730
 Alpha  occ. eigenvalues --   -0.55399  -0.55312  -0.53144  -0.52928  -0.52774
 Alpha  occ. eigenvalues --   -0.52529  -0.50043  -0.48847  -0.48843  -0.48073
 Alpha  occ. eigenvalues --   -0.46799  -0.46002  -0.45911  -0.44846  -0.43939
 Alpha  occ. eigenvalues --   -0.37390  -0.36398
 Alpha virt. eigenvalues --    0.04967   0.11190   0.16375   0.20211   0.22962
 Alpha virt. eigenvalues --    0.23795   0.25136   0.26838   0.27641   0.27897
 Alpha virt. eigenvalues --    0.29243   0.30304   0.31427   0.31549   0.32167

 Mulliken charges:
               1
     1  C   -0.301443
     2  C   -0.299279
     3  C   -0.475827
     4  H    0.147386
     5  H    0.144922
     6  H    0.153787
     7  H    0.154428
     8  H    0.151473
     9  H    0.154097
    10  H    0.161942
    11  C   -0.298150
    12  C   -0.305699
    13  C   -0.474147
    14  H    0.150836
    15  H    0.153740
    16  H    0.149096
    17  H    0.151362
    18  H    0.162244
    19  H    0.152894
    20  H    0.164111
    21  C   -0.171173
    22  C   -0.218681
    23  C   -0.170235
    24  C    0.157409
    25  C   -0.178117
    26  C   -0.222173
    27  H    0.226165
    28  H    0.223745
    29  H    0.275817
    30  H    0.287560
    31  H    0.226021
    32  N    0.487212
    33  O   -0.461284
    34  O   -0.460037
 Sum of Mulliken charges =  -0.00000

 Dipole moment (field-independent basis, Debye):
    X=              0.9117    Y=             -4.8031    Z=              1.4252  Tot=              5.0924
 Quadrupole moment (field-independent basis, Debye-Ang):
   XX=            -95.6100   YY=            -96.0864   ZZ=            -93.7166
   XY=             14.1527   XZ=             -1.1539   YZ=              1.0627

 Normal termination of Gaussian 16 at Wed May  5 20:18:12 2021.
