 Gaussian 16, Revision A.03,
 Gaussian 16:  EM64L-G16RevA.03 25-Dec-2016

 -------------
 #p 6-31g* mp2
 -------------

 ------------------------------------------------------
 Input file generated by CHIRIPA (05-May-2021 14:55:20)
 ------------------------------------------------------
 Symbolic Z-matrix:
 Charge =  0 Multiplicity = 1

                         Standard orientation:
 ---------------------------------------------------------------------
 Center     Atomic      Atomic             Coordinates (Angstroms)
 Number     Number       Type             X           Y           Z
 ---------------------------------------------------------------------
      1          6           0        5.093154    2.032978    0.080564
      2          6           0        5.648425    0.789406   -0.238377
      3          6           0        4.834388   -0.340075   -0.365520
      4          6           0        3.462989   -0.189190   -0.166054
      5          6           0        2.879866    1.036239    0.152665
      6          6           0        3.713080    2.152216    0.274725
      7          1           0        5.732966    2.905141    0.177358
      8          1           0        6.719875    0.693837   -0.389721
      9          1           0        5.237883   -1.314784   -0.611594
     10          1           0        1.808279    1.100237    0.297667
     11          1           0        3.279084    3.116735    0.522506
     12          7           0        2.591053   -1.377772   -0.297965
     13          8           0        1.385813   -1.218441   -0.117283
     14          8           0        3.129381   -2.446208   -0.579540
     15          6           0       -5.151533    0.533148    0.123285
     16          6           0       -6.361618    0.099244   -0.704608
     17          6           0       -7.423182    1.193740   -0.818420
     18          1           0       -5.488021    0.825415    1.127427
     19          1           0       -4.707745    1.429862   -0.330975
     20          1           0       -6.802166   -0.797193   -0.249706
     21          1           0       -6.022188   -0.192206   -1.706835
     22          1           0       -7.005450    2.087763   -1.292575
     23          1           0       -7.789859    1.479339    0.172833
     24          1           0       -8.279286    0.862270   -1.414301
     25          6           0       -4.081603   -0.550309    0.246159
     26          6           0       -2.871519   -0.116403    1.074051
     27          6           0       -1.809954   -1.210901    1.187864
     28          1           0       -4.525392   -1.447022    0.700419
     29          1           0       -3.745116   -0.842575   -0.757983
     30          1           0       -3.210949    0.175046    2.076279
     31          1           0       -2.430971    0.780033    0.619150
     32          1           0       -1.443278   -1.496499    0.196611
     33          1           0       -2.227687   -2.104923    1.662019
     34          1           0       -0.953851   -0.879430    1.783746
 ---------------------------------------------------------------------

 SCF Done:  E(RHF) =  -669.535494719     A.U. after   15 cycles
 E2 =    -0.2091004986D+01 EUMP2 =    -0.67162649970462D+03

 The electronic state is 1-A.
 Alpha  occ. eigenvalues --  -20.60856 -20.60849 -15.85894 -11.31252 -11.27820
 Alpha  occ. eigenvalues --  -11.27816 -11.27563 -11.26835 -11.26825 -11.21193
 Alpha  occ. eigenvalues --  -11.20894 -11.20771 -11.20760 -11.20680 -11.19651
 Alpha  occ. eigenvalues --   -1.59926  -1.39481  -1.19424  -1.08823  -1.07817
 Alpha  occ. eigenvalues --   -1.04826  -1.02831  -0.95669  -0.95232  -0.86255
 Alpha  occ. eigenvalues --   -0.86214  -0.82493  -0.78918  -0.77633  -0.77519
 Alpha  occ. eigenvalues --   -0.72125  -0.71243  -0.70533  -0.65082  -0.64829
 Alpha  occ. eigenvalues --   -0.64452  -0.62173  -0.60224  -0.58666  -0.56863
 Alpha  occ. eigenvalues --   -0.55328  -0.54512  -0.53157  -0.52918  -0.51902
 Alpha  occ. eigenvalues --   -0.51665  -0.49227  -0.48876  -0.48806  -0.47210
 Alpha  occ. eigenvalues --   -0.45958  -0.45145  -0.45068  -0.44888  -0.43069
 Alpha  occ. eigenvalues --   -0.37406  -0.36429
 Alpha virt. eigenvalues --    0.04979   0.11225   0.16464   0.21240   0.23399
 Alpha virt. eigenvalues --    0.24769   0.27070   0.27306   0.27848   0.28150
 Alpha virt. eigenvalues --    0.29104   0.30911   0.31908   0.32313   0.32360

 Mulliken charges:
               1
     1  C   -0.170717
     2  C   -0.218575
     3  C   -0.170707
     4  C    0.157714
     5  C   -0.171204
     6  C   -0.218546
     7  H    0.225833
     8  H    0.223661
     9  H    0.275785
    10  H    0.275916
    11  H    0.223743
    12  N    0.493596
    13  O   -0.464076
    14  O   -0.459704
    15  C   -0.297347
    16  C   -0.299247
    17  C   -0.475279
    18  H    0.147893
    19  H    0.147061
    20  H    0.151847
    21  H    0.152058
    22  H    0.153924
    23  H    0.154285
    24  H    0.159282
    25  C   -0.297810
    26  C   -0.300112
    27  C   -0.473393
    28  H    0.149056
    29  H    0.151128
    30  H    0.146361
    31  H    0.145155
    32  H    0.173674
    33  H    0.149091
    34  H    0.159654
 Sum of Mulliken charges =  -0.00000

 Dipole moment (field-independent basis, Debye):
    X=              3.3283    Y=              4.0847    Z=              0.3960  Tot=              5.2839
 Quadrupole moment (field-independent basis, Debye-Ang):
   XX=            -71.9537   YY=            -95.5062   ZZ=            -95.0843
   XY=             12.5870   XZ=             -0.2195   YZ=             -0.2071

 Normal termination of Gaussian 16 at Wed May  5 17:22:01 2021.
