 Gaussian 16, Revision A.03,
 Gaussian 16:  EM64L-G16RevA.03 25-Dec-2016

 -------------
 #p 6-31g* mp2
 -------------

 ------------------------------------------------------
 Input file generated by CHIRIPA (05-May-2021 14:57:22)
 ------------------------------------------------------
 Symbolic Z-matrix:
 Charge =  0 Multiplicity = 1

                         Standard orientation:
 ---------------------------------------------------------------------
 Center     Atomic      Atomic             Coordinates (Angstroms)
 Number     Number       Type             X           Y           Z
 ---------------------------------------------------------------------
      1          6           0       -2.633532   -1.848395    0.787884
      2          6           0       -2.251588   -0.551214    0.430166
      3          6           0       -3.202009    0.370248   -0.019451
      4          6           0       -4.531567   -0.041059   -0.099410
      5          6           0       -4.943318   -1.326314    0.249688
      6          6           0       -3.975811   -2.231130    0.696664
      7          1           0       -1.888586   -2.557743    1.136132
      8          1           0       -1.209877   -0.251204    0.499997
      9          1           0       -2.933861    1.380798   -0.302831
     10          1           0       -5.989338   -1.596163    0.169428
     11          1           0       -4.275320   -3.237875    0.973797
     12          7           0       -5.546778    0.925641   -0.574001
     13          8           0       -6.711712    0.538613   -0.635455
     14          8           0       -5.158345    2.052063   -0.875546
     15          6           0        2.681247    1.836169    0.947278
     16          6           0        3.985943    2.256525    0.668727
     17          6           0        4.926771    1.358822    0.155382
     18          6           0        4.526953    0.042241   -0.068339
     19          6           0        3.234634   -0.406875    0.199048
     20          6           0        2.310410    0.508153    0.711964
     21          1           0        1.956840    2.540255    1.345890
     22          1           0        4.276747    3.287273    0.850482
     23          1           0        5.943512    1.657505   -0.069211
     24          1           0        2.974318   -1.440765    0.007409
     25          1           0        1.297867    0.178897    0.927353
     26          7           0        5.514176   -0.917288   -0.611568
     27          8           0        5.136972   -2.071804   -0.799840
     28          8           0        6.646474   -0.496681   -0.838792
 ---------------------------------------------------------------------

 SCF Done:  E(RHF) =  -868.336616891     A.U. after   16 cycles
 E2 =    -0.2599338584D+01 EUMP2 =    -0.87093595547512D+03

 The electronic state is 1-A.
 Alpha  occ. eigenvalues --  -20.61267 -20.61256 -20.61233 -20.61223 -15.86325
 Alpha  occ. eigenvalues --  -15.86290 -11.31792 -11.31751 -11.28454 -11.28400
 Alpha  occ. eigenvalues --  -11.28350 -11.28309 -11.28170 -11.28133 -11.27567
 Alpha  occ. eigenvalues --  -11.27516 -11.27358 -11.27324  -1.60338  -1.60304
 Alpha  occ. eigenvalues --   -1.39889  -1.39855  -1.19992  -1.19950  -1.09367
 Alpha  occ. eigenvalues --   -1.09329  -1.05430  -1.05379  -0.96178  -0.96141
 Alpha  occ. eigenvalues --   -0.86847  -0.86761  -0.83029  -0.82975  -0.78075
 Alpha  occ. eigenvalues --   -0.77989  -0.72541  -0.72507  -0.71662  -0.71628
 Alpha  occ. eigenvalues --   -0.71093  -0.71057  -0.65660  -0.65647  -0.65608
 Alpha  occ. eigenvalues --   -0.65263  -0.62879  -0.62636  -0.55932  -0.55865
 Alpha  occ. eigenvalues --   -0.53733  -0.53688  -0.53681  -0.53344  -0.49313
 Alpha  occ. eigenvalues --   -0.49288  -0.49269  -0.49254  -0.45272  -0.45239
 Alpha  occ. eigenvalues --   -0.37968  -0.37930  -0.37028  -0.36980
 Alpha virt. eigenvalues --    0.04515   0.04552   0.10597   0.10674   0.15953
 Alpha virt. eigenvalues --    0.16013   0.17632   0.21884   0.24334   0.27511
 Alpha virt. eigenvalues --    0.27812   0.28430   0.29460   0.31451   0.31734

 Mulliken charges:
               1
     1  C   -0.171686
     2  C   -0.222083
     3  C   -0.171789
     4  C    0.159248
     5  C   -0.169755
     6  C   -0.218256
     7  H    0.226017
     8  H    0.219155
     9  H    0.275434
    10  H    0.277787
    11  H    0.226195
    12  N    0.488088
    13  O   -0.458442
    14  O   -0.460266
    15  C   -0.171540
    16  C   -0.218248
    17  C   -0.169494
    18  C    0.159156
    19  C   -0.171302
    20  C   -0.222807
    21  H    0.227096
    22  H    0.226454
    23  H    0.277994
    24  H    0.274539
    25  H    0.218966
    26  N    0.488149
    27  O   -0.460389
    28  O   -0.458221
 Sum of Mulliken charges =  -0.00000

 Dipole moment (field-independent basis, Debye):
    X=              0.1136    Y=             -0.0062    Z=              3.5598  Tot=              3.5616
 Quadrupole moment (field-independent basis, Debye-Ang):
   XX=           -162.4530   YY=            -99.4164   ZZ=           -107.0897
   XY=             36.9429   XZ=              0.4259   YZ=             -0.3867

 Normal termination of Gaussian 16 at Fri May  7 04:48:53 2021.
