 Gaussian 16, Revision A.03,
 Gaussian 16:  EM64L-G16RevA.03 25-Dec-2016

 -------------
 #p 6-31g* mp2
 -------------

 ------------------------------------------------------
 Input file generated by CHIRIPA (05-May-2021 14:53:13)
 ------------------------------------------------------
 Symbolic Z-matrix:
 Charge =  0 Multiplicity = 1

                         Standard orientation:
 ---------------------------------------------------------------------
 Center     Atomic      Atomic             Coordinates (Angstroms)
 Number     Number       Type             X           Y           Z
 ---------------------------------------------------------------------
      1          6           0       -3.421986    0.640821   -0.767998
      2          6           0       -2.909981    1.995696   -0.277948
      3          6           0       -3.118525    3.111966   -1.301787
      4          1           0       -2.911810    0.380458   -1.705482
      5          1           0       -4.491154    0.725345   -1.007020
      6          1           0       -1.842417    1.908286   -0.038608
      7          1           0       -3.421296    2.252775    0.658579
      8          1           0       -4.182142    3.228141   -1.533782
      9          1           0       -2.594293    2.881696   -2.234931
     10          1           0       -2.745374    4.071705   -0.930952
     11          6           0       -3.220567   -0.485211    0.244530
     12          6           0       -3.732573   -1.840086   -0.245520
     13          6           0       -3.524029   -2.956356    0.778319
     14          1           0       -2.151400   -0.569735    0.483552
     15          1           0       -3.730743   -0.224848    1.182014
     16          1           0       -3.221258   -2.097165   -1.182047
     17          1           0       -4.800136   -1.752677   -0.484860
     18          1           0       -4.048261   -2.726086    1.711463
     19          1           0       -2.460411   -3.072531    1.010314
     20          1           0       -3.897180   -3.916095    0.407483
     21          6           0        1.339795    0.804511    2.215023
     22          6           0        0.820966   -0.260266    1.470987
     23          6           0        1.507726   -0.747886    0.355131
     24          6           0        2.716072   -0.144439    0.010108
     25          6           0        3.258911    0.917879    0.731285
     26          6           0        2.554970    1.389154    1.843452
     27          1           0        0.799631    1.176957    3.080413
     28          1           0       -0.122536   -0.716247    1.757225
     29          1           0        1.128934   -1.570918   -0.238632
     30          1           0        4.201742    1.352002    0.421408
     31          1           0        2.960295    2.216209    2.419418
     32          7           0        3.452207   -0.652008   -1.169246
     33          8           0        4.514820   -0.103130   -1.452492
     34          8           0        2.952642   -1.589107   -1.788048
 ---------------------------------------------------------------------

 SCF Done:  E(RHF) =  -669.535643394     A.U. after   15 cycles
 E2 =    -0.2091850840D+01 EUMP2 =    -0.67162749423471D+03

 The electronic state is 1-A.
 Alpha  occ. eigenvalues --  -20.60799 -20.60794 -15.85853 -11.31230 -11.27810
 Alpha  occ. eigenvalues --  -11.27803 -11.27543 -11.26812 -11.26795 -11.22181
 Alpha  occ. eigenvalues --  -11.22096 -11.22043 -11.21856 -11.21719 -11.21395
 Alpha  occ. eigenvalues --   -1.59874  -1.39427  -1.19407  -1.08997  -1.08794
 Alpha  occ. eigenvalues --   -1.04813  -1.04044  -0.96502  -0.95628  -0.87515
 Alpha  occ. eigenvalues --   -0.86206  -0.82465  -0.80112  -0.78837  -0.77502
 Alpha  occ. eigenvalues --   -0.72071  -0.71198  -0.70506  -0.65675  -0.65056
 Alpha  occ. eigenvalues --   -0.64784  -0.62170  -0.61425  -0.59870  -0.58113
 Alpha  occ. eigenvalues --   -0.55804  -0.55300  -0.53194  -0.53119  -0.53011
 Alpha  occ. eigenvalues --   -0.52823  -0.50440  -0.48835  -0.48825  -0.48424
 Alpha  occ. eigenvalues --   -0.47143  -0.46344  -0.46266  -0.44831  -0.44312
 Alpha  occ. eigenvalues --   -0.37375  -0.36398
 Alpha virt. eigenvalues --    0.05016   0.11162   0.16405   0.19712   0.22780
 Alpha virt. eigenvalues --    0.23594   0.25233   0.26603   0.27492   0.28257
 Alpha virt. eigenvalues --    0.29010   0.30236   0.31294   0.31482   0.32080

 Mulliken charges:
               1
     1  C   -0.298146
     2  C   -0.302061
     3  C   -0.475963
     4  H    0.153411
     5  H    0.151707
     6  H    0.152622
     7  H    0.149610
     8  H    0.155974
     9  H    0.158171
    10  H    0.160264
    11  C   -0.302858
    12  C   -0.300659
    13  C   -0.475448
    14  H    0.143069
    15  H    0.148937
    16  H    0.155444
    17  H    0.155204
    18  H    0.155448
    19  H    0.148321
    20  H    0.164979
    21  C   -0.171787
    22  C   -0.220573
    23  C   -0.172515
    24  C    0.158483
    25  C   -0.170638
    26  C   -0.218610
    27  H    0.226665
    28  H    0.228643
    29  H    0.275334
    30  H    0.275850
    31  H    0.223709
    32  N    0.488122
    33  O   -0.460280
    34  O   -0.460429
 Sum of Mulliken charges =  -0.00000

 Dipole moment (field-independent basis, Debye):
    X=             -2.6716    Y=              1.8115    Z=              4.0846  Tot=              5.2060
 Quadrupole moment (field-independent basis, Debye-Ang):
   XX=           -105.3302   YY=            -94.0089   ZZ=            -95.3748
   XY=              8.1804   XZ=             11.8577   YZ=              0.7773

 Normal termination of Gaussian 16 at Wed May  5 17:03:16 2021.
