 Gaussian 16, Revision A.03,
 Gaussian 16:  EM64L-G16RevA.03 25-Dec-2016

 -------------
 #p 6-31g* mp2
 -------------

 ------------------------------------------------------
 Input file generated by CHIRIPA (05-May-2021 14:57:21)
 ------------------------------------------------------
 Symbolic Z-matrix:
 Charge =  0 Multiplicity = 1

                         Standard orientation:
 ---------------------------------------------------------------------
 Center     Atomic      Atomic             Coordinates (Angstroms)
 Number     Number       Type             X           Y           Z
 ---------------------------------------------------------------------
      1          6           0        5.262144   -0.377796   -1.508987
      2          6           0        4.156681   -1.234805   -1.506180
      3          6           0        3.150112   -1.092115   -0.546490
      4          6           0        3.281740   -0.077074    0.399902
      5          6           0        4.371005    0.792550    0.423239
      6          6           0        5.365596    0.631368   -0.545966
      7          1           0        6.039419   -0.495824   -2.258193
      8          1           0        4.073698   -2.019421   -2.252864
      9          1           0        2.283592   -1.741672   -0.521258
     10          1           0        4.425896    1.565352    1.180326
     11          1           0        6.222990    1.298390   -0.545729
     12          7           0        2.222471    0.083774    1.420919
     13          8           0        2.361933    0.985913    2.243922
     14          8           0        1.272812   -0.695338    1.378857
     15          6           0       -4.143575   -2.280633    0.225665
     16          6           0       -5.112573   -1.274524    0.152797
     17          6           0       -4.743267    0.049950   -0.100046
     18          6           0       -3.389880    0.334082   -0.275835
     19          6           0       -2.400946   -0.646148   -0.209120
     20          6           0       -2.793234   -1.963792    0.044792
     21          1           0       -4.439387   -3.306863    0.422496
     22          1           0       -6.162005   -1.517670    0.292856
     23          1           0       -5.472700    0.848417   -0.161652
     24          1           0       -1.362625   -0.373026   -0.353045
     25          1           0       -2.038524   -2.743097    0.100838
     26          7           0       -2.986746    1.732628   -0.544076
     27          8           0       -1.787820    1.956993   -0.695310
     28          8           0       -3.877331    2.577960   -0.598007
 ---------------------------------------------------------------------

 SCF Done:  E(RHF) =  -868.338838116     A.U. after   16 cycles
 E2 =    -0.2598878622D+01 EUMP2 =    -0.87093771673785D+03

 The electronic state is 1-A.
 Alpha  occ. eigenvalues --  -20.61001 -20.60913 -20.60074 -20.60055 -15.85999
 Alpha  occ. eigenvalues --  -15.85119 -11.31274 -11.30404 -11.27891 -11.27794
 Alpha  occ. eigenvalues --  -11.27556 -11.27043 -11.26888 -11.26859 -11.26804
 Alpha  occ. eigenvalues --  -11.26787 -11.26058 -11.25962  -1.60003  -1.59141
 Alpha  occ. eigenvalues --   -1.39572  -1.38696  -1.19434  -1.18595  -1.08842
 Alpha  occ. eigenvalues --   -1.08020  -1.04835  -1.03981  -0.95698  -0.94857
 Alpha  occ. eigenvalues --   -0.86239  -0.85395  -0.82546  -0.81687  -0.77607
 Alpha  occ. eigenvalues --   -0.76726  -0.72235  -0.71354  -0.71289  -0.70558
 Alpha  occ. eigenvalues --   -0.70457  -0.69719  -0.65101  -0.64845  -0.64256
 Alpha  occ. eigenvalues --   -0.64001  -0.62198  -0.61317  -0.55338  -0.54536
 Alpha  occ. eigenvalues --   -0.53151  -0.52936  -0.52327  -0.52080  -0.48992
 Alpha  occ. eigenvalues --   -0.48954  -0.48103  -0.48091  -0.44989  -0.44117
 Alpha  occ. eigenvalues --   -0.37397  -0.36608  -0.36428  -0.35573
 Alpha virt. eigenvalues --    0.04918   0.05803   0.11225   0.12071   0.16406
 Alpha virt. eigenvalues --    0.17284   0.21165   0.22173   0.26845   0.27619
 Alpha virt. eigenvalues --    0.28504   0.29146   0.31034   0.31676   0.32340

 Mulliken charges:
               1
     1  C   -0.170249
     2  C   -0.217716
     3  C   -0.169838
     4  C    0.161001
     5  C   -0.169244
     6  C   -0.218021
     7  H    0.226188
     8  H    0.222594
     9  H    0.268461
    10  H    0.277361
    11  H    0.224661
    12  N    0.491465
    13  O   -0.453061
    14  O   -0.470992
    15  C   -0.171045
    16  C   -0.219391
    17  C   -0.171290
    18  C    0.157076
    19  C   -0.167007
    20  C   -0.218711
    21  H    0.222675
    22  H    0.220450
    23  H    0.273285
    24  H    0.283097
    25  H    0.223031
    26  N    0.488432
    27  O   -0.459553
    28  O   -0.463662
 Sum of Mulliken charges =  -0.00000

 Dipole moment (field-independent basis, Debye):
    X=              2.6745    Y=             -5.3721    Z=             -2.5754  Tot=              6.5303
 Quadrupole moment (field-independent basis, Debye-Ang):
   XX=            -65.6440   YY=           -105.8220   ZZ=           -108.8395
   XY=             15.2305   XZ=            -12.5805   YZ=              3.7568

 Normal termination of Gaussian 16 at Thu May  6 06:28:40 2021.
