 Gaussian 16, Revision A.03,
 Gaussian 16:  EM64L-G16RevA.03 25-Dec-2016

 -------------
 #p 6-31g* mp2
 -------------

 ------------------------------------------------------
 Input file generated by CHIRIPA (05-May-2021 14:55:25)
 ------------------------------------------------------
 Symbolic Z-matrix:
 Charge =  0 Multiplicity = 1

                         Standard orientation:
 ---------------------------------------------------------------------
 Center     Atomic      Atomic             Coordinates (Angstroms)
 Number     Number       Type             X           Y           Z
 ---------------------------------------------------------------------
      1          6           0        1.149977   -2.021745   -0.071476
      2          6           0        2.458413   -2.476084    0.123698
      3          6           0        3.527187   -1.575066    0.144589
      4          6           0        3.250112   -0.220552   -0.033768
      5          6           0        1.957504    0.262984   -0.230358
      6          6           0        0.904132   -0.656069   -0.247570
      7          1           0        0.325710   -2.728683   -0.086276
      8          1           0        2.652311   -3.536118    0.260724
      9          1           0        4.549857   -1.899564    0.293802
     10          1           0        1.795533    1.325665   -0.364118
     11          1           0       -0.110997   -0.300369   -0.399342
     12          7           0        4.373423    0.742862   -0.013599
     13          8           0        4.102881    1.931136   -0.173125
     14          8           0        5.503145    0.291470    0.161354
     15          6           0       -3.896851    1.230482   -0.119293
     16          6           0       -2.625249    1.918656    0.378131
     17          6           0       -2.587272    3.408596    0.036914
     18          1           0       -3.975184    1.361044   -1.207301
     19          1           0       -4.771538    1.730441    0.319292
     20          1           0       -1.753172    1.416671   -0.060173
     21          1           0       -2.549834    1.786276    1.465055
     22          1           0       -3.438847    3.928775    0.487287
     23          1           0       -2.637658    3.557070   -1.046608
     24          1           0       -1.669756    3.880746    0.401738
     25          6           0       -3.949491   -0.259387    0.214248
     26          6           0       -5.221092   -0.947561   -0.283175
     27          6           0       -5.259069   -2.437501    0.058043
     28          1           0       -3.074803   -0.759347   -0.224337
     29          1           0       -3.871158   -0.389949    1.302257
     30          1           0       -5.296507   -0.815181   -1.370099
     31          1           0       -6.093169   -0.445576    0.155129
     32          1           0       -5.208682   -2.585974    1.141564
     33          1           0       -4.407494   -2.957680   -0.392331
     34          1           0       -6.176585   -2.909651   -0.306783
 ---------------------------------------------------------------------

 SCF Done:  E(RHF) =  -669.535449802     A.U. after   15 cycles
 E2 =    -0.2091349153D+01 EUMP2 =    -0.67162679895485D+03

 The electronic state is 1-A.
 Alpha  occ. eigenvalues --  -20.60729 -20.60723 -15.85782 -11.31140 -11.27710
 Alpha  occ. eigenvalues --  -11.27700 -11.27447 -11.26726 -11.26690 -11.22520
 Alpha  occ. eigenvalues --  -11.22363 -11.22299 -11.22176 -11.21799 -11.21696
 Alpha  occ. eigenvalues --   -1.59804  -1.39358  -1.19311  -1.09268  -1.08707
 Alpha  occ. eigenvalues --   -1.04715  -1.04305  -0.96732  -0.95544  -0.87745
 Alpha  occ. eigenvalues --   -0.86115  -0.82381  -0.80381  -0.79105  -0.77423
 Alpha  occ. eigenvalues --   -0.72000  -0.71127  -0.70421  -0.65935  -0.64963
 Alpha  occ. eigenvalues --   -0.64709  -0.62114  -0.61659  -0.60097  -0.58351
 Alpha  occ. eigenvalues --   -0.56017  -0.55217  -0.53410  -0.53157  -0.53043
 Alpha  occ. eigenvalues --   -0.52822  -0.50672  -0.48777  -0.48755  -0.48668
 Alpha  occ. eigenvalues --   -0.47419  -0.46618  -0.46546  -0.44765  -0.44569
 Alpha  occ. eigenvalues --   -0.37292  -0.36314
 Alpha virt. eigenvalues --    0.05108   0.11333   0.16592   0.18796   0.22695
 Alpha virt. eigenvalues --    0.23394   0.24558   0.26311   0.26880   0.27814
 Alpha virt. eigenvalues --    0.29475   0.30198   0.31033   0.31339   0.32098

 Mulliken charges:
               1
     1  C   -0.172258
     2  C   -0.218496
     3  C   -0.171247
     4  C    0.158712
     5  C   -0.173438
     6  C   -0.226031
     7  H    0.225873
     8  H    0.223203
     9  H    0.275433
    10  H    0.275290
    11  H    0.234604
    12  N    0.488103
    13  O   -0.460492
    14  O   -0.460673
    15  C   -0.298789
    16  C   -0.303979
    17  C   -0.476484
    18  H    0.151325
    19  H    0.153895
    20  H    0.142869
    21  H    0.155897
    22  H    0.158696
    23  H    0.156856
    24  H    0.163765
    25  C   -0.298372
    26  C   -0.300242
    27  C   -0.475693
    28  H    0.139670
    29  H    0.152067
    30  H    0.153544
    31  H    0.155250
    32  H    0.156273
    33  H    0.151518
    34  H    0.163355
 Sum of Mulliken charges =  -0.00000

 Dipole moment (field-independent basis, Debye):
    X=             -4.1974    Y=             -3.2970    Z=             -0.0252  Tot=              5.3375
 Quadrupole moment (field-independent basis, Debye-Ang):
   XX=           -117.6062   YY=            -91.3902   ZZ=            -94.7265
   XY=            -13.5784   XZ=             -0.0187   YZ=             -0.1241

 Normal termination of Gaussian 16 at Thu May  6 07:59:10 2021.
