 Gaussian 16, Revision A.03,
 Gaussian 16:  EM64L-G16RevA.03 25-Dec-2016

 -------------
 #p 6-31g* mp2
 -------------

 ------------------------------------------------------
 Input file generated by CHIRIPA (05-May-2021 14:53:12)
 ------------------------------------------------------
 Symbolic Z-matrix:
 Charge =  0 Multiplicity = 1

                         Standard orientation:
 ---------------------------------------------------------------------
 Center     Atomic      Atomic             Coordinates (Angstroms)
 Number     Number       Type             X           Y           Z
 ---------------------------------------------------------------------
      1          6           0       -4.316056   -0.351826    0.173734
      2          6           0       -4.589639   -1.401311   -0.904096
      3          6           0       -5.343929   -2.617878   -0.366690
      4          1           0       -3.739246   -0.812706    0.987260
      5          1           0       -5.270617   -0.028559    0.611578
      6          1           0       -3.634941   -1.721490   -1.340735
      7          1           0       -5.165700   -0.937829   -1.715239
      8          1           0       -6.310322   -2.318152    0.051459
      9          1           0       -4.770866   -3.106266    0.428091
     10          1           0       -5.528942   -3.355449   -1.153850
     11          6           0       -3.562677    0.870385   -0.348136
     12          6           0       -3.289094    1.919871    0.729694
     13          6           0       -2.534804    3.136438    0.192289
     14          1           0       -2.608116    0.547119   -0.785980
     15          1           0       -4.139487    1.331266   -1.161662
     16          1           0       -2.713033    1.456389    1.540837
     17          1           0       -4.243792    2.240050    1.166333
     18          1           0       -3.107867    3.624825   -0.602493
     19          1           0       -1.568411    2.836712   -0.225861
     20          1           0       -2.349791    3.874008    0.979448
     21          6           0        0.629868   -0.254152    0.677818
     22          6           0        1.477662   -1.284501    1.097517
     23          6           0        2.835602   -1.266268    0.765530
     24          6           0        3.314271   -0.197575    0.009183
     25          6           0        2.494880    0.843760   -0.423842
     26          6           0        1.140283    0.804823   -0.080187
     27          1           0       -0.423714   -0.276358    0.940245
     28          1           0        1.084030   -2.108174    1.686297
     29          1           0        3.514249   -2.050895    1.077328
     30          1           0        2.916383    1.651574   -1.009666
     31          1           0        0.484214    1.606372   -0.407506
     32          7           0        4.750090   -0.167313   -0.348453
     33          8           0        5.147222    0.785405   -1.015726
     34          8           0        5.451170   -1.096885    0.045277
 ---------------------------------------------------------------------

 SCF Done:  E(RHF) =  -669.535335998     A.U. after   15 cycles
 E2 =    -0.2091948551D+01 EUMP2 =    -0.67162728454927D+03

 The electronic state is 1-A.
 Alpha  occ. eigenvalues --  -20.60753 -20.60748 -15.85806 -11.31177 -11.27747
 Alpha  occ. eigenvalues --  -11.27741 -11.27487 -11.26766 -11.26746 -11.22788
 Alpha  occ. eigenvalues --  -11.22515 -11.22426 -11.22363 -11.22285 -11.21765
 Alpha  occ. eigenvalues --   -1.59828  -1.39381  -1.19350  -1.09484  -1.08744
 Alpha  occ. eigenvalues --   -1.04756  -1.04525  -0.96976  -0.95578  -0.87990
 Alpha  occ. eigenvalues --   -0.86156  -0.82411  -0.80591  -0.79267  -0.77459
 Alpha  occ. eigenvalues --   -0.72025  -0.71151  -0.70477  -0.66163  -0.65000
 Alpha  occ. eigenvalues --   -0.64768  -0.62213  -0.61820  -0.60334  -0.58567
 Alpha  occ. eigenvalues --   -0.56320  -0.55235  -0.53638  -0.53409  -0.53080
 Alpha  occ. eigenvalues --   -0.52838  -0.50912  -0.48901  -0.48779  -0.48774
 Alpha  occ. eigenvalues --   -0.47639  -0.46798  -0.46741  -0.44786  -0.44781
 Alpha  occ. eigenvalues --   -0.37330  -0.36356
 Alpha virt. eigenvalues --    0.05071   0.11270   0.16538   0.17427   0.22150
 Alpha virt. eigenvalues --    0.23827   0.24485   0.25228   0.26748   0.28279
 Alpha virt. eigenvalues --    0.29233   0.30620   0.30791   0.31573   0.31817

 Mulliken charges:
               1
     1  C   -0.298527
     2  C   -0.300483
     3  C   -0.476003
     4  H    0.144279
     5  H    0.153667
     6  H    0.151907
     7  H    0.154823
     8  H    0.156963
     9  H    0.154097
    10  H    0.163247
    11  C   -0.301531
    12  C   -0.302494
    13  C   -0.478800
    14  H    0.144213
    15  H    0.155340
    16  H    0.147222
    17  H    0.158362
    18  H    0.161318
    19  H    0.147059
    20  H    0.166020
    21  C   -0.177531
    22  C   -0.218976
    23  C   -0.170914
    24  C    0.158914
    25  C   -0.172298
    26  C   -0.225518
    27  H    0.230411
    28  H    0.223448
    29  H    0.275540
    30  H    0.276344
    31  H    0.232765
    32  N    0.487941
    33  O   -0.460301
    34  O   -0.460505
 Sum of Mulliken charges =  -0.00000

 Dipole moment (field-independent basis, Debye):
    X=             -5.3251    Y=             -0.0580    Z=              1.2286  Tot=              5.4653
 Quadrupole moment (field-independent basis, Debye-Ang):
   XX=           -127.0786   YY=            -91.4128   ZZ=            -94.2099
   XY=             -1.2145   XZ=              5.0079   YZ=             -2.5219

 Normal termination of Gaussian 16 at Thu May  6 15:20:57 2021.
