 Gaussian 16, Revision A.03,
 Gaussian 16:  EM64L-G16RevA.03 25-Dec-2016

 -------------
 #p 6-31g* mp2
 -------------

 ------------------------------------------------------
 Input file generated by CHIRIPA (05-May-2021 14:53:13)
 ------------------------------------------------------
 Symbolic Z-matrix:
 Charge =  0 Multiplicity = 1

                         Standard orientation:
 ---------------------------------------------------------------------
 Center     Atomic      Atomic             Coordinates (Angstroms)
 Number     Number       Type             X           Y           Z
 ---------------------------------------------------------------------
      1          6           0       -2.833142    0.636400    0.130615
      2          6           0       -3.198463   -0.553403   -0.757582
      3          6           0       -4.336848   -1.394873   -0.179826
      4          1           0       -2.550508    0.269112    1.126688
      5          1           0       -3.721982    1.267078    0.270631
      6          1           0       -2.308851   -1.180909   -0.897014
      7          1           0       -3.480076   -0.183252   -1.751714
      8          1           0       -5.240030   -0.788479   -0.056739
      9          1           0       -4.062149   -1.791804    0.802817
     10          1           0       -4.581723   -2.239986   -0.830733
     11          6           0       -1.696689    1.487199   -0.433604
     12          6           0       -1.331368    2.677003    0.454593
     13          6           0       -0.192983    3.518473   -0.123163
     14          1           0       -0.807850    0.856521   -0.573620
     15          1           0       -1.979323    1.854488   -1.429677
     16          1           0       -1.049755    2.306852    1.448725
     17          1           0       -2.220981    3.304509    0.594025
     18          1           0       -0.467682    3.915404   -1.105806
     19          1           0        0.710199    2.912079   -0.246250
     20          1           0        0.051891    4.363586    0.527744
     21          6           0        0.210950   -2.771048    0.527580
     22          6           0        0.947766   -2.703029   -0.659431
     23          6           0        1.814333   -1.631927   -0.896814
     24          6           0        1.920137   -0.641833    0.078793
     25          6           0        1.199453   -0.681333    1.271413
     26          6           0        0.338919   -1.761762    1.487522
     27          1           0       -0.459877   -3.606729    0.703722
     28          1           0        0.850390   -3.485421   -1.406709
     29          1           0        2.396597   -1.554327   -1.806959
     30          1           0        1.317666    0.113683    1.997632
     31          1           0       -0.232061   -1.811972    2.410293
     32          7           0        2.834339    0.497032   -0.161253
     33          8           0        2.909702    1.356569    0.714050
     34          8           0        3.458217    0.508574   -1.220158
 ---------------------------------------------------------------------

 SCF Done:  E(RHF) =  -669.535930572     A.U. after   15 cycles
 E2 =    -0.2095243399D+01 EUMP2 =    -0.67163117397070D+03

 The electronic state is 1-A.
 Alpha  occ. eigenvalues --  -20.61024 -20.61014 -15.86040 -11.31393 -11.27965
 Alpha  occ. eigenvalues --  -11.27961 -11.27714 -11.26980 -11.26970 -11.21805
 Alpha  occ. eigenvalues --  -11.21507 -11.21486 -11.21352 -11.21226 -11.20370
 Alpha  occ. eigenvalues --   -1.60081  -1.39634  -1.19582  -1.08975  -1.08425
 Alpha  occ. eigenvalues --   -1.04970  -1.03477  -0.95905  -0.95807  -0.86917
 Alpha  occ. eigenvalues --   -0.86366  -0.82633  -0.79562  -0.78218  -0.77684
 Alpha  occ. eigenvalues --   -0.72263  -0.71412  -0.70671  -0.65229  -0.65091
 Alpha  occ. eigenvalues --   -0.64961  -0.62309  -0.60878  -0.59335  -0.57512
 Alpha  occ. eigenvalues --   -0.55466  -0.55236  -0.53298  -0.53054  -0.52581
 Alpha  occ. eigenvalues --   -0.52315  -0.49864  -0.49033  -0.49018  -0.47872
 Alpha  occ. eigenvalues --   -0.46638  -0.45756  -0.45676  -0.44885  -0.43722
 Alpha  occ. eigenvalues --   -0.37511  -0.36545
 Alpha virt. eigenvalues --    0.04802   0.11017   0.16228   0.20539   0.22945
 Alpha virt. eigenvalues --    0.23880   0.25927   0.26677   0.27931   0.28014
 Alpha virt. eigenvalues --    0.28602   0.30362   0.31262   0.31539   0.32212

 Mulliken charges:
               1
     1  C   -0.294959
     2  C   -0.303145
     3  C   -0.474923
     4  H    0.142271
     5  H    0.149882
     6  H    0.152211
     7  H    0.153088
     8  H    0.157626
     9  H    0.148771
    10  H    0.158315
    11  C   -0.302190
    12  C   -0.299115
    13  C   -0.480058
    14  H    0.151936
    15  H    0.150107
    16  H    0.145334
    17  H    0.150234
    18  H    0.152366
    19  H    0.168136
    20  H    0.161223
    21  C   -0.170218
    22  C   -0.218606
    23  C   -0.171081
    24  C    0.159077
    25  C   -0.171993
    26  C   -0.216646
    27  H    0.227606
    28  H    0.224923
    29  H    0.276678
    30  H    0.276976
    31  H    0.224752
    32  N    0.486707
    33  O   -0.457489
    34  O   -0.457797
 Sum of Mulliken charges =  -0.00000

 Dipole moment (field-independent basis, Debye):
    X=             -2.9552    Y=             -4.0545    Z=              0.8047  Tot=              5.0814
 Quadrupole moment (field-independent basis, Debye-Ang):
   XX=           -108.0029   YY=            -89.3889   ZZ=            -90.7061
   XY=             -7.1485   XZ=              0.7286   YZ=              0.9767

 Normal termination of Gaussian 16 at Thu May  6 07:21:18 2021.
