 Gaussian 16, Revision A.03,
 Gaussian 16:  EM64L-G16RevA.03 25-Dec-2016

 -------------
 #p 6-31g* mp2
 -------------

 ------------------------------------------------------
 Input file generated by CHIRIPA (05-May-2021 14:51:14)
 ------------------------------------------------------
 Symbolic Z-matrix:
 Charge =  0 Multiplicity = 1

                         Standard orientation:
 ---------------------------------------------------------------------
 Center     Atomic      Atomic             Coordinates (Angstroms)
 Number     Number       Type             X           Y           Z
 ---------------------------------------------------------------------
      1          6           0        2.237851   -0.589012   -0.351887
      2          6           0        2.313859   -1.382361   -1.656803
      3          6           0        1.699365   -2.777311   -1.537197
      4          1           0        2.750386   -1.150231    0.441389
      5          1           0        1.186537   -0.502428   -0.044256
      6          1           0        3.364604   -1.466236   -1.962609
      7          1           0        1.801250   -0.819099   -2.447109
      8          1           0        0.643515   -2.710302   -1.255608
      9          1           0        2.215751   -3.361116   -0.768355
     10          1           0        1.764449   -3.326978   -2.481384
     11          6           0        2.848108    0.807613   -0.455580
     12          6           0        2.772100    1.600962    0.849336
     13          6           0        3.386594    2.995912    0.729730
     14          1           0        3.899422    0.721029   -0.763211
     15          1           0        2.335573    1.368832   -1.248856
     16          1           0        3.284709    1.037700    1.639642
     17          1           0        1.721355    1.684836    1.155142
     18          1           0        2.870208    3.579716   -0.039112
     19          1           0        4.442444    2.928903    0.448141
     20          1           0        3.321510    3.545579    1.673917
     21          6           0       -1.984610   -0.220819    0.912869
     22          6           0       -1.775907   -1.692531    1.271325
     23          6           0       -0.655502   -1.899483    2.290961
     24          1           0       -1.045919    0.190195    0.516797
     25          1           0       -2.211471    0.343623    1.827929
     26          1           0       -1.550870   -2.254267    0.355668
     27          1           0       -2.715256   -2.100140    1.666411
     28          1           0       -0.876452   -1.364191    3.220070
     29          1           0        0.294550   -1.519195    1.901879
     30          1           0       -0.523414   -2.958681    2.532849
     31          6           0       -3.101350    0.002218   -0.105402
     32          6           0       -3.310052    1.473930   -0.463857
     33          6           0       -4.430457    1.680882   -1.483494
     34          1           0       -2.874487   -0.562223   -1.020462
     35          1           0       -4.040039   -0.408796    0.290671
     36          1           0       -2.370702    1.881539   -0.858945
     37          1           0       -3.535088    2.035666    0.451799
     38          1           0       -5.380509    1.300594   -1.094412
     39          1           0       -4.209506    1.145590   -2.412603
     40          1           0       -4.562546    2.740080   -1.725382
 ---------------------------------------------------------------------

 SCF Done:  E(RHF) =  -470.732505740     A.U. after   11 cycles
 E2 =    -0.1584847869D+01 EUMP2 =    -0.47231735360824D+03

 The electronic state is 1-A.
 Alpha  occ. eigenvalues --  -11.21663 -11.21646 -11.21633 -11.21608 -11.21454
 Alpha  occ. eigenvalues --  -11.21448 -11.21395 -11.21389 -11.21122 -11.21104
 Alpha  occ. eigenvalues --  -11.21092 -11.20944  -1.08526  -1.08435  -1.03593
 Alpha  occ. eigenvalues --   -1.03524  -0.96030  -0.95981  -0.87052  -0.86993
 Alpha  occ. eigenvalues --   -0.79652  -0.79604  -0.78441  -0.78173  -0.65387
 Alpha  occ. eigenvalues --   -0.64873  -0.61104  -0.60821  -0.59385  -0.59362
 Alpha  occ. eigenvalues --   -0.57700  -0.57540  -0.55351  -0.55257  -0.52718
 Alpha  occ. eigenvalues --   -0.52670  -0.52500  -0.52374  -0.50002  -0.49924
 Alpha  occ. eigenvalues --   -0.48074  -0.47850  -0.46753  -0.46675  -0.46254
 Alpha  occ. eigenvalues --   -0.45793  -0.45757  -0.45088  -0.43832  -0.43798
 Alpha virt. eigenvalues --    0.19735   0.22893   0.23668   0.24514   0.25692
 Alpha virt. eigenvalues --    0.25856   0.26484   0.28182   0.28517   0.29981
 Alpha virt. eigenvalues --    0.30355   0.31423   0.31677   0.31842   0.32280

 Mulliken charges:
               1
     1  C   -0.310743
     2  C   -0.298679
     3  C   -0.479442
     4  H    0.150540
     5  H    0.160750
     6  H    0.152341
     7  H    0.151438
     8  H    0.157858
     9  H    0.155953
    10  H    0.160583
    11  C   -0.297049
    12  C   -0.301698
    13  C   -0.475618
    14  H    0.149854
    15  H    0.149101
    16  H    0.152281
    17  H    0.153221
    18  H    0.155172
    19  H    0.155281
    20  H    0.160574
    21  C   -0.305317
    22  C   -0.302583
    23  C   -0.481830
    24  H    0.153824
    25  H    0.150218
    26  H    0.153682
    27  H    0.152468
    28  H    0.154376
    29  H    0.162951
    30  H    0.159885
    31  C   -0.297806
    32  C   -0.299632
    33  C   -0.475739
    34  H    0.149145
    35  H    0.150163
    36  H    0.151342
    37  H    0.152169
    38  H    0.155384
    39  H    0.155218
    40  H    0.160360
 Sum of Mulliken charges =  -0.00000

 Dipole moment (field-independent basis, Debye):
    X=              0.0257    Y=              0.0062    Z=             -0.0020  Tot=              0.0265
 Quadrupole moment (field-independent basis, Debye-Ang):
   XX=            -84.1770   YY=            -85.8096   ZZ=            -84.7071
   XY=             -0.6291   XZ=             -0.8237   YZ=              0.1577

 Normal termination of Gaussian 16 at Thu May  6 00:50:37 2021.
