 Gaussian 16, Revision A.03,
 Gaussian 16:  EM64L-G16RevA.03 25-Dec-2016

 -------------
 #p 6-31g* mp2
 -------------

 ------------------------------------------------------
 Input file generated by CHIRIPA (05-May-2021 14:51:07)
 ------------------------------------------------------
 Symbolic Z-matrix:
 Charge =  0 Multiplicity = 1

                         Standard orientation:
 ---------------------------------------------------------------------
 Center     Atomic      Atomic             Coordinates (Angstroms)
 Number     Number       Type             X           Y           Z
 ---------------------------------------------------------------------
      1          6           0       -2.803351   -0.638118   -0.223497
      2          6           0       -2.660350   -1.522581   -1.462553
      3          6           0       -1.910467   -2.823990   -1.176542
      4          1           0       -1.804637   -0.408132    0.172259
      5          1           0       -3.328625   -1.200236    0.561045
      6          1           0       -2.136726   -0.958485   -2.245004
      7          1           0       -3.659513   -1.750330   -1.855516
      8          1           0       -2.433410   -3.410355   -0.414106
      9          1           0       -0.901971   -2.614011   -0.805807
     10          1           0       -1.819666   -3.440999   -2.075939
     11          6           0       -3.550820    0.666543   -0.493458
     12          6           0       -3.693821    1.551007    0.745598
     13          6           0       -4.443704    2.852416    0.459587
     14          1           0       -3.025546    1.228661   -1.278000
     15          1           0       -4.549534    0.436557   -0.889213
     16          1           0       -2.694658    1.778756    1.138561
     17          1           0       -4.217445    0.986911    1.528050
     18          1           0       -5.452200    2.642437    0.088852
     19          1           0       -3.920761    3.438781   -0.302849
     20          1           0       -4.534505    3.469425    1.358984
     21          6           0        3.831841    0.035790   -0.031686
     22          6           0        4.146204    1.453840   -0.509486
     23          6           0        5.459194    1.537719   -1.288471
     24          1           0        4.657140   -0.323466    0.598203
     25          1           0        3.787103   -0.635022   -0.900826
     26          1           0        4.188967    2.122038    0.360169
     27          1           0        3.319971    1.809834   -1.138155
     28          1           0        5.423869    0.894159   -2.173447
     29          1           0        6.297803    1.208137   -0.666610
     30          1           0        5.664375    2.560216   -1.620528
     31          6           0        2.522330   -0.064216    0.748641
     32          6           0        2.207967   -1.482266    1.226441
     33          6           0        0.894977   -1.566145    2.005425
     34          1           0        2.567067    0.606596    1.617780
     35          1           0        1.697030    0.295040    0.118751
     36          1           0        3.034200   -1.838260    1.855110
     37          1           0        2.165204   -2.150463    0.356785
     38          1           0        0.056369   -1.236562    1.383563
     39          1           0        0.930302   -0.922584    2.890401
     40          1           0        0.689795   -2.588642    2.337482
 ---------------------------------------------------------------------

 SCF Done:  E(RHF) =  -470.733136844     A.U. after   11 cycles
 E2 =    -0.1583192392D+01 EUMP2 =    -0.47231632923549D+03

 The electronic state is 1-A.
 Alpha  occ. eigenvalues --  -11.21628 -11.21627 -11.21620 -11.21599 -11.21439
 Alpha  occ. eigenvalues --  -11.21423 -11.21379 -11.21364 -11.21090 -11.21080
 Alpha  occ. eigenvalues --  -11.21069 -11.21028  -1.08468  -1.08441  -1.03567
 Alpha  occ. eigenvalues --   -1.03523  -0.95997  -0.95989  -0.87015  -0.87004
 Alpha  occ. eigenvalues --   -0.79652  -0.79566  -0.78316  -0.78222  -0.65186
 Alpha  occ. eigenvalues --   -0.65002  -0.61083  -0.60816  -0.59368  -0.59355
 Alpha  occ. eigenvalues --   -0.57648  -0.57561  -0.55302  -0.55274  -0.52688
 Alpha  occ. eigenvalues --   -0.52680  -0.52484  -0.52356  -0.49994  -0.49923
 Alpha  occ. eigenvalues --   -0.48030  -0.47844  -0.46776  -0.46566  -0.45954
 Alpha  occ. eigenvalues --   -0.45760  -0.45755  -0.45425  -0.43803  -0.43799
 Alpha virt. eigenvalues --    0.20310   0.23201   0.23552   0.25006   0.25586
 Alpha virt. eigenvalues --    0.26751   0.27078   0.27479   0.28193   0.29246
 Alpha virt. eigenvalues --    0.30696   0.31190   0.31576   0.31931   0.32010

 Mulliken charges:
               1
     1  C   -0.305374
     2  C   -0.299561
     3  C   -0.478545
     4  H    0.155670
     5  H    0.150093
     6  H    0.151322
     7  H    0.152221
     8  H    0.155642
     9  H    0.158090
    10  H    0.160127
    11  C   -0.297558
    12  C   -0.299808
    13  C   -0.475721
    14  H    0.149217
    15  H    0.149813
    16  H    0.152280
    17  H    0.152137
    18  H    0.155146
    19  H    0.155127
    20  H    0.160354
    21  C   -0.298316
    22  C   -0.299652
    23  C   -0.475731
    24  H    0.149923
    25  H    0.149635
    26  H    0.151980
    27  H    0.151728
    28  H    0.155244
    29  H    0.155277
    30  H    0.160305
    31  C   -0.298225
    32  C   -0.300538
    33  C   -0.484336
    34  H    0.149761
    35  H    0.148261
    36  H    0.152301
    37  H    0.152129
    38  H    0.163714
    39  H    0.154993
    40  H    0.160875
 Sum of Mulliken charges =  -0.00000

 Dipole moment (field-independent basis, Debye):
    X=             -0.0114    Y=             -0.0054    Z=              0.0117  Tot=              0.0172
 Quadrupole moment (field-independent basis, Debye-Ang):
   XX=            -84.7913   YY=            -85.5543   ZZ=            -84.3275
   XY=              0.8429   XZ=              0.7277   YZ=              0.2258

 Normal termination of Gaussian 16 at Wed May  5 16:33:43 2021.
