 Gaussian 16, Revision A.03,
 Gaussian 16:  EM64L-G16RevA.03 25-Dec-2016

 -------------
 #p 6-31g* mp2
 -------------

 ------------------------------------------------------
 Input file generated by CHIRIPA (05-May-2021 14:55:21)
 ------------------------------------------------------
 Symbolic Z-matrix:
 Charge =  0 Multiplicity = 1

                         Standard orientation:
 ---------------------------------------------------------------------
 Center     Atomic      Atomic             Coordinates (Angstroms)
 Number     Number       Type             X           Y           Z
 ---------------------------------------------------------------------
      1          6           0       -2.717619    1.198627    1.708997
      2          6           0       -2.011964    0.047545    2.074486
      3          6           0       -1.545709   -0.839060    1.099250
      4          6           0       -1.804087   -0.542252   -0.238075
      5          6           0       -2.504209    0.596368   -0.633880
      6          6           0       -2.961060    1.468889    0.358362
      7          1           0       -3.076165    1.881892    2.473190
      8          1           0       -1.821440   -0.164891    3.122635
      9          1           0       -0.996821   -1.737452    1.354263
     10          1           0       -2.678704    0.781296   -1.686862
     11          1           0       -3.508809    2.362073    0.071590
     12          7           0       -1.315461   -1.473405   -1.279515
     13          8           0       -1.556119   -1.189258   -2.450831
     14          8           0       -0.701071   -2.469759   -0.904761
     15          6           0        2.204918   -0.154519    0.424296
     16          6           0        3.286654   -1.234080    0.375512
     17          6           0        2.856874   -2.532867    1.058329
     18          1           0        1.945852    0.048886    1.472368
     19          1           0        1.292940   -0.537201   -0.054501
     20          1           0        4.196760   -0.848980    0.853028
     21          1           0        3.543312   -1.434803   -0.672559
     22          1           0        1.962761   -2.943116    0.577851
     23          1           0        2.619921   -2.353964    2.112107
     24          1           0        3.645066   -3.290787    1.011766
     25          6           0        2.619705    1.149813   -0.254229
     26          6           0        1.537969    2.229374   -0.205444
     27          6           0        1.967749    3.528161   -0.888261
     28          1           0        3.531683    1.532495    0.224569
     29          1           0        2.878772    0.946407   -1.302301
     30          1           0        1.281311    2.430097    0.842627
     31          1           0        0.627865    1.844274   -0.682961
     32          1           0        2.204703    3.349259   -1.942039
     33          1           0        2.861862    3.938410   -0.407783
     34          1           0        1.179557    4.286082   -0.841699
 ---------------------------------------------------------------------

 SCF Done:  E(RHF) =  -669.535863884     A.U. after   15 cycles
 E2 =    -0.2094937913D+01 EUMP2 =    -0.67163080179620D+03

 The electronic state is 1-A.
 Alpha  occ. eigenvalues --  -20.61022 -20.61012 -15.86021 -11.31262 -11.27856
 Alpha  occ. eigenvalues --  -11.27819 -11.27571 -11.26835 -11.26814 -11.21489
 Alpha  occ. eigenvalues --  -11.21153 -11.21137 -11.21038 -11.21032 -11.20494
 Alpha  occ. eigenvalues --   -1.60069  -1.39628  -1.19447  -1.08866  -1.08154
 Alpha  occ. eigenvalues --   -1.04832  -1.03237  -0.95718  -0.95693  -0.86716
 Alpha  occ. eigenvalues --   -0.86237  -0.82554  -0.79321  -0.78029  -0.77582
 Alpha  occ. eigenvalues --   -0.72256  -0.71397  -0.70557  -0.65117  -0.64843
 Alpha  occ. eigenvalues --   -0.64750  -0.62183  -0.60620  -0.59085  -0.57316
 Alpha  occ. eigenvalues --   -0.55346  -0.54966  -0.53210  -0.52924  -0.52376
 Alpha  occ. eigenvalues --   -0.52130  -0.49630  -0.49039  -0.49002  -0.47638
 Alpha  occ. eigenvalues --   -0.46369  -0.45695  -0.45490  -0.44694  -0.43501
 Alpha  occ. eigenvalues --   -0.37381  -0.36386
 Alpha virt. eigenvalues --    0.04879   0.11166   0.16346   0.21112   0.23069
 Alpha virt. eigenvalues --    0.24262   0.26493   0.26937   0.27522   0.27702
 Alpha virt. eigenvalues --    0.29021   0.30844   0.31502   0.31926   0.32195

 Mulliken charges:
               1
     1  C   -0.169880
     2  C   -0.218657
     3  C   -0.168463
     4  C    0.156675
     5  C   -0.171800
     6  C   -0.217600
     7  H    0.225992
     8  H    0.223882
     9  H    0.277174
    10  H    0.275712
    11  H    0.223825
    12  N    0.490308
    13  O   -0.457843
    14  O   -0.460464
    15  C   -0.302288
    16  C   -0.296899
    17  C   -0.485478
    18  H    0.141815
    19  H    0.154587
    20  H    0.148200
    21  H    0.156402
    22  H    0.175086
    23  H    0.145381
    24  H    0.159437
    25  C   -0.298778
    26  C   -0.300207
    27  C   -0.475411
    28  H    0.147851
    29  H    0.153226
    30  H    0.148040
    31  H    0.151840
    32  H    0.157383
    33  H    0.154735
    34  H    0.156217
 Sum of Mulliken charges =  -0.00000

 Dipole moment (field-independent basis, Debye):
    X=             -1.8770    Y=              3.1630    Z=              3.5529  Tot=              5.1138
 Quadrupole moment (field-independent basis, Debye-Ang):
   XX=            -88.4716   YY=            -98.0582   ZZ=            -93.7922
   XY=             -6.6133   XZ=             -4.7401   YZ=             -4.1893

 Normal termination of Gaussian 16 at Thu May  6 17:30:31 2021.
