 Gaussian 16, Revision A.03,
 Gaussian 16:  EM64L-G16RevA.03 25-Dec-2016

 -------------
 #p 6-31g* mp2
 -------------

 ------------------------------------------------------
 Input file generated by CHIRIPA (05-May-2021 14:51:12)
 ------------------------------------------------------
 Symbolic Z-matrix:
 Charge =  0 Multiplicity = 1

                         Standard orientation:
 ---------------------------------------------------------------------
 Center     Atomic      Atomic             Coordinates (Angstroms)
 Number     Number       Type             X           Y           Z
 ---------------------------------------------------------------------
      1          6           0        2.293131    0.528904   -0.032149
      2          6           0        3.198969    1.266881    0.954173
      3          6           0        2.899753    2.764640    1.024767
      4          1           0        2.407952    0.974624   -1.029694
      5          1           0        1.244653    0.680958    0.259344
      6          1           0        4.245485    1.112336    0.661707
      7          1           0        3.082122    0.819229    1.949447
      8          1           0        1.865078    2.936408    1.338684
      9          1           0        3.035051    3.231181    0.043628
     10          1           0        3.558773    3.272620    1.735759
     11          6           0        2.580122   -0.969322   -0.113894
     12          6           0        1.674284   -1.707299   -1.100216
     13          6           0        1.973500   -3.205058   -1.170811
     14          1           0        3.628600   -1.121376   -0.405387
     15          1           0        2.465301   -1.415042    0.883650
     16          1           0        1.791131   -1.259647   -2.095490
     17          1           0        0.627768   -1.552754   -0.807750
     18          1           0        1.838202   -3.671599   -0.189672
     19          1           0        3.008175   -3.376826   -1.484728
     20          1           0        1.314480   -3.713038   -1.881803
     21          6           0       -2.385881    0.977193    0.161515
     22          6           0       -2.360862    1.742110   -1.162216
     23          6           0       -2.259109    3.255381   -0.968693
     24          1           0       -3.233852    1.328952    0.764969
     25          1           0       -1.476889    1.214601    0.731398
     26          1           0       -3.268972    1.502257   -1.730039
     27          1           0       -1.512966    1.388355   -1.762669
     28          1           0       -1.345232    3.513496   -0.423896
     29          1           0       -3.111216    3.628046   -0.391081
     30          1           0       -2.242734    3.782554   -1.927693
     31          6           0       -2.487372   -0.536776   -0.015472
     32          6           0       -2.512391   -1.301691    1.308260
     33          6           0       -2.614144   -2.814963    1.114736
     34          1           0       -3.396364   -0.774184   -0.585354
     35          1           0       -1.639402   -0.888533   -0.618925
     36          1           0       -3.360288   -0.947937    1.908712
     37          1           0       -1.604281   -1.061839    1.876082
     38          1           0       -1.762037   -3.187628    0.537124
     39          1           0       -3.528022   -3.073078    0.569939
     40          1           0       -2.630519   -3.342136    2.073736
 ---------------------------------------------------------------------

 SCF Done:  E(RHF) =  -470.733368819     A.U. after   11 cycles
 E2 =    -0.1584206666D+01 EUMP2 =    -0.47231757548513D+03

 The electronic state is 1-A.
 Alpha  occ. eigenvalues --  -11.21671 -11.21667 -11.21643 -11.21588 -11.21484
 Alpha  occ. eigenvalues --  -11.21424 -11.21424 -11.21363 -11.21133 -11.21132
 Alpha  occ. eigenvalues --  -11.21102 -11.21054  -1.08523  -1.08438  -1.03605
 Alpha  occ. eigenvalues --   -1.03537  -0.96047  -0.95992  -0.87070  -0.87001
 Alpha  occ. eigenvalues --   -0.79679  -0.79598  -0.78351  -0.78241  -0.65379
 Alpha  occ. eigenvalues --   -0.64865  -0.61120  -0.60826  -0.59417  -0.59357
 Alpha  occ. eigenvalues --   -0.57666  -0.57594  -0.55374  -0.55248  -0.52738
 Alpha  occ. eigenvalues --   -0.52683  -0.52473  -0.52419  -0.50093  -0.49845
 Alpha  occ. eigenvalues --   -0.48067  -0.47871  -0.46841  -0.46626  -0.46137
 Alpha  occ. eigenvalues --   -0.45826  -0.45657  -0.45344  -0.43853  -0.43798
 Alpha virt. eigenvalues --    0.18810   0.21866   0.23742   0.25179   0.25430
 Alpha virt. eigenvalues --    0.26432   0.26723   0.27383   0.28583   0.30277
 Alpha virt. eigenvalues --    0.31283   0.31554   0.31741   0.31830   0.32386

 Mulliken charges:
               1
     1  C   -0.302964
     2  C   -0.299605
     3  C   -0.475985
     4  H    0.149966
     5  H    0.152683
     6  H    0.152412
     7  H    0.152098
     8  H    0.154681
     9  H    0.155546
    10  H    0.160758
    11  C   -0.297517
    12  C   -0.309482
    13  C   -0.475588
    14  H    0.150078
    15  H    0.149676
    16  H    0.152106
    17  H    0.159993
    18  H    0.155451
    19  H    0.155655
    20  H    0.160548
    21  C   -0.300401
    22  C   -0.300147
    23  C   -0.476005
    24  H    0.149929
    25  H    0.150654
    26  H    0.151865
    27  H    0.153287
    28  H    0.155620
    29  H    0.154961
    30  H    0.160310
    31  C   -0.306632
    32  C   -0.299434
    33  C   -0.476930
    34  H    0.150139
    35  H    0.157153
    36  H    0.152354
    37  H    0.150914
    38  H    0.155984
    39  H    0.155531
    40  H    0.160340
 Sum of Mulliken charges =  -0.00000

 Dipole moment (field-independent basis, Debye):
    X=              0.0190    Y=             -0.0058    Z=             -0.0159  Tot=              0.0255
 Quadrupole moment (field-independent basis, Debye-Ang):
   XX=            -83.1806   YY=            -87.1658   ZZ=            -84.2376
   XY=              0.0988   XZ=             -0.5015   YZ=             -0.2760

 Normal termination of Gaussian 16 at Thu May  6 05:31:03 2021.
