 Gaussian 16, Revision A.03,
 Gaussian 16:  EM64L-G16RevA.03 25-Dec-2016

 -------------
 #p 6-31g* mp2
 -------------

 ------------------------------------------------------
 Input file generated by CHIRIPA (05-May-2021 14:57:23)
 ------------------------------------------------------
 Symbolic Z-matrix:
 Charge =  0 Multiplicity = 1

                         Standard orientation:
 ---------------------------------------------------------------------
 Center     Atomic      Atomic             Coordinates (Angstroms)
 Number     Number       Type             X           Y           Z
 ---------------------------------------------------------------------
      1          6           0        3.588561   -2.173041   -0.208078
      2          6           0        4.515267   -1.255887   -0.714599
      3          6           0        4.296991    0.118947   -0.585236
      4          6           0        3.136116    0.543598    0.059225
      5          6           0        2.194023   -0.345398    0.574430
      6          6           0        2.432933   -1.715676    0.433689
      7          1           0        3.766137   -3.239276   -0.312990
      8          1           0        5.413621   -1.608213   -1.213470
      9          1           0        4.997835    0.850848   -0.968062
     10          1           0        1.307754    0.036061    1.066805
     11          1           0        1.711503   -2.425658    0.828035
     12          7           0        2.894115    1.996662    0.202199
     13          8           0        1.863570    2.345247    0.774128
     14          8           0        3.739562    2.759474   -0.260374
     15          6           0       -1.517270   -2.154268    0.401917
     16          6           0       -2.066692   -1.439332    1.471274
     17          6           0       -2.986654   -0.412192    1.240617
     18          6           0       -3.336360   -0.125250   -0.077965
     19          6           0       -2.806435   -0.819452   -1.164498
     20          6           0       -1.888241   -1.842595   -0.910242
     21          1           0       -0.803308   -2.950622    0.590263
     22          1           0       -1.780432   -1.679200    2.491354
     23          1           0       -3.427419    0.157264    2.049853
     24          1           0       -3.111189   -0.557355   -2.170405
     25          1           0       -1.463170   -2.396150   -1.742670
     26          7           0       -4.309348    0.960021   -0.334642
     27          8           0       -4.601065    1.193413   -1.505567
     28          8           0       -4.761833    1.556716    0.639960
 ---------------------------------------------------------------------

 SCF Done:  E(RHF) =  -868.336496645     A.U. after   16 cycles
 E2 =    -0.2600710291D+01 EUMP2 =    -0.87093720693593D+03

 The electronic state is 1-A.
 Alpha  occ. eigenvalues --  -20.61058 -20.61053 -20.60878 -20.60871 -15.86120
 Alpha  occ. eigenvalues --  -15.85938 -11.31628 -11.31521 -11.28247 -11.28220
 Alpha  occ. eigenvalues --  -11.28108 -11.28094 -11.28057 -11.28051 -11.27385
 Alpha  occ. eigenvalues --  -11.27260 -11.27252 -11.27216  -1.60132  -1.59944
 Alpha  occ. eigenvalues --   -1.39681  -1.39493  -1.19843  -1.19732  -1.09219
 Alpha  occ. eigenvalues --   -1.09122  -1.05276  -1.05157  -0.96016  -0.95913
 Alpha  occ. eigenvalues --   -0.86676  -0.86561  -0.82873  -0.82710  -0.77873
 Alpha  occ. eigenvalues --   -0.77702  -0.72334  -0.72158  -0.71459  -0.71262
 Alpha  occ. eigenvalues --   -0.70976  -0.70916  -0.65500  -0.65398  -0.65337
 Alpha  occ. eigenvalues --   -0.65151  -0.62630  -0.62484  -0.55885  -0.55696
 Alpha  occ. eigenvalues --   -0.53637  -0.53428  -0.53360  -0.53259  -0.49106
 Alpha  occ. eigenvalues --   -0.49078  -0.48933  -0.48894  -0.45054  -0.44850
 Alpha  occ. eigenvalues --   -0.37874  -0.37801  -0.36859  -0.36709
 Alpha virt. eigenvalues --    0.04604   0.04870   0.10731   0.10863   0.15914
 Alpha virt. eigenvalues --    0.16308   0.18972   0.21920   0.25153   0.26862
 Alpha virt. eigenvalues --    0.27797   0.28675   0.29926   0.31621   0.32276

 Mulliken charges:
               1
     1  C   -0.171543
     2  C   -0.218770
     3  C   -0.169741
     4  C    0.158485
     5  C   -0.169932
     6  C   -0.220392
     7  H    0.224778
     8  H    0.224879
     9  H    0.277557
    10  H    0.277695
    11  H    0.213131
    12  N    0.488002
    13  O   -0.458298
    14  O   -0.458927
    15  C   -0.176187
    16  C   -0.222686
    17  C   -0.167641
    18  C    0.161189
    19  C   -0.169192
    20  C   -0.216429
    21  H    0.217610
    22  H    0.223368
    23  H    0.279094
    24  H    0.278020
    25  H    0.223855
    26  N    0.488350
    27  O   -0.458663
    28  O   -0.457612
 Sum of Mulliken charges =  -0.00000

 Dipole moment (field-independent basis, Debye):
    X=              4.1364    Y=             -8.6637    Z=              0.3060  Tot=              9.6054
 Quadrupole moment (field-independent basis, Debye-Ang):
   XX=           -118.3959   YY=           -110.8675   ZZ=            -99.6271
   XY=             -2.4882   XZ=             -7.7439   YZ=              0.2500

 Normal termination of Gaussian 16 at Thu May  6 06:34:07 2021.
