 Gaussian 16, Revision A.03,
 Gaussian 16:  EM64L-G16RevA.03 25-Dec-2016

 -------------
 #p 6-31g* mp2
 -------------

 ------------------------------------------------------
 Input file generated by CHIRIPA (05-May-2021 14:57:27)
 ------------------------------------------------------
 Symbolic Z-matrix:
 Charge =  0 Multiplicity = 1

                         Standard orientation:
 ---------------------------------------------------------------------
 Center     Atomic      Atomic             Coordinates (Angstroms)
 Number     Number       Type             X           Y           Z
 ---------------------------------------------------------------------
      1          6           0        3.085553   -1.929253    0.088723
      2          6           0        3.440605   -0.703469    0.661359
      3          6           0        2.791470    0.473880    0.277926
      4          6           0        1.787344    0.388481   -0.685260
      5          6           0        1.410975   -0.817673   -1.274182
      6          6           0        2.073656   -1.982350   -0.875520
      7          1           0        3.595078   -2.838924    0.392498
      8          1           0        4.226084   -0.659228    1.410433
      9          1           0        3.046378    1.436188    0.705015
     10          1           0        0.624022   -0.830103   -2.018472
     11          1           0        1.795825   -2.932911   -1.321937
     12          7           0        1.092964    1.628180   -1.099245
     13          8           0        0.211662    1.526203   -1.949859
     14          8           0        1.443158    2.678358   -0.565272
     15          6           0       -3.634998   -0.904085   -1.069271
     16          6           0       -2.701562   -1.827512   -0.587088
     17          6           0       -1.736729   -1.439743    0.347407
     18          6           0       -1.734225   -0.114564    0.780056
     19          6           0       -2.650852    0.828837    0.318451
     20          6           0       -3.606715    0.418811   -0.615762
     21          1           0       -4.381020   -1.213958   -1.795100
     22          1           0       -2.721152   -2.855549   -0.937514
     23          1           0       -1.002288   -2.134009    0.737289
     24          1           0       -2.606300    1.846672    0.686479
     25          1           0       -4.330397    1.138116   -0.988491
     26          7           0       -0.717549    0.307731    1.769214
     27          8           0       -0.736469    1.481095    2.134585
     28          8           0        0.078991   -0.542635    2.160417
 ---------------------------------------------------------------------

 SCF Done:  E(RHF) =  -868.336719248     A.U. after   16 cycles
 E2 =    -0.2606547829D+01 EUMP2 =    -0.87094326707771D+03

 The electronic state is 1-A.
 Alpha  occ. eigenvalues --  -20.60629 -20.60559 -20.60331 -20.60271 -15.85592
 Alpha  occ. eigenvalues --  -15.85327 -11.30819 -11.30488 -11.27508 -11.27356
 Alpha  occ. eigenvalues --  -11.27226 -11.27197 -11.27043 -11.26914 -11.26501
 Alpha  occ. eigenvalues --  -11.26319 -11.26214 -11.25997  -1.59681  -1.59381
 Alpha  occ. eigenvalues --   -1.39222  -1.38931  -1.19032  -1.18716  -1.08466
 Alpha  occ. eigenvalues --   -1.08164  -1.04431  -1.04101  -0.95322  -0.95010
 Alpha  occ. eigenvalues --   -0.85835  -0.85538  -0.82151  -0.81862  -0.77205
 Alpha  occ. eigenvalues --   -0.76916  -0.71845  -0.71572  -0.71524  -0.70259
 Alpha  occ. eigenvalues --   -0.70164  -0.69871  -0.64698  -0.64451  -0.64393
 Alpha  occ. eigenvalues --   -0.64163  -0.61782  -0.61486  -0.54960  -0.54672
 Alpha  occ. eigenvalues --   -0.52797  -0.52579  -0.52359  -0.52218  -0.48623
 Alpha  occ. eigenvalues --   -0.48596  -0.48341  -0.48302  -0.44637  -0.44278
 Alpha  occ. eigenvalues --   -0.37177  -0.36650  -0.36205  -0.35248
 Alpha virt. eigenvalues --    0.04748   0.06133   0.11319   0.12269   0.16782
 Alpha virt. eigenvalues --    0.17115   0.21582   0.22059   0.27355   0.28020
 Alpha virt. eigenvalues --    0.28649   0.28844   0.31154   0.31372   0.32836

 Mulliken charges:
               1
     1  C   -0.165200
     2  C   -0.210540
     3  C   -0.153735
     4  C    0.147323
     5  C   -0.172217
     6  C   -0.222620
     7  H    0.223111
     8  H    0.223542
     9  H    0.278741
    10  H    0.271495
    11  H    0.215718
    12  N    0.485321
    13  O   -0.468044
    14  O   -0.453041
    15  C   -0.168440
    16  C   -0.223352
    17  C   -0.172528
    18  C    0.151359
    19  C   -0.157940
    20  C   -0.215174
    21  H    0.224599
    22  H    0.218199
    23  H    0.271744
    24  H    0.280447
    25  H    0.225222
    26  N    0.482868
    27  O   -0.453432
    28  O   -0.463427
 Sum of Mulliken charges =  -0.00000

 Dipole moment (field-independent basis, Debye):
    X=             -1.0688    Y=             -5.4806    Z=             -1.7790  Tot=              5.8604
 Quadrupole moment (field-independent basis, Debye-Ang):
   XX=            -81.3940   YY=           -102.9775   ZZ=           -111.8269
   XY=             -4.5434   XZ=              7.0593   YZ=              4.7053

 Normal termination of Gaussian 16 at Thu May  6 06:50:45 2021.
