 Gaussian 16, Revision A.03,
 Gaussian 16:  EM64L-G16RevA.03 25-Dec-2016

 -------------
 #p 6-31g* mp2
 -------------

 ------------------------------------------------------
 Input file generated by CHIRIPA (05-May-2021 14:53:14)
 ------------------------------------------------------
 Symbolic Z-matrix:
 Charge =  0 Multiplicity = 1

                         Standard orientation:
 ---------------------------------------------------------------------
 Center     Atomic      Atomic             Coordinates (Angstroms)
 Number     Number       Type             X           Y           Z
 ---------------------------------------------------------------------
      1          6           0       -3.400653    0.339397   -0.055407
      2          6           0       -4.849242   -0.048900   -0.353400
      3          6           0       -5.499604    0.854147   -1.401888
      4          1           0       -3.370525    1.382636    0.287655
      5          1           0       -2.818733    0.299662   -0.986635
      6          1           0       -5.427947   -0.009784    0.578365
      7          1           0       -4.875946   -1.091395   -0.695610
      8          1           0       -4.947257    0.808009   -2.346020
      9          1           0       -5.502395    1.895766   -1.064807
     10          1           0       -6.534745    0.558786   -1.599642
     11          6           0       -2.736893   -0.554187    0.990852
     12          6           0       -1.288304   -0.165889    1.288845
     13          6           0       -0.637942   -1.068937    2.337334
     14          1           0       -3.318812   -0.514451    1.922080
     15          1           0       -2.767021   -1.597425    0.647790
     16          1           0       -1.261600    0.876606    1.631055
     17          1           0       -0.709599   -0.205006    0.357080
     18          1           0       -0.635151   -2.110555    2.000252
     19          1           0       -1.190289   -1.022798    3.281465
     20          1           0        0.397199   -0.773576    2.535087
     21          6           0        2.124368   -2.271759   -1.226915
     22          6           0        2.011340   -1.188106   -2.104093
     23          6           0        2.160795    0.121393   -1.637806
     24          6           0        2.423882    0.311639   -0.282121
     25          6           0        2.542137   -0.747334    0.616703
     26          6           0        2.388940   -2.048308    0.128294
     27          1           0        2.006814   -3.285698   -1.597731
     28          1           0        1.805917   -1.358646   -3.157072
     29          1           0        2.078270    0.978585   -2.294944
     30          1           0        2.747413   -0.545770    1.661046
     31          1           0        2.477241   -2.887973    0.811822
     32          7           0        2.584085    1.693435    0.223226
     33          8           0        2.815443    1.834397    1.422075
     34          8           0        2.475261    2.609359   -0.589101
 ---------------------------------------------------------------------

 SCF Done:  E(RHF) =  -669.534654651     A.U. after   15 cycles
 E2 =    -0.2093758607D+01 EUMP2 =    -0.67162841325716D+03

 The electronic state is 1-A.
 Alpha  occ. eigenvalues --  -20.60801 -20.60796 -15.85854 -11.31226 -11.27808
 Alpha  occ. eigenvalues --  -11.27797 -11.27556 -11.26827 -11.26802 -11.21638
 Alpha  occ. eigenvalues --  -11.21553 -11.21426 -11.21361 -11.21186 -11.21094
 Alpha  occ. eigenvalues --   -1.59874  -1.39428  -1.19420  -1.08803  -1.08448
 Alpha  occ. eigenvalues --   -1.04829  -1.03557  -0.96039  -0.95631  -0.87057
 Alpha  occ. eigenvalues --   -0.86216  -0.82467  -0.79627  -0.78258  -0.77513
 Alpha  occ. eigenvalues --   -0.72073  -0.71197  -0.70535  -0.65090  -0.65059
 Alpha  occ. eigenvalues --   -0.64827  -0.62201  -0.60973  -0.59418  -0.57667
 Alpha  occ. eigenvalues --   -0.55359  -0.55316  -0.53202  -0.52949  -0.52599
 Alpha  occ. eigenvalues --   -0.52388  -0.49972  -0.48833  -0.48827  -0.47943
 Alpha  occ. eigenvalues --   -0.46640  -0.45797  -0.45714  -0.44829  -0.43828
 Alpha  occ. eigenvalues --   -0.37380  -0.36357
 Alpha virt. eigenvalues --    0.05011   0.11155   0.16487   0.21019   0.22873
 Alpha virt. eigenvalues --    0.24175   0.26465   0.26585   0.27256   0.27929
 Alpha virt. eigenvalues --    0.28579   0.30099   0.31264   0.31520   0.31921

 Mulliken charges:
               1
     1  C   -0.298282
     2  C   -0.299568
     3  C   -0.475593
     4  H    0.152925
     5  H    0.147865
     6  H    0.152487
     7  H    0.149994
     8  H    0.154101
     9  H    0.156891
    10  H    0.159917
    11  C   -0.297870
    12  C   -0.304552
    13  C   -0.473724
    14  H    0.150110
    15  H    0.146381
    16  H    0.158398
    17  H    0.154106
    18  H    0.148647
    19  H    0.156220
    20  H    0.157078
    21  C   -0.171834
    22  C   -0.218540
    23  C   -0.172716
    24  C    0.160650
    25  C   -0.169807
    26  C   -0.215656
    27  H    0.225787
    28  H    0.223583
    29  H    0.275913
    30  H    0.275703
    31  H    0.224243
    32  N    0.488394
    33  O   -0.461045
    34  O   -0.460204
 Sum of Mulliken charges =  -0.00000

 Dipole moment (field-independent basis, Debye):
    X=             -0.5284    Y=             -4.8044    Z=             -1.7902  Tot=              5.1543
 Quadrupole moment (field-independent basis, Debye-Ang):
   XX=            -98.5058   YY=            -97.6932   ZZ=            -89.6828
   XY=            -12.5157   XZ=             -4.1071   YZ=              0.0007

 Normal termination of Gaussian 16 at Thu May  6 12:06:32 2021.
