 Gaussian 16, Revision A.03,
 Gaussian 16:  EM64L-G16RevA.03 25-Dec-2016

 -------------
 #p 6-31g* mp2
 -------------

 ------------------------------------------------------
 Input file generated by CHIRIPA (05-May-2021 14:51:11)
 ------------------------------------------------------
 Symbolic Z-matrix:
 Charge =  0 Multiplicity = 1

                         Standard orientation:
 ---------------------------------------------------------------------
 Center     Atomic      Atomic             Coordinates (Angstroms)
 Number     Number       Type             X           Y           Z
 ---------------------------------------------------------------------
      1          6           0       -2.744831    1.140867   -0.327572
      2          6           0       -2.722478    2.503115    0.366521
      3          6           0       -1.797236    3.504263   -0.325885
      4          1           0       -1.723864    0.736549   -0.360709
      5          1           0       -3.062320    1.273988   -1.371064
      6          1           0       -2.406458    2.367289    1.408777
      7          1           0       -3.743646    2.904151    0.398180
      8          1           0       -2.113620    3.669155   -1.360928
      9          1           0       -0.768834    3.129243   -0.344588
     10          1           0       -1.796459    4.471237    0.186775
     11          6           0       -3.665291    0.129244    0.352942
     12          6           0       -3.687644   -1.233004   -0.341151
     13          6           0       -4.612885   -2.234152    0.351255
     14          1           0       -3.347802   -0.003877    1.396434
     15          1           0       -4.686258    0.533562    0.386079
     16          1           0       -2.666476   -1.634040   -0.372810
     17          1           0       -4.003664   -1.097178   -1.383407
     18          1           0       -5.641288   -1.859132    0.369958
     19          1           0       -4.296502   -2.399044    1.386298
     20          1           0       -4.613662   -3.201126   -0.161405
     21          6           0        3.556418    0.041459    0.035362
     22          6           0        5.080005   -0.069857    0.100751
     23          6           0        5.768654    1.291895    0.196603
     24          1           0        3.276939    0.657041   -0.830604
     25          1           0        3.196045    0.573706    0.926563
     26          1           0        5.437279   -0.602953   -0.789632
     27          1           0        5.355883   -0.685405    0.966551
     28          1           0        5.440537    1.827245    1.093453
     29          1           0        5.522395    1.910165   -0.672707
     30          1           0        6.857311    1.188909    0.242226
     31          6           0        2.853704   -1.311570   -0.060732
     32          6           0        1.330116   -1.200254   -0.126122
     33          6           0        0.641468   -2.562006   -0.221973
     34          1           0        3.214077   -1.843817   -0.951933
     35          1           0        3.133183   -1.927151    0.805233
     36          1           0        1.054240   -0.584707   -0.991922
     37          1           0        0.972843   -0.667158    0.764260
     38          1           0        0.887726   -3.180275    0.647337
     39          1           0        0.969586   -3.097355   -1.118823
     40          1           0       -0.447189   -2.459020   -0.267595
 ---------------------------------------------------------------------

 SCF Done:  E(RHF) =  -470.733391985     A.U. after   11 cycles
 E2 =    -0.1583084349D+01 EUMP2 =    -0.47231647633450D+03

 The electronic state is 1-A.
 Alpha  occ. eigenvalues --  -11.21676 -11.21628 -11.21596 -11.21580 -11.21451
 Alpha  occ. eigenvalues --  -11.21390 -11.21384 -11.21321 -11.21120 -11.21089
 Alpha  occ. eigenvalues --  -11.21066 -11.21047  -1.08479  -1.08412  -1.03578
 Alpha  occ. eigenvalues --   -1.03515  -0.96023  -0.95962  -0.87047  -0.86972
 Alpha  occ. eigenvalues --   -0.79665  -0.79557  -0.78304  -0.78215  -0.65104
 Alpha  occ. eigenvalues --   -0.65060  -0.60969  -0.60943  -0.59442  -0.59283
 Alpha  occ. eigenvalues --   -0.57641  -0.57570  -0.55303  -0.55250  -0.52763
 Alpha  occ. eigenvalues --   -0.52645  -0.52468  -0.52367  -0.49959  -0.49905
 Alpha  occ. eigenvalues --   -0.48064  -0.47803  -0.46672  -0.46599  -0.45882
 Alpha  occ. eigenvalues --   -0.45756  -0.45739  -0.45635  -0.43809  -0.43758
 Alpha virt. eigenvalues --    0.20439   0.23083   0.23768   0.24328   0.25978
 Alpha virt. eigenvalues --    0.26599   0.27104   0.27459   0.27914   0.29309
 Alpha virt. eigenvalues --    0.29954   0.31353   0.31676   0.31919   0.32223

 Mulliken charges:
               1
     1  C   -0.302056
     2  C   -0.299393
     3  C   -0.475937
     4  H    0.153645
     5  H    0.149249
     6  H    0.151712
     7  H    0.151839
     8  H    0.154975
     9  H    0.155723
    10  H    0.160110
    11  C   -0.297373
    12  C   -0.309338
    13  C   -0.475118
    14  H    0.149258
    15  H    0.149697
    16  H    0.159881
    17  H    0.152156
    18  H    0.155272
    19  H    0.155145
    20  H    0.160318
    21  C   -0.298405
    22  C   -0.299685
    23  C   -0.475760
    24  H    0.149801
    25  H    0.149401
    26  H    0.152054
    27  H    0.151991
    28  H    0.155218
    29  H    0.155326
    30  H    0.160362
    31  C   -0.298549
    32  C   -0.300414
    33  C   -0.484543
    34  H    0.149898
    35  H    0.149866
    36  H    0.153004
    37  H    0.151539
    38  H    0.155547
    39  H    0.155902
    40  H    0.167679
 Sum of Mulliken charges =  -0.00000

 Dipole moment (field-independent basis, Debye):
    X=              0.0237    Y=             -0.0106    Z=             -0.0070  Tot=              0.0269
 Quadrupole moment (field-independent basis, Debye-Ang):
   XX=            -84.9707   YY=            -86.2167   ZZ=            -83.5289
   XY=             -1.3401   XZ=              0.6032   YZ=              0.0265

 Normal termination of Gaussian 16 at Wed May  5 19:50:39 2021.
