 Gaussian 16, Revision A.03,
 Gaussian 16:  EM64L-G16RevA.03 25-Dec-2016

 -------------
 #p 6-31g* mp2
 -------------

 ------------------------------------------------------
 Input file generated by CHIRIPA (05-May-2021 14:51:09)
 ------------------------------------------------------
 Symbolic Z-matrix:
 Charge =  0 Multiplicity = 1

                         Standard orientation:
 ---------------------------------------------------------------------
 Center     Atomic      Atomic             Coordinates (Angstroms)
 Number     Number       Type             X           Y           Z
 ---------------------------------------------------------------------
      1          6           0       -2.315086    0.810264   -0.522558
      2          6           0       -1.796768    2.231966   -0.303257
      3          6           0       -1.949471    3.114566   -1.542408
      4          1           0       -1.776967    0.356667   -1.366135
      5          1           0       -3.373537    0.854275   -0.814345
      6          1           0       -0.739982    2.185214   -0.010626
      7          1           0       -2.336049    2.682163    0.540019
      8          1           0       -3.002064    3.190940   -1.833638
      9          1           0       -1.396928    2.691167   -2.387411
     10          1           0       -1.572689    4.126437   -1.363489
     11          6           0       -2.169278   -0.084153    0.707274
     12          6           0       -2.687596   -1.505856    0.487973
     13          6           0       -2.534893   -2.388455    1.727124
     14          1           0       -1.110827   -0.128164    0.999061
     15          1           0       -2.707396    0.369444    1.550852
     16          1           0       -2.148314   -1.956053   -0.355302
     17          1           0       -3.744382   -1.459103    0.195342
     18          1           0       -3.087436   -1.965056    2.572127
     19          1           0       -1.482300   -2.464829    2.018354
     20          1           0       -2.911675   -3.400326    1.548205
     21          6           0        2.076202    0.347804    0.132503
     22          6           0        3.237408    1.046491    0.840615
     23          6           0        2.889974    2.467784    1.284473
     24          1           0        1.776027    0.943097   -0.740690
     25          1           0        1.208214    0.320817    0.805750
     26          1           0        4.103379    1.070921    0.166736
     27          1           0        3.534980    0.449367    1.712114
     28          1           0        2.041922    2.458693    1.976807
     29          1           0        2.613551    3.083778    0.422649
     30          1           0        3.734180    2.948664    1.788389
     31          6           0        2.408162   -1.073914   -0.317218
     32          6           0        1.246956   -1.772602   -1.025331
     33          6           0        1.594390   -3.193895   -1.469190
     34          1           0        3.276150   -1.046928   -0.990467
     35          1           0        2.708337   -1.669208    0.555974
     36          1           0        0.949384   -1.175477   -1.896829
     37          1           0        0.380984   -1.797032   -0.351452
     38          1           0        1.870813   -3.809890   -0.607365
     39          1           0        2.442442   -3.184804   -2.161524
     40          1           0        0.750185   -3.674775   -1.973105
 ---------------------------------------------------------------------

 SCF Done:  E(RHF) =  -470.732489090     A.U. after   11 cycles
 E2 =    -0.1585759206D+01 EUMP2 =    -0.47231824829641D+03

 The electronic state is 1-A.
 Alpha  occ. eigenvalues --  -11.21681 -11.21674 -11.21574 -11.21497 -11.21494
 Alpha  occ. eigenvalues --  -11.21438 -11.21342 -11.21279 -11.21141 -11.21128
 Alpha  occ. eigenvalues --  -11.21098 -11.21024  -1.08561  -1.08354  -1.03623
 Alpha  occ. eigenvalues --   -1.03482  -0.96062  -0.95946  -0.87076  -0.86965
 Alpha  occ. eigenvalues --   -0.79687  -0.79556  -0.78451  -0.78121  -0.65394
 Alpha  occ. eigenvalues --   -0.64824  -0.61148  -0.60780  -0.59411  -0.59312
 Alpha  occ. eigenvalues --   -0.57693  -0.57542  -0.55421  -0.55177  -0.52745
 Alpha  occ. eigenvalues --   -0.52651  -0.52477  -0.52377  -0.50003  -0.49919
 Alpha  occ. eigenvalues --   -0.48086  -0.47824  -0.46784  -0.46555  -0.46444
 Alpha  occ. eigenvalues --   -0.45840  -0.45618  -0.44987  -0.43864  -0.43736
 Alpha virt. eigenvalues --    0.19921   0.22048   0.23548   0.24058   0.25541
 Alpha virt. eigenvalues --    0.26214   0.27123   0.27712   0.28121   0.30460
 Alpha virt. eigenvalues --    0.31149   0.31399   0.31544   0.31765   0.32259

 Mulliken charges:
               1
     1  C   -0.298580
     2  C   -0.304829
     3  C   -0.475568
     4  H    0.151274
     5  H    0.149119
     6  H    0.157937
     7  H    0.151120
     8  H    0.154983
     9  H    0.154350
    10  H    0.160006
    11  C   -0.306164
    12  C   -0.302768
    13  C   -0.476323
    14  H    0.155864
    15  H    0.149601
    16  H    0.154407
    17  H    0.152660
    18  H    0.155506
    19  H    0.154076
    20  H    0.160550
    21  C   -0.307323
    22  C   -0.298960
    23  C   -0.476942
    24  H    0.150690
    25  H    0.156802
    26  H    0.152236
    27  H    0.152105
    28  H    0.155968
    29  H    0.155602
    30  H    0.160789
    31  C   -0.297828
    32  C   -0.308720
    33  C   -0.475645
    34  H    0.149999
    35  H    0.149613
    36  H    0.151883
    37  H    0.161025
    38  H    0.155496
    39  H    0.155548
    40  H    0.160439
 Sum of Mulliken charges =  -0.00000

 Dipole moment (field-independent basis, Debye):
    X=              0.0525    Y=             -0.0127    Z=              0.0063  Tot=              0.0544
 Quadrupole moment (field-independent basis, Debye-Ang):
   XX=            -83.8409   YY=            -86.2584   ZZ=            -84.6919
   XY=              0.0492   XZ=             -0.5718   YZ=              0.0409

 Normal termination of Gaussian 16 at Wed May  5 16:39:56 2021.
