 Gaussian 16, Revision A.03,
 Gaussian 16:  EM64L-G16RevA.03 25-Dec-2016

 -------------
 #p 6-31g* mp2
 -------------

 ------------------------------------------------------
 Input file generated by CHIRIPA (05-May-2021 14:53:12)
 ------------------------------------------------------
 Symbolic Z-matrix:
 Charge =  0 Multiplicity = 1

                         Standard orientation:
 ---------------------------------------------------------------------
 Center     Atomic      Atomic             Coordinates (Angstroms)
 Number     Number       Type             X           Y           Z
 ---------------------------------------------------------------------
      1          6           0       -4.609055   -0.013254   -0.263464
      2          6           0       -4.825403   -1.488895    0.073676
      3          6           0       -6.303595   -1.878876    0.099253
      4          1           0       -5.140458    0.606071    0.472059
      5          1           0       -5.063198    0.202866   -1.240419
      6          1           0       -4.369781   -1.702487    1.049075
      7          1           0       -4.293265   -2.104776   -0.662623
      8          1           0       -6.767704   -1.693981   -0.874922
      9          1           0       -6.844655   -1.289406    0.846501
     10          1           0       -6.435263   -2.937873    0.342256
     11          6           0       -3.136389    0.391860   -0.292844
     12          6           0       -2.920041    1.867501   -0.629984
     13          6           0       -1.441849    2.257483   -0.655561
     14          1           0       -2.682246    0.175740    0.684111
     15          1           0       -2.604986   -0.227464   -1.028366
     16          1           0       -3.452179    2.483383    0.106315
     17          1           0       -3.375663    2.081093   -1.605383
     18          1           0       -0.900789    1.668012   -1.402809
     19          1           0       -0.977740    2.072587    0.318614
     20          1           0       -1.310181    3.316479   -0.898564
     21          6           0        4.883388   -1.492561   -0.834491
     22          6           0        3.823638   -2.143763   -0.194659
     23          6           0        2.788851   -1.408853    0.391576
     24          6           0        2.845956   -0.017896    0.318992
     25          6           0        3.888275    0.659977   -0.311365
     26          6           0        4.912274   -0.095233   -0.890704
     27          1           0        5.683046   -2.071342   -1.287213
     28          1           0        3.798585   -3.228833   -0.149471
     29          1           0        1.956482   -1.887346    0.893197
     30          1           0        3.885643    1.742833   -0.340256
     31          1           0        5.734038    0.413187   -1.386946
     32          7           0        1.756184    0.770867    0.935961
     33          8           0        1.829801    1.995284    0.858374
     34          8           0        0.849040    0.149746    1.485446
 ---------------------------------------------------------------------

 SCF Done:  E(RHF) =  -669.536523550     A.U. after   15 cycles
 E2 =    -0.2091969633D+01 EUMP2 =    -0.67162849318267D+03

 The electronic state is 1-A.
 Alpha  occ. eigenvalues --  -20.61002 -20.60992 -15.85985 -11.31304 -11.27858
 Alpha  occ. eigenvalues --  -11.27854 -11.27595 -11.26862 -11.26852 -11.20955
 Alpha  occ. eigenvalues --  -11.20562 -11.20556 -11.20382 -11.20251 -11.19398
 Alpha  occ. eigenvalues --   -1.60031  -1.39587  -1.19465  -1.08874  -1.07478
 Alpha  occ. eigenvalues --   -1.04858  -1.02535  -0.95721  -0.94959  -0.86259
 Alpha  occ. eigenvalues --   -0.85974  -0.82554  -0.78644  -0.77611  -0.77245
 Alpha  occ. eigenvalues --   -0.72208  -0.71332  -0.70575  -0.65120  -0.64863
 Alpha  occ. eigenvalues --   -0.64116  -0.62204  -0.59937  -0.58397  -0.56576
 Alpha  occ. eigenvalues --   -0.55370  -0.54246  -0.53192  -0.52949  -0.51669
 Alpha  occ. eigenvalues --   -0.51401  -0.49244  -0.48982  -0.48652  -0.46886
 Alpha  occ. eigenvalues --   -0.45662  -0.45003  -0.44803  -0.44616  -0.42786
 Alpha  occ. eigenvalues --   -0.37438  -0.36457
 Alpha virt. eigenvalues --    0.04892   0.11199   0.16389   0.21333   0.23754
 Alpha virt. eigenvalues --    0.25368   0.27254   0.27591   0.28157   0.28478
 Alpha virt. eigenvalues --    0.29076   0.30920   0.32393   0.32472   0.32628

 Mulliken charges:
               1
     1  C   -0.297490
     2  C   -0.298827
     3  C   -0.475063
     4  H    0.148811
     5  H    0.146304
     6  H    0.152935
     7  H    0.149057
     8  H    0.153702
     9  H    0.154906
    10  H    0.157615
    11  C   -0.299184
    12  C   -0.299372
    13  C   -0.482453
    14  H    0.160742
    15  H    0.144124
    16  H    0.149778
    17  H    0.144678
    18  H    0.142241
    19  H    0.185893
    20  H    0.154626
    21  C   -0.170519
    22  C   -0.218669
    23  C   -0.170775
    24  C    0.160701
    25  C   -0.170692
    26  C   -0.218664
    27  H    0.226018
    28  H    0.223870
    29  H    0.275978
    30  H    0.276090
    31  H    0.223880
    32  N    0.488873
    33  O   -0.458169
    34  O   -0.460946
 Sum of Mulliken charges =  -0.00000

 Dipole moment (field-independent basis, Debye):
    X=              4.1932    Y=             -2.7623    Z=             -1.9709  Tot=              5.3943
 Quadrupole moment (field-independent basis, Debye-Ang):
   XX=            -74.4563   YY=            -91.5614   ZZ=            -95.7506
   XY=             -6.4288   XZ=             -6.3766   YZ=             -1.6466

 Normal termination of Gaussian 16 at Thu May  6 04:06:24 2021.
