 Gaussian 16, Revision A.03,
 Gaussian 16:  EM64L-G16RevA.03 25-Dec-2016

 -------------
 #p 6-31g* mp2
 -------------

 ------------------------------------------------------
 Input file generated by CHIRIPA (05-May-2021 14:57:24)
 ------------------------------------------------------
 Symbolic Z-matrix:
 Charge =  0 Multiplicity = 1

                         Standard orientation:
 ---------------------------------------------------------------------
 Center     Atomic      Atomic             Coordinates (Angstroms)
 Number     Number       Type             X           Y           Z
 ---------------------------------------------------------------------
      1          6           0        1.979147    2.216684    0.437171
      2          6           0        2.464065    1.939400   -0.845205
      3          6           0        3.267868    0.818506   -1.073335
      4          6           0        3.568456   -0.007451    0.008669
      5          6           0        3.100523    0.242087    1.297878
      6          6           0        2.298362    1.368637    1.502742
      7          1           0        1.355371    3.089618    0.605351
      8          1           0        2.217773    2.596250   -1.674623
      9          1           0        3.656689    0.580259   -2.055921
     10          1           0        3.363049   -0.431184    2.104851
     11          1           0        1.923174    1.581507    2.499720
     12          7           0        4.418538   -1.197085   -0.220526
     13          8           0        4.668995   -1.909143    0.749465
     14          8           0        4.818278   -1.394938   -1.365820
     15          6           0       -0.916178    0.044286   -0.020700
     16          6           0       -1.721867    1.172239   -0.208069
     17          6           0       -3.114903    1.055008   -0.224120
     18          6           0       -3.671220   -0.211131   -0.048932
     19          6           0       -2.895319   -1.353764    0.139907
     20          6           0       -1.504438   -1.212899    0.152386
     21          1           0        0.165129    0.144532   -0.009620
     22          1           0       -1.267771    2.149839   -0.342744
     23          1           0       -3.762313    1.911623   -0.367271
     24          1           0       -3.377008   -2.315054    0.271488
     25          1           0       -0.881211   -2.090623    0.298099
     26          7           0       -5.144824   -0.347748   -0.064033
     27          8           0       -5.610435   -1.474389    0.092560
     28          8           0       -5.806319    0.674401   -0.232177
 ---------------------------------------------------------------------

 SCF Done:  E(RHF) =  -868.336557736     A.U. after   16 cycles
 E2 =    -0.2602862734D+01 EUMP2 =    -0.87093942046956D+03

 The electronic state is 1-A.
 Alpha  occ. eigenvalues --  -20.61842 -20.61836 -20.60944 -20.60934 -15.86902
 Alpha  occ. eigenvalues --  -15.86001 -11.32554 -11.31372 -11.29085 -11.29075
 Alpha  occ. eigenvalues --  -11.28851 -11.28155 -11.28113 -11.28026 -11.27940
 Alpha  occ. eigenvalues --  -11.27509 -11.27037 -11.26872  -1.60914  -1.60019
 Alpha  occ. eigenvalues --   -1.40457  -1.39573  -1.20759  -1.19555  -1.10098
 Alpha  occ. eigenvalues --   -1.08921  -1.06132  -1.04979  -0.96865  -0.95756
 Alpha  occ. eigenvalues --   -0.87498  -0.86370  -0.83651  -0.82610  -0.78659
 Alpha  occ. eigenvalues --   -0.77673  -0.73101  -0.72255  -0.72216  -0.71790
 Alpha  occ. eigenvalues --   -0.71346  -0.70659  -0.66340  -0.66065  -0.65200
 Alpha  occ. eigenvalues --   -0.65017  -0.63417  -0.62342  -0.56621  -0.56038
 Alpha  occ. eigenvalues --   -0.54158  -0.53809  -0.53294  -0.53067  -0.49887
 Alpha  occ. eigenvalues --   -0.49848  -0.48974  -0.48970  -0.45798  -0.44977
 Alpha  occ. eigenvalues --   -0.38769  -0.37962  -0.37300  -0.36608
 Alpha virt. eigenvalues --    0.03791   0.04880   0.09834   0.11060   0.15173
 Alpha virt. eigenvalues --    0.16389   0.19419   0.21810   0.25325   0.26279
 Alpha virt. eigenvalues --    0.28107   0.28784   0.29853   0.31231   0.31810

 Mulliken charges:
               1
     1  C   -0.184971
     2  C   -0.220949
     3  C   -0.171562
     4  C    0.158031
     5  C   -0.175142
     6  C   -0.221109
     7  H    0.228250
     8  H    0.228763
     9  H    0.280869
    10  H    0.280314
    11  H    0.230663
    12  N    0.487759
    13  O   -0.457090
    14  O   -0.456123
    15  C   -0.175647
    16  C   -0.224500
    17  C   -0.170264
    18  C    0.157355
    19  C   -0.169708
    20  C   -0.222530
    21  H    0.241591
    22  H    0.211247
    23  H    0.274374
    24  H    0.276712
    25  H    0.226268
    26  N    0.488112
    27  O   -0.459427
    28  O   -0.461286
 Sum of Mulliken charges =  -0.00000

 Dipole moment (field-independent basis, Debye):
    X=              2.6019    Y=              4.5598    Z=              0.8820  Tot=              5.3235
 Quadrupole moment (field-independent basis, Debye-Ang):
   XX=           -164.7790   YY=           -100.4994   ZZ=           -100.5368
   XY=             11.9366   XZ=              2.0497   YZ=             -2.1468

 Normal termination of Gaussian 16 at Fri May  7 04:59:53 2021.
