 Gaussian 16, Revision A.03,
 Gaussian 16:  EM64L-G16RevA.03 25-Dec-2016

 -------------
 #p 6-31g* mp2
 -------------

 ------------------------------------------------------
 Input file generated by CHIRIPA (05-May-2021 14:57:22)
 ------------------------------------------------------
 Symbolic Z-matrix:
 Charge =  0 Multiplicity = 1

                         Standard orientation:
 ---------------------------------------------------------------------
 Center     Atomic      Atomic             Coordinates (Angstroms)
 Number     Number       Type             X           Y           Z
 ---------------------------------------------------------------------
      1          6           0        5.011323    1.465063   -0.182018
      2          6           0        4.401509    0.876311   -1.294680
      3          6           0        3.356423   -0.037741   -1.130815
      4          6           0        2.944535   -0.341497    0.165862
      5          6           0        3.532056    0.228321    1.294320
      6          6           0        4.575419    1.139762    1.106659
      7          1           0        5.822502    2.174106   -0.318554
      8          1           0        4.737965    1.127061   -2.296662
      9          1           0        2.866631   -0.508331   -1.974656
     10          1           0        3.174816   -0.041471    2.280732
     11          1           0        5.047154    1.595444    1.972607
     12          7           0        1.839061   -1.307781    0.351934
     13          8           0        1.494631   -1.558646    1.504788
     14          8           0        1.337954   -1.795992   -0.658599
     15          6           0       -3.634703    2.635812    0.161250
     16          6           0       -4.318162    1.682430    0.923135
     17          6           0       -4.044871    0.320241    0.767244
     18          6           0       -3.077622   -0.054961   -0.163854
     19          6           0       -2.379754    0.870977   -0.937746
     20          6           0       -2.669383    2.227762   -0.765127
     21          1           0       -3.853348    3.691894    0.288847
     22          1           0       -5.068349    1.996428    1.643323
     23          1           0       -4.559049   -0.438959    1.344006
     24          1           0       -1.637266    0.527418   -1.647745
     25          1           0       -2.137035    2.965957   -1.358186
     26          7           0       -2.779652   -1.494189   -0.337744
     27          8           0       -1.923000   -1.798949   -1.164729
     28          8           0       -3.408399   -2.290243    0.356239
 ---------------------------------------------------------------------

 SCF Done:  E(RHF) =  -868.335177373     A.U. after   16 cycles
 E2 =    -0.2600853146D+01 EUMP2 =    -0.87093603051959D+03

 The electronic state is 1-A.
 Alpha  occ. eigenvalues --  -20.60289 -20.60204 -20.59648 -20.59520 -15.85303
 Alpha  occ. eigenvalues --  -15.84641 -11.30987 -11.30430 -11.27588 -11.27584
 Alpha  occ. eigenvalues --  -11.27385 -11.27052 -11.27046 -11.26898 -11.26673
 Alpha  occ. eigenvalues --  -11.26662 -11.26192 -11.26164  -1.59325  -1.58645
 Alpha  occ. eigenvalues --   -1.38868  -1.38188  -1.19189  -1.18646  -1.08524
 Alpha  occ. eigenvalues --   -1.07968  -1.04634  -1.04119  -0.95301  -0.94730
 Alpha  occ. eigenvalues --   -0.86016  -0.85496  -0.82129  -0.81563  -0.77131
 Alpha  occ. eigenvalues --   -0.76533  -0.71518  -0.70863  -0.70667  -0.70286
 Alpha  occ. eigenvalues --   -0.69951  -0.69763  -0.64827  -0.64634  -0.64292
 Alpha  occ. eigenvalues --   -0.64138  -0.61974  -0.61463  -0.55120  -0.54622
 Alpha  occ. eigenvalues --   -0.52955  -0.52725  -0.52420  -0.52224  -0.48289
 Alpha  occ. eigenvalues --   -0.48252  -0.47649  -0.47600  -0.44256  -0.43402
 Alpha  occ. eigenvalues --   -0.37190  -0.36651  -0.36258  -0.35743
 Alpha virt. eigenvalues --    0.05382   0.06044   0.11390   0.11907   0.16819
 Alpha virt. eigenvalues --    0.17449   0.21515   0.21958   0.27403   0.27817
 Alpha virt. eigenvalues --    0.28421   0.28910   0.31016   0.31483   0.32638

 Mulliken charges:
               1
     1  C   -0.172063
     2  C   -0.218935
     3  C   -0.173539
     4  C    0.158310
     5  C   -0.171798
     6  C   -0.218666
     7  H    0.224242
     8  H    0.222263
     9  H    0.276631
    10  H    0.275660
    11  H    0.222375
    12  N    0.485175
    13  O   -0.462094
    14  O   -0.447238
    15  C   -0.172311
    16  C   -0.218579
    17  C   -0.170718
    18  C    0.161508
    19  C   -0.172080
    20  C   -0.218848
    21  H    0.221916
    22  H    0.220935
    23  H    0.275475
    24  H    0.276200
    25  H    0.218864
    26  N    0.488493
    27  O   -0.446950
    28  O   -0.464228
 Sum of Mulliken charges =  -0.00000

 Dipole moment (field-independent basis, Debye):
    X=              2.8996    Y=              8.1455    Z=             -0.1345  Tot=              8.6472
 Quadrupole moment (field-independent basis, Debye-Ang):
   XX=            -75.4974   YY=           -108.9644   ZZ=            -98.3677
   XY=             -5.6233   XZ=             -5.4199   YZ=             -0.0957

 Normal termination of Gaussian 16 at Thu May  6 17:52:59 2021.
