 Gaussian 16, Revision A.03,
 Gaussian 16:  EM64L-G16RevA.03 25-Dec-2016

 -------------
 #p 6-31g* mp2
 -------------

 ------------------------------------------------------
 Input file generated by CHIRIPA (05-May-2021 14:55:22)
 ------------------------------------------------------
 Symbolic Z-matrix:
 Charge =  0 Multiplicity = 1

                         Standard orientation:
 ---------------------------------------------------------------------
 Center     Atomic      Atomic             Coordinates (Angstroms)
 Number     Number       Type             X           Y           Z
 ---------------------------------------------------------------------
      1          6           0       -2.173027    2.395037    0.516758
      2          6           0       -1.945860    1.424605    1.498174
      3          6           0       -2.392712    0.112463    1.316087
      4          6           0       -3.066348   -0.195850    0.135220
      5          6           0       -3.308013    0.748676   -0.861152
      6          6           0       -2.852180    2.054575   -0.657703
      7          1           0       -1.822414    3.411916    0.666505
      8          1           0       -1.418700    1.686154    2.411267
      9          1           0       -2.230377   -0.658524    2.059488
     10          1           0       -3.836457    0.457840   -1.760918
     11          1           0       -3.030019    2.806160   -1.421600
     12          7           0       -3.544163   -1.581652   -0.068855
     13          8           0       -4.135151   -1.827854   -1.118024
     14          8           0       -3.318639   -2.395400    0.824224
     15          6           0        4.385371   -0.299855    0.233056
     16          6           0        5.774287   -0.160163   -0.390950
     17          6           0        6.886595   -0.681026    0.519690
     18          1           0        4.363285    0.242438    1.188239
     19          1           0        4.201947   -1.357123    0.469562
     20          1           0        5.954483    0.896341   -0.627479
     21          1           0        5.793010   -0.702691   -1.344852
     22          1           0        6.734321   -1.741295    0.746060
     23          1           0        6.896712   -0.133177    1.467509
     24          1           0        7.870980   -0.571514    0.054012
     25          6           0        3.262880    0.216535   -0.665323
     26          6           0        1.873964    0.076844   -0.041317
     27          6           0        0.761655    0.597706   -0.951957
     28          1           0        3.446303    1.273803   -0.901829
     29          1           0        3.284965   -0.325758   -1.620506
     30          1           0        1.855241    0.619372    0.912585
     31          1           0        1.693768   -0.979660    0.195212
     32          1           0        0.751539    0.049858   -1.899776
     33          1           0        0.913929    1.657975   -1.178327
     34          1           0       -0.222729    0.488195   -0.486279
 ---------------------------------------------------------------------

 SCF Done:  E(RHF) =  -669.533814168     A.U. after   15 cycles
 E2 =    -0.2094117208D+01 EUMP2 =    -0.67162793137627D+03

 The electronic state is 1-A.
 Alpha  occ. eigenvalues --  -20.60830 -20.60824 -15.85884 -11.31286 -11.27857
 Alpha  occ. eigenvalues --  -11.27832 -11.27552 -11.26850 -11.26825 -11.21725
 Alpha  occ. eigenvalues --  -11.21708 -11.21524 -11.21464 -11.21165 -11.20951
 Alpha  occ. eigenvalues --   -1.59904  -1.39456  -1.19483  -1.08845  -1.08538
 Alpha  occ. eigenvalues --   -1.04864  -1.03616  -0.96057  -0.95671  -0.87079
 Alpha  occ. eigenvalues --   -0.86245  -0.82495  -0.79695  -0.78363  -0.77546
 Alpha  occ. eigenvalues --   -0.72099  -0.71232  -0.70545  -0.65176  -0.65096
 Alpha  occ. eigenvalues --   -0.64843  -0.62197  -0.61025  -0.59579  -0.57784
 Alpha  occ. eigenvalues --   -0.55362  -0.55336  -0.53976  -0.52932  -0.52546
 Alpha  occ. eigenvalues --   -0.51693  -0.50005  -0.48862  -0.48853  -0.47966
 Alpha  occ. eigenvalues --   -0.46738  -0.45901  -0.45834  -0.44853  -0.43799
 Alpha  occ. eigenvalues --   -0.37423  -0.36468
 Alpha virt. eigenvalues --    0.04978   0.11152   0.16455   0.21274   0.22787
 Alpha virt. eigenvalues --    0.24339   0.26460   0.26995   0.27611   0.27964
 Alpha virt. eigenvalues --    0.28334   0.30776   0.31332   0.31847   0.32402

 Mulliken charges:
               1
     1  C   -0.168888
     2  C   -0.218484
     3  C   -0.176310
     4  C    0.161024
     5  C   -0.171614
     6  C   -0.215753
     7  H    0.226011
     8  H    0.224190
     9  H    0.276309
    10  H    0.276318
    11  H    0.224257
    12  N    0.488208
    13  O   -0.460042
    14  O   -0.460197
    15  C   -0.298216
    16  C   -0.299644
    17  C   -0.475742
    18  H    0.147606
    19  H    0.151066
    20  H    0.150979
    21  H    0.152853
    22  H    0.156086
    23  H    0.154424
    24  H    0.160495
    25  C   -0.297957
    26  C   -0.298795
    27  C   -0.482029
    28  H    0.147330
    29  H    0.151366
    30  H    0.144626
    31  H    0.154383
    32  H    0.154763
    33  H    0.146857
    34  H    0.174521
 Sum of Mulliken charges =  -0.00000

 Dipole moment (field-independent basis, Debye):
    X=              1.5508    Y=              4.8724    Z=              0.7173  Tot=              5.1633
 Quadrupole moment (field-independent basis, Debye-Ang):
   XX=           -105.9431   YY=            -96.1204   ZZ=            -90.9357
   XY=            -15.8359   XZ=             -0.4606   YZ=             -0.1984

 Normal termination of Gaussian 16 at Thu May  6 14:12:24 2021.
