 Gaussian 16, Revision A.03,
 Gaussian 16:  EM64L-G16RevA.03 25-Dec-2016

 -------------
 #p 6-31g* mp2
 -------------

 ------------------------------------------------------
 Input file generated by CHIRIPA (05-May-2021 14:57:26)
 ------------------------------------------------------
 Symbolic Z-matrix:
 Charge =  0 Multiplicity = 1

                         Standard orientation:
 ---------------------------------------------------------------------
 Center     Atomic      Atomic             Coordinates (Angstroms)
 Number     Number       Type             X           Y           Z
 ---------------------------------------------------------------------
      1          6           0        2.563762   -2.232721   -0.741602
      2          6           0        2.241486   -1.835945    0.560407
      3          6           0        2.273420   -0.485158    0.919440
      4          6           0        2.633634    0.446342   -0.053104
      5          6           0        2.960061    0.082366   -1.358576
      6          6           0        2.921391   -1.273989   -1.695257
      7          1           0        2.536339   -3.284207   -1.011826
      8          1           0        1.963387   -2.578315    1.303099
      9          1           0        2.028633   -0.150334    1.920134
     10          1           0        3.233484    0.845502   -2.077103
     11          1           0        3.172168   -1.579232   -2.707177
     12          7           0        2.671007    1.879307    0.315156
     13          8           0        2.991565    2.680454   -0.560082
     14          8           0        2.379033    2.174184    1.472064
     15          6           0       -1.188909   -1.921752    1.282963
     16          6           0       -1.573994   -0.755852    1.952969
     17          6           0       -2.370943    0.199357    1.315005
     18          6           0       -2.766549   -0.044703    0.000768
     19          6           0       -2.399278   -1.196422   -0.693456
     20          6           0       -1.602051   -2.137935   -0.035786
     21          1           0       -0.569711   -2.658462    1.786203
     22          1           0       -1.254623   -0.585310    2.977157
     23          1           0       -2.683533    1.110690    1.810158
     24          1           0       -2.733253   -1.338484   -1.714092
     25          1           0       -1.304506   -3.042472   -0.558588
     26          7           0       -3.610391    0.959284   -0.685047
     27          8           0       -3.945742    0.720676   -1.843167
     28          8           0       -3.920465    1.965806   -0.051482
 ---------------------------------------------------------------------

 SCF Done:  E(RHF) =  -868.335230801     A.U. after   16 cycles
 E2 =    -0.2602856205D+01 EUMP2 =    -0.87093808700624D+03

 The electronic state is 1-A.
 Alpha  occ. eigenvalues --  -20.61125 -20.61101 -20.60826 -20.60808 -15.86176
 Alpha  occ. eigenvalues --  -15.85881 -11.31669 -11.31368 -11.28320 -11.28212
 Alpha  occ. eigenvalues --  -11.28077 -11.28002 -11.27948 -11.27877 -11.27428
 Alpha  occ. eigenvalues --  -11.27275 -11.27080 -11.27026  -1.60185  -1.59893
 Alpha  occ. eigenvalues --   -1.39737  -1.39443  -1.19873  -1.19583  -1.09260
 Alpha  occ. eigenvalues --   -1.08984  -1.05311  -1.05007  -0.96060  -0.95796
 Alpha  occ. eigenvalues --   -0.86725  -0.86415  -0.82926  -0.82599  -0.77928
 Alpha  occ. eigenvalues --   -0.77608  -0.72396  -0.72100  -0.71506  -0.71216
 Alpha  occ. eigenvalues --   -0.71013  -0.70805  -0.65542  -0.65379  -0.65244
 Alpha  occ. eigenvalues --   -0.65036  -0.62674  -0.62349  -0.55877  -0.55610
 Alpha  occ. eigenvalues --   -0.53935  -0.53404  -0.53122  -0.53006  -0.49163
 Alpha  occ. eigenvalues --   -0.49139  -0.48871  -0.48841  -0.45115  -0.44821
 Alpha  occ. eigenvalues --   -0.38205  -0.37775  -0.36552  -0.36364
 Alpha virt. eigenvalues --    0.04475   0.05059   0.10300   0.11420   0.15741
 Alpha virt. eigenvalues --    0.16732   0.18903   0.22185   0.25246   0.26161
 Alpha virt. eigenvalues --    0.28243   0.28702   0.29774   0.31517   0.32580

 Mulliken charges:
               1
     1  C   -0.173343
     2  C   -0.216421
     3  C   -0.164143
     4  C    0.159178
     5  C   -0.169431
     6  C   -0.218036
     7  H    0.223234
     8  H    0.213666
     9  H    0.271436
    10  H    0.278454
    11  H    0.225262
    12  N    0.488378
    13  O   -0.456806
    14  O   -0.461500
    15  C   -0.166996
    16  C   -0.221416
    17  C   -0.167543
    18  C    0.158465
    19  C   -0.170397
    20  C   -0.214892
    21  H    0.215488
    22  H    0.223796
    23  H    0.279988
    24  H    0.275494
    25  H    0.218030
    26  N    0.488175
    27  O   -0.460987
    28  O   -0.457131
 Sum of Mulliken charges =  -0.00000

 Dipole moment (field-independent basis, Debye):
    X=              2.8130    Y=             -8.2901    Z=              0.9949  Tot=              8.8107
 Quadrupole moment (field-independent basis, Debye-Ang):
   XX=           -122.7803   YY=           -108.6368   ZZ=            -97.2810
   XY=             -3.3060   XZ=            -11.9776   YZ=              1.2828

 Normal termination of Gaussian 16 at Thu May  6 14:45:41 2021.
