 Gaussian 16, Revision A.03,
 Gaussian 16:  EM64L-G16RevA.03 25-Dec-2016

 -------------
 #p 6-31g* mp2
 -------------

 ------------------------------------------------------
 Input file generated by CHIRIPA (05-May-2021 14:55:24)
 ------------------------------------------------------
 Symbolic Z-matrix:
 Charge =  0 Multiplicity = 1

                         Standard orientation:
 ---------------------------------------------------------------------
 Center     Atomic      Atomic             Coordinates (Angstroms)
 Number     Number       Type             X           Y           Z
 ---------------------------------------------------------------------
      1          6           0        1.849203    1.080690   -0.257616
      2          6           0        2.974525    1.837424    0.085200
      3          6           0        4.226919    1.229418    0.213211
      4          6           0        4.318190   -0.143626   -0.009744
      5          6           0        3.215567   -0.924645   -0.352559
      6          6           0        1.973096   -0.295503   -0.475018
      7          1           0        0.880167    1.561213   -0.354902
      8          1           0        2.881283    2.906371    0.254624
      9          1           0        5.114486    1.791375    0.477497
     10          1           0        3.339865   -1.988363   -0.515259
     11          1           0        1.100873   -0.885696   -0.741370
     12          7           0        5.638790   -0.798483    0.122837
     13          8           0        5.692733   -2.009707   -0.078813
     14          8           0        6.594928   -0.088135    0.425892
     15          6           0       -5.959099    0.036272   -0.240025
     16          6           0       -6.904389   -0.883247    0.533861
     17          6           0       -8.321879   -0.891381   -0.039245
     18          1           0       -6.364475    1.057339   -0.233907
     19          1           0       -5.928698   -0.281664   -1.291398
     20          1           0       -6.931930   -0.564523    1.583752
     21          1           0       -6.496620   -1.902207    0.526063
     22          1           0       -8.314585   -1.230303   -1.080244
     23          1           0       -8.752369    0.114981   -0.016546
     24          1           0       -8.980879   -1.555175    0.529047
     25          6           0       -4.538280    0.055115    0.320907
     26          6           0       -3.592991    0.974634   -0.452978
     27          6           0       -2.175500    0.982768    0.120128
     28          1           0       -4.568682    0.373052    1.372281
     29          1           0       -4.132905   -0.965952    0.314790
     30          1           0       -4.000761    1.993594   -0.445181
     31          1           0       -3.565449    0.655910   -1.502869
     32          1           0       -1.745011   -0.023594    0.097429
     33          1           0       -2.182795    1.321690    1.161127
     34          1           0       -1.516501    1.646562   -0.448164
 ---------------------------------------------------------------------

 SCF Done:  E(RHF) =  -669.535511536     A.U. after   15 cycles
 E2 =    -0.2090919128D+01 EUMP2 =    -0.67162643066418D+03

 The electronic state is 1-A.
 Alpha  occ. eigenvalues --  -20.60695 -20.60690 -15.85749 -11.31092 -11.27667
 Alpha  occ. eigenvalues --  -11.27663 -11.27343 -11.26663 -11.26652 -11.22591
 Alpha  occ. eigenvalues --  -11.22446 -11.22159 -11.22103 -11.21981 -11.21486
 Alpha  occ. eigenvalues --   -1.59772  -1.39326  -1.19262  -1.09171  -1.08653
 Alpha  occ. eigenvalues --   -1.04666  -1.04320  -0.96801  -0.95492  -0.87828
 Alpha  occ. eigenvalues --   -0.86059  -0.82333  -0.80395  -0.78929  -0.77386
 Alpha  occ. eigenvalues --   -0.71967  -0.71095  -0.70373  -0.65795  -0.64911
 Alpha  occ. eigenvalues --   -0.64674  -0.62025  -0.61701  -0.60243  -0.58381
 Alpha  occ. eigenvalues --   -0.56074  -0.55225  -0.53435  -0.53212  -0.52987
 Alpha  occ. eigenvalues --   -0.52755  -0.50725  -0.48739  -0.48723  -0.48686
 Alpha  occ. eigenvalues --   -0.47398  -0.46486  -0.46375  -0.44737  -0.44560
 Alpha  occ. eigenvalues --   -0.37227  -0.36276
 Alpha virt. eigenvalues --    0.05151   0.11368   0.16645   0.19861   0.22376
 Alpha virt. eigenvalues --    0.23842   0.25324   0.25930   0.26276   0.27214
 Alpha virt. eigenvalues --    0.28747   0.29550   0.31011   0.31472   0.32314

 Mulliken charges:
               1
     1  C   -0.174907
     2  C   -0.220578
     3  C   -0.170726
     4  C    0.158139
     5  C   -0.170958
     6  C   -0.222574
     7  H    0.235482
     8  H    0.223375
     9  H    0.275164
    10  H    0.275174
    11  H    0.223820
    12  N    0.488047
    13  O   -0.460784
    14  O   -0.460728
    15  C   -0.298925
    16  C   -0.300175
    17  C   -0.476100
    18  H    0.150740
    19  H    0.150337
    20  H    0.152789
    21  H    0.152578
    22  H    0.155742
    23  H    0.155772
    24  H    0.161846
    25  C   -0.299440
    26  C   -0.299175
    27  C   -0.481459
    28  H    0.151305
    29  H    0.150125
    30  H    0.155045
    31  H    0.153611
    32  H    0.153567
    33  H    0.161212
    34  H    0.152659
 Sum of Mulliken charges =  -0.00000

 Dipole moment (field-independent basis, Debye):
    X=             -4.9585    Y=              2.3102    Z=             -0.4345  Tot=              5.4875
 Quadrupole moment (field-independent basis, Debye-Ang):
   XX=           -134.8164   YY=            -91.0954   ZZ=            -95.0385
   XY=             12.4799   XZ=             -1.9576   YZ=              1.7347

 Normal termination of Gaussian 16 at Thu May  6 01:35:09 2021.
