 Gaussian 16, Revision A.03,
 Gaussian 16:  EM64L-G16RevA.03 25-Dec-2016

 -------------
 #p 6-31g* mp2
 -------------

 ------------------------------------------------------
 Input file generated by CHIRIPA (05-May-2021 14:51:14)
 ------------------------------------------------------
 Symbolic Z-matrix:
 Charge =  0 Multiplicity = 1

                         Standard orientation:
 ---------------------------------------------------------------------
 Center     Atomic      Atomic             Coordinates (Angstroms)
 Number     Number       Type             X           Y           Z
 ---------------------------------------------------------------------
      1          6           0       -3.282335   -0.512787   -0.649439
      2          6           0       -3.766171   -1.307594    0.563891
      3          6           0       -4.461897   -2.612825    0.176423
      4          1           0       -4.138856   -0.293815   -1.301641
      5          1           0       -2.593749   -1.136149   -1.236520
      6          1           0       -4.452564   -0.682431    1.149256
      7          1           0       -2.908429   -1.524533    1.213377
      8          1           0       -3.782017   -3.258817   -0.388429
      9          1           0       -5.334925   -2.411929   -0.452914
     10          1           0       -4.799695   -3.165035    1.058929
     11          6           0       -2.584742    0.794626   -0.278273
     12          6           0       -2.100905    1.589434   -1.491602
     13          6           0       -1.405180    2.894665   -1.104135
     14          1           0       -3.273328    1.417989    0.308808
     15          1           0       -1.728221    0.575655    0.373929
     16          1           0       -2.958648    1.806373   -2.141088
     17          1           0       -1.414513    0.964270   -2.076968
     18          1           0       -0.532152    2.693769   -0.474798
     19          1           0       -2.085060    3.540657   -0.539283
     20          1           0       -1.067382    3.446875   -1.986641
     21          6           0        3.103113   -0.422411   -0.225666
     22          6           0        4.586671   -0.749519   -0.398984
     23          6           0        4.910232   -1.311739   -1.783545
     24          1           0        2.510877   -1.330828   -0.401675
     25          1           0        2.801929    0.301170   -0.995804
     26          1           0        4.885298   -1.471218    0.372112
     27          1           0        5.175456    0.159740   -0.222353
     28          1           0        4.639906   -0.593077   -2.563962
     29          1           0        4.348099   -2.233300   -1.966119
     30          1           0        5.976048   -1.538589   -1.885699
     31          6           0        2.763964    0.140571    1.153377
     32          6           0        1.280405    0.467679    1.326696
     33          6           0        0.956845    1.029899    2.711257
     34          1           0        3.065147   -0.583010    1.923515
     35          1           0        3.356200    1.048989    1.329387
     36          1           0        0.691621   -0.441580    1.150064
     37          1           0        0.981779    1.189378    0.555599
     38          1           0        1.518977    1.951460    2.893830
     39          1           0        1.227171    0.311237    3.491673
     40          1           0       -0.108972    1.256749    2.813411
 ---------------------------------------------------------------------

 SCF Done:  E(RHF) =  -470.732994311     A.U. after   11 cycles
 E2 =    -0.1583798568D+01 EUMP2 =    -0.47231679287904D+03

 The electronic state is 1-A.
 Alpha  occ. eigenvalues --  -11.21684 -11.21640 -11.21592 -11.21570 -11.21462
 Alpha  occ. eigenvalues --  -11.21402 -11.21360 -11.21285 -11.21125 -11.21102
 Alpha  occ. eigenvalues --  -11.21065 -11.21051  -1.08500  -1.08391  -1.03605
 Alpha  occ. eigenvalues --   -1.03498  -0.96031  -0.95960  -0.87046  -0.86977
 Alpha  occ. eigenvalues --   -0.79710  -0.79540  -0.78373  -0.78144  -0.65149
 Alpha  occ. eigenvalues --   -0.65022  -0.61115  -0.60822  -0.59440  -0.59278
 Alpha  occ. eigenvalues --   -0.57646  -0.57569  -0.55369  -0.55206  -0.52726
 Alpha  occ. eigenvalues --   -0.52656  -0.52472  -0.52374  -0.50039  -0.49855
 Alpha  occ. eigenvalues --   -0.48092  -0.47836  -0.46790  -0.46497  -0.46029
 Alpha  occ. eigenvalues --   -0.45759  -0.45709  -0.45407  -0.43836  -0.43757
 Alpha virt. eigenvalues --    0.20486   0.23112   0.23464   0.24380   0.25909
 Alpha virt. eigenvalues --    0.26306   0.26959   0.27715   0.28191   0.29358
 Alpha virt. eigenvalues --    0.30423   0.31270   0.31677   0.31823   0.32051

 Mulliken charges:
               1
     1  C   -0.297941
     2  C   -0.299702
     3  C   -0.475655
     4  H    0.149509
     5  H    0.149369
     6  H    0.151928
     7  H    0.151468
     8  H    0.155041
     9  H    0.155254
    10  H    0.160158
    11  C   -0.306892
    12  C   -0.298835
    13  C   -0.481853
    14  H    0.148745
    15  H    0.159977
    16  H    0.151862
    17  H    0.151928
    18  H    0.160103
    19  H    0.155334
    20  H    0.159998
    21  C   -0.298524
    22  C   -0.299692
    23  C   -0.475768
    24  H    0.149385
    25  H    0.149598
    26  H    0.152048
    27  H    0.152151
    28  H    0.155301
    29  H    0.155139
    30  H    0.160436
    31  C   -0.297442
    32  C   -0.308389
    33  C   -0.477733
    34  H    0.149785
    35  H    0.149993
    36  H    0.151647
    37  H    0.158619
    38  H    0.155643
    39  H    0.155631
    40  H    0.162374
 Sum of Mulliken charges =  -0.00000

 Dipole moment (field-independent basis, Debye):
    X=              0.0345    Y=              0.0015    Z=              0.0189  Tot=              0.0394
 Quadrupole moment (field-independent basis, Debye-Ang):
   XX=            -84.4023   YY=            -84.8045   ZZ=            -85.5892
   XY=             -0.6067   XZ=              0.2727   YZ=             -0.8227

 Normal termination of Gaussian 16 at Thu May  6 00:51:08 2021.
