 Gaussian 16, Revision A.03,
 Gaussian 16:  EM64L-G16RevA.03 25-Dec-2016

 -------------
 #p 6-31g* mp2
 -------------

 ------------------------------------------------------
 Input file generated by CHIRIPA (05-May-2021 14:51:11)
 ------------------------------------------------------
 Symbolic Z-matrix:
 Charge =  0 Multiplicity = 1

                         Standard orientation:
 ---------------------------------------------------------------------
 Center     Atomic      Atomic             Coordinates (Angstroms)
 Number     Number       Type             X           Y           Z
 ---------------------------------------------------------------------
      1          6           0        2.930000   -0.105169   -0.124614
      2          6           0        2.403586   -1.161941   -1.096266
      3          6           0        3.178217   -2.477680   -1.015208
      4          1           0        3.992464    0.079686   -0.334241
      5          1           0        2.877561   -0.500121    0.899426
      6          1           0        2.455713   -0.764592   -2.118036
      7          1           0        1.342203   -1.344162   -0.884426
      8          1           0        3.116097   -2.899810   -0.006967
      9          1           0        4.235934   -2.316946   -1.247586
     10          1           0        2.785263   -3.218864   -1.718125
     11          6           0        2.165748    1.215759   -0.193867
     12          6           0        2.692161    2.272530    0.777786
     13          6           0        1.917530    3.588269    0.696727
     14          1           0        2.218187    1.610710   -1.217907
     15          1           0        1.103284    1.030903    0.015761
     16          1           0        3.753544    2.454752    0.565945
     17          1           0        2.640034    1.875181    1.799555
     18          1           0        0.859813    3.427536    0.929106
     19          1           0        1.979650    4.010399   -0.311513
     20          1           0        2.310484    4.329454    1.399645
     21          6           0       -2.954815    0.080571    0.275456
     22          6           0       -3.511364    0.688191   -1.012579
     23          6           0       -4.323164    1.959745   -0.763728
     24          1           0       -3.786637   -0.141440    0.957900
     25          1           0       -2.325329    0.825361    0.781843
     26          1           0       -4.138500   -0.057992   -1.517087
     27          1           0       -2.678137    0.908603   -1.692112
     28          1           0       -3.704455    2.723667   -0.281833
     29          1           0       -5.173114    1.751580   -0.105813
     30          1           0       -4.711535    2.377358   -1.697873
     31          6           0       -2.140932   -1.191160    0.043025
     32          6           0       -1.584383   -1.798780    1.331060
     33          6           0       -0.772584   -3.070334    1.082208
     34          1           0       -2.770419   -1.935950   -0.463363
     35          1           0       -1.309110   -0.969150   -0.639419
     36          1           0       -2.417611   -2.019192    2.010594
     37          1           0       -0.957248   -1.052597    1.835567
     38          1           0        0.077367   -2.862169    0.424293
     39          1           0       -1.391293   -3.834256    0.600313
     40          1           0       -0.384212   -3.487948    2.016353
 ---------------------------------------------------------------------

 SCF Done:  E(RHF) =  -470.733173605     A.U. after   11 cycles
 E2 =    -0.1583977300D+01 EUMP2 =    -0.47231715090515D+03

 The electronic state is 1-A.
 Alpha  occ. eigenvalues --  -11.21657 -11.21651 -11.21647 -11.21612 -11.21469
 Alpha  occ. eigenvalues --  -11.21443 -11.21407 -11.21384 -11.21124 -11.21103
 Alpha  occ. eigenvalues --  -11.21080 -11.21076  -1.08509  -1.08449  -1.03609
 Alpha  occ. eigenvalues --   -1.03535  -0.96047  -0.95990  -0.87046  -0.87021
 Alpha  occ. eigenvalues --   -0.79685  -0.79589  -0.78353  -0.78233  -0.65354
 Alpha  occ. eigenvalues --   -0.64899  -0.61223  -0.60743  -0.59425  -0.59342
 Alpha  occ. eigenvalues --   -0.57671  -0.57587  -0.55453  -0.55159  -0.52721
 Alpha  occ. eigenvalues --   -0.52695  -0.52453  -0.52425  -0.49983  -0.49938
 Alpha  occ. eigenvalues --   -0.48080  -0.47866  -0.46877  -0.46524  -0.46087
 Alpha  occ. eigenvalues --   -0.45798  -0.45760  -0.45375  -0.43837  -0.43811
 Alpha virt. eigenvalues --    0.19055   0.22414   0.23761   0.24739   0.25585
 Alpha virt. eigenvalues --    0.26623   0.27169   0.27522   0.28475   0.30178
 Alpha virt. eigenvalues --    0.30863   0.31496   0.31631   0.31786   0.31966

 Mulliken charges:
               1
     1  C   -0.297978
     2  C   -0.309381
     3  C   -0.476407
     4  H    0.150152
     5  H    0.149855
     6  H    0.152474
     7  H    0.159272
     8  H    0.156330
     9  H    0.155554
    10  H    0.160726
    11  C   -0.300180
    12  C   -0.299713
    13  C   -0.475608
    14  H    0.149744
    15  H    0.150170
    16  H    0.152341
    17  H    0.152074
    18  H    0.154595
    19  H    0.155364
    20  H    0.160606
    21  C   -0.298278
    22  C   -0.299858
    23  C   -0.475725
    24  H    0.149929
    25  H    0.148982
    26  H    0.151985
    27  H    0.152579
    28  H    0.155274
    29  H    0.155122
    30  H    0.160409
    31  C   -0.303703
    32  C   -0.299625
    33  C   -0.482848
    34  H    0.149986
    35  H    0.153924
    36  H    0.152444
    37  H    0.151217
    38  H    0.162471
    39  H    0.155556
    40  H    0.160166
 Sum of Mulliken charges =  -0.00000

 Dipole moment (field-independent basis, Debye):
    X=              0.0163    Y=             -0.0066    Z=             -0.0155  Tot=              0.0234
 Quadrupole moment (field-independent basis, Debye-Ang):
   XX=            -84.0986   YY=            -86.1908   ZZ=            -84.2738
   XY=              1.7401   XZ=             -0.4987   YZ=             -0.3590

 Normal termination of Gaussian 16 at Wed May  5 19:50:40 2021.
