 Gaussian 16, Revision A.03,
 Gaussian 16:  EM64L-G16RevA.03 25-Dec-2016

 -------------
 #p 6-31g* mp2
 -------------

 ------------------------------------------------------
 Input file generated by CHIRIPA (05-May-2021 14:55:24)
 ------------------------------------------------------
 Symbolic Z-matrix:
 Charge =  0 Multiplicity = 1

                         Standard orientation:
 ---------------------------------------------------------------------
 Center     Atomic      Atomic             Coordinates (Angstroms)
 Number     Number       Type             X           Y           Z
 ---------------------------------------------------------------------
      1          6           0       -0.642994   -1.268930   -0.532469
      2          6           0       -1.722438   -2.071158   -0.148086
      3          6           0       -2.976425   -1.504030    0.097738
      4          6           0       -3.116055   -0.125027   -0.051072
      5          6           0       -2.059822    0.700835   -0.432664
      6          6           0       -0.814828    0.112072   -0.673284
      7          1           0        0.327640   -1.717892   -0.721410
      8          1           0       -1.591910   -3.143947   -0.037940
      9          1           0       -3.829074   -2.101634    0.396532
     10          1           0       -2.220708    1.767245   -0.534167
     11          1           0        0.021702    0.737552   -0.971674
     12          7           0       -4.438835    0.486819    0.206416
     13          8           0       -4.535872    1.704254    0.068310
     14          8           0       -5.353545   -0.262637    0.541465
     15          6           0        3.228194    0.879651    0.174808
     16          6           0        3.910361    2.236508   -0.002882
     17          6           0        2.934456    3.408110    0.110044
     18          1           0        2.436243    0.773021   -0.579108
     19          1           0        2.732397    0.851909    1.155017
     20          1           0        4.405890    2.261170   -0.981891
     21          1           0        4.700907    2.339840    0.751422
     22          1           0        2.448706    3.411675    1.091184
     23          1           0        2.152014    3.332558   -0.651978
     24          1           0        3.443211    4.368360   -0.020130
     25          6           0        4.190802   -0.301434    0.064575
     26          6           0        3.508635   -1.658291    0.242265
     27          6           0        4.484541   -2.829892    0.129338
     28          1           0        4.686599   -0.273692   -0.915635
     29          1           0        4.982753   -0.194804    0.818490
     30          1           0        2.718090   -1.761623   -0.512040
     31          1           0        3.013106   -1.682953    1.221274
     32          1           0        5.266982   -2.754341    0.891360
     33          1           0        4.970290   -2.833457   -0.851802
     34          1           0        3.975785   -3.790143    0.259513
 ---------------------------------------------------------------------

 SCF Done:  E(RHF) =  -669.535096561     A.U. after   15 cycles
 E2 =    -0.2092308170D+01 EUMP2 =    -0.67162740473072D+03

 The electronic state is 1-A.
 Alpha  occ. eigenvalues --  -20.60687 -20.60682 -15.85740 -11.31081 -11.27654
 Alpha  occ. eigenvalues --  -11.27642 -11.27343 -11.26657 -11.26620 -11.22819
 Alpha  occ. eigenvalues --  -11.22522 -11.22448 -11.22398 -11.22033 -11.21871
 Alpha  occ. eigenvalues --   -1.59763  -1.39317  -1.19250  -1.09480  -1.08644
 Alpha  occ. eigenvalues --   -1.04652  -1.04515  -0.96938  -0.95487  -0.87954
 Alpha  occ. eigenvalues --   -0.86052  -0.82327  -0.80596  -0.79330  -0.77372
 Alpha  occ. eigenvalues --   -0.71958  -0.71086  -0.70368  -0.66131  -0.64898
 Alpha  occ. eigenvalues --   -0.64645  -0.62044  -0.61881  -0.60322  -0.58564
 Alpha  occ. eigenvalues --   -0.56224  -0.55171  -0.53608  -0.53369  -0.52980
 Alpha  occ. eigenvalues --   -0.52744  -0.50871  -0.48908  -0.48715  -0.48691
 Alpha  occ. eigenvalues --   -0.47620  -0.46835  -0.46731  -0.44778  -0.44728
 Alpha  occ. eigenvalues --   -0.37217  -0.36257
 Alpha virt. eigenvalues --    0.05158   0.11374   0.16643   0.18897   0.22311
 Alpha virt. eigenvalues --    0.22641   0.24958   0.26061   0.26604   0.27169
 Alpha virt. eigenvalues --    0.29286   0.30670   0.30917   0.31354   0.31947

 Mulliken charges:
               1
     1  C   -0.176441
     2  C   -0.220769
     3  C   -0.171064
     4  C    0.158447
     5  C   -0.171943
     6  C   -0.224730
     7  H    0.234459
     8  H    0.223342
     9  H    0.275086
    10  H    0.275585
    11  H    0.228717
    12  N    0.487937
    13  O   -0.460678
    14  O   -0.460813
    15  C   -0.302436
    16  C   -0.300330
    17  C   -0.476466
    18  H    0.140799
    19  H    0.154163
    20  H    0.153763
    21  H    0.155917
    22  H    0.158229
    23  H    0.150045
    24  H    0.165070
    25  C   -0.298125
    26  C   -0.305313
    27  C   -0.475538
    28  H    0.151937
    29  H    0.154800
    30  H    0.143060
    31  H    0.155643
    32  H    0.159605
    33  H    0.157558
    34  H    0.160484
 Sum of Mulliken charges =  -0.00000

 Dipole moment (field-independent basis, Debye):
    X=              4.9888    Y=             -2.1023    Z=             -0.7959  Tot=              5.4718
 Quadrupole moment (field-independent basis, Debye-Ang):
   XX=           -122.8257   YY=            -90.7559   ZZ=            -94.2287
   XY=              8.7772   XZ=              2.6501   YZ=             -0.8857

 Normal termination of Gaussian 16 at Thu May  6 14:20:17 2021.
