 Gaussian 16, Revision A.03,
 Gaussian 16:  EM64L-G16RevA.03 25-Dec-2016

 -------------
 #p 6-31g* mp2
 -------------

 ------------------------------------------------------
 Input file generated by CHIRIPA (05-May-2021 14:53:15)
 ------------------------------------------------------
 Symbolic Z-matrix:
 Charge =  0 Multiplicity = 1

                         Standard orientation:
 ---------------------------------------------------------------------
 Center     Atomic      Atomic             Coordinates (Angstroms)
 Number     Number       Type             X           Y           Z
 ---------------------------------------------------------------------
      1          6           0        4.580441   -0.323552    0.507524
      2          6           0        5.831925    0.245539   -0.161736
      3          6           0        6.981093    0.464526    0.822771
      4          1           0        4.256627    0.358715    1.305397
      5          1           0        4.834060   -1.275544    0.994127
      6          1           0        5.575702    1.195490   -0.648108
      7          1           0        6.152686   -0.438068   -0.958235
      8          1           0        7.265009   -0.479215    1.299578
      9          1           0        6.684747    1.163624    1.611467
     10          1           0        7.865633    0.871796    0.323192
     11          6           0        3.422900   -0.548001   -0.463790
     12          6           0        2.171416   -1.117092    0.205469
     13          6           0        1.022248   -1.336079   -0.779037
     14          1           0        3.169281    0.403991   -0.950393
     15          1           0        3.746714   -1.230269   -1.261663
     16          1           0        1.850655   -0.433486    1.001969
     17          1           0        2.427639   -2.067043    0.691841
     18          1           0        1.318593   -2.035177   -1.567733
     19          1           0        0.738331   -0.392338   -1.255844
     20          1           0        0.137707   -1.743349   -0.279458
     21          6           0       -4.674626   -1.533707    0.658310
     22          6           0       -4.584227   -0.381884    1.446758
     23          6           0       -3.729686    0.662821    1.082202
     24          6           0       -2.976619    0.521637   -0.082378
     25          6           0       -3.044634   -0.613421   -0.888794
     26          6           0       -3.905896   -1.645603   -0.504899
     27          1           0       -5.341064   -2.340394    0.949018
     28          1           0       -5.180045   -0.292237    2.350644
     29          1           0       -3.640243    1.565583    1.674181
     30          1           0       -2.438182   -0.673841   -1.784329
     31          1           0       -3.974062   -2.538966   -1.119148
     32          7           0       -2.068397    1.620990   -0.478554
     33          8           0       -1.415507    1.472171   -1.509196
     34          8           0       -2.026620    2.610666    0.249068
 ---------------------------------------------------------------------

 SCF Done:  E(RHF) =  -669.536383260     A.U. after   15 cycles
 E2 =    -0.2091524316D+01 EUMP2 =    -0.67162790757605D+03

 The electronic state is 1-A.
 Alpha  occ. eigenvalues --  -20.60907 -20.60902 -15.85931 -11.31235 -11.27806
 Alpha  occ. eigenvalues --  -11.27788 -11.27543 -11.26810 -11.26797 -11.21189
 Alpha  occ. eigenvalues --  -11.21121 -11.20941 -11.20836 -11.20723 -11.20478
 Alpha  occ. eigenvalues --   -1.59963  -1.39520  -1.19407  -1.08814  -1.07957
 Alpha  occ. eigenvalues --   -1.04802  -1.03073  -0.95668  -0.95517  -0.86551
 Alpha  occ. eigenvalues --   -0.86197  -0.82495  -0.79149  -0.77773  -0.77539
 Alpha  occ. eigenvalues --   -0.72161  -0.71274  -0.70516  -0.65065  -0.64805
 Alpha  occ. eigenvalues --   -0.64577  -0.62148  -0.60456  -0.58914  -0.57143
 Alpha  occ. eigenvalues --   -0.55311  -0.54790  -0.53154  -0.52897  -0.52225
 Alpha  occ. eigenvalues --   -0.51943  -0.49475  -0.48913  -0.48899  -0.47462
 Alpha  occ. eigenvalues --   -0.46194  -0.45331  -0.45257  -0.44787  -0.43342
 Alpha  occ. eigenvalues --   -0.37383  -0.36391
 Alpha virt. eigenvalues --    0.04945   0.11219   0.16413   0.21326   0.23359
 Alpha virt. eigenvalues --    0.24738   0.26959   0.27194   0.27802   0.28041
 Alpha virt. eigenvalues --    0.28816   0.30758   0.31780   0.32033   0.32092

 Mulliken charges:
               1
     1  C   -0.298200
     2  C   -0.299677
     3  C   -0.475531
     4  H    0.150564
     5  H    0.147119
     6  H    0.153982
     7  H    0.150766
     8  H    0.153763
     9  H    0.155421
    10  H    0.159485
    11  C   -0.299316
    12  C   -0.297900
    13  C   -0.490084
    14  H    0.156237
    15  H    0.147414
    16  H    0.152885
    17  H    0.147595
    18  H    0.150150
    19  H    0.178628
    20  H    0.151400
    21  C   -0.170472
    22  C   -0.218642
    23  C   -0.170881
    24  C    0.158077
    25  C   -0.169206
    26  C   -0.219730
    27  H    0.225825
    28  H    0.223586
    29  H    0.275549
    30  H    0.277852
    31  H    0.224026
    32  N    0.488580
    33  O   -0.459887
    34  O   -0.459381
 Sum of Mulliken charges =  -0.00000

 Dipole moment (field-independent basis, Debye):
    X=             -3.3301    Y=             -3.7201    Z=              1.3454  Tot=              5.1710
 Quadrupole moment (field-independent basis, Debye-Ang):
   XX=            -76.9591   YY=            -97.3581   ZZ=            -92.3217
   XY=              9.0307   XZ=             -6.0290   YZ=              3.5046

 Normal termination of Gaussian 16 at Wed May  5 20:19:01 2021.
