 Gaussian 16, Revision A.03,
 Gaussian 16:  EM64L-G16RevA.03 25-Dec-2016

 -------------
 #p 6-31g* mp2
 -------------

 ------------------------------------------------------
 Input file generated by CHIRIPA (05-May-2021 14:51:10)
 ------------------------------------------------------
 Symbolic Z-matrix:
 Charge =  0 Multiplicity = 1

                         Standard orientation:
 ---------------------------------------------------------------------
 Center     Atomic      Atomic             Coordinates (Angstroms)
 Number     Number       Type             X           Y           Z
 ---------------------------------------------------------------------
      1          6           0        3.874090   -0.698527   -0.201472
      2          6           0        2.764069   -1.479523    0.502720
      3          6           0        2.626111   -2.910428   -0.018117
      4          1           0        3.672005   -0.679363   -1.281166
      5          1           0        4.826627   -1.230584   -0.071155
      6          1           0        1.814149   -0.945431    0.372288
      7          1           0        2.968719   -1.496665    1.580885
      8          1           0        3.559096   -3.464689    0.126577
      9          1           0        2.397965   -2.910322   -1.088888
     10          1           0        1.826923   -3.450580    0.498986
     11          6           0        4.024278    0.733714    0.308291
     12          6           0        5.134298    1.514710   -0.395901
     13          6           0        5.272256    2.945615    0.124936
     14          1           0        3.071741    1.265772    0.177975
     15          1           0        4.226363    0.714551    1.387985
     16          1           0        4.929648    1.531853   -1.474066
     17          1           0        6.084219    0.980618   -0.265469
     18          1           0        5.500402    2.945509    1.195707
     19          1           0        4.339272    3.499876   -0.019757
     20          1           0        6.071444    3.485767   -0.392166
     21          6           0       -4.365058    0.606670   -0.197549
     22          6           0       -5.802406    0.509367    0.314844
     23          6           0       -6.621811    1.765880    0.018960
     24          1           0       -3.878205    1.479490    0.258634
     25          1           0       -4.380964    0.788442   -1.281108
     26          1           0       -5.783782    0.326454    1.396885
     27          1           0       -6.285834   -0.363434   -0.142464
     28          1           0       -6.670142    1.949226   -1.059302
     29          1           0       -6.165237    2.643034    0.488794
     30          1           0       -7.646028    1.674761    0.393842
     31          6           0       -3.533310   -0.641857    0.090730
     32          6           0       -2.095961   -0.544555   -0.421664
     33          6           0       -1.276557   -1.801067   -0.125780
     34          1           0       -3.517404   -0.823629    1.174289
     35          1           0       -4.020162   -1.514677   -0.365454
     36          1           0       -1.612532    0.328246    0.035646
     37          1           0       -2.114586   -0.361642   -1.503704
     38          1           0       -1.733130   -2.678221   -0.595613
     39          1           0       -1.228225   -1.984413    0.952483
     40          1           0       -0.252340   -1.709948   -0.500660
 ---------------------------------------------------------------------

 SCF Done:  E(RHF) =  -470.732989521     A.U. after   11 cycles
 E2 =    -0.1582777160D+01 EUMP2 =    -0.47231576668112D+03

 The electronic state is 1-A.
 Alpha  occ. eigenvalues --  -11.21616 -11.21606 -11.21595 -11.21550 -11.21411
 Alpha  occ. eigenvalues --  -11.21391 -11.21352 -11.21331 -11.21076 -11.21067
 Alpha  occ. eigenvalues --  -11.21030 -11.21027  -1.08443  -1.08410  -1.03568
 Alpha  occ. eigenvalues --   -1.03483  -0.96033  -0.95913  -0.87022  -0.86955
 Alpha  occ. eigenvalues --   -0.79615  -0.79560  -0.78252  -0.78227  -0.65088
 Alpha  occ. eigenvalues --   -0.65046  -0.61032  -0.60907  -0.59499  -0.59162
 Alpha  occ. eigenvalues --   -0.57678  -0.57472  -0.55287  -0.55239  -0.52751
 Alpha  occ. eigenvalues --   -0.52549  -0.52405  -0.52361  -0.49950  -0.49879
 Alpha  occ. eigenvalues --   -0.47977  -0.47833  -0.46656  -0.46575  -0.45793
 Alpha  occ. eigenvalues --   -0.45765  -0.45717  -0.45689  -0.43764  -0.43752
 Alpha virt. eigenvalues --    0.21484   0.23054   0.23567   0.24941   0.26495
 Alpha virt. eigenvalues --    0.26684   0.27177   0.27320   0.27781   0.28943
 Alpha virt. eigenvalues --    0.30260   0.31352   0.31610   0.31885   0.32175

 Mulliken charges:
               1
     1  C   -0.297795
     2  C   -0.305117
     3  C   -0.477172
     4  H    0.149234
     5  H    0.149516
     6  H    0.156362
     7  H    0.151910
     8  H    0.155305
     9  H    0.154365
    10  H    0.162891
    11  C   -0.298285
    12  C   -0.299620
    13  C   -0.475704
    14  H    0.149399
    15  H    0.149613
    16  H    0.151928
    17  H    0.151946
    18  H    0.155138
    19  H    0.155142
    20  H    0.160241
    21  C   -0.298252
    22  C   -0.299652
    23  C   -0.475708
    24  H    0.149605
    25  H    0.149454
    26  H    0.151966
    27  H    0.151960
    28  H    0.155161
    29  H    0.155180
    30  H    0.160281
    31  C   -0.298331
    32  C   -0.300437
    33  C   -0.481980
    34  H    0.149624
    35  H    0.149778
    36  H    0.151630
    37  H    0.151669
    38  H    0.155083
    39  H    0.154919
    40  H    0.168754
 Sum of Mulliken charges =  -0.00000

 Dipole moment (field-independent basis, Debye):
    X=             -0.0049    Y=             -0.0151    Z=              0.0050  Tot=              0.0166
 Quadrupole moment (field-independent basis, Debye-Ang):
   XX=            -84.9238   YY=            -86.3289   ZZ=            -83.5680
   XY=              0.2621   XZ=              0.6010   YZ=             -0.0405

 Normal termination of Gaussian 16 at Thu May  6 05:24:02 2021.
