 Gaussian 16, Revision A.03,
 Gaussian 16:  EM64L-G16RevA.03 25-Dec-2016

 -------------
 #p 6-31g* mp2
 -------------

 ------------------------------------------------------
 Input file generated by CHIRIPA (05-May-2021 14:53:18)
 ------------------------------------------------------
 Symbolic Z-matrix:
 Charge =  0 Multiplicity = 1

                         Standard orientation:
 ---------------------------------------------------------------------
 Center     Atomic      Atomic             Coordinates (Angstroms)
 Number     Number       Type             X           Y           Z
 ---------------------------------------------------------------------
      1          6           0        3.368281   -0.038246   -0.351727
      2          6           0        3.151456   -1.418421    0.269632
      3          6           0        3.779789   -2.542898   -0.554107
      4          1           0        2.948051   -0.030001   -1.366756
      5          1           0        4.446812    0.142785   -0.458471
      6          1           0        2.073684   -1.596224    0.376447
      7          1           0        3.572082   -1.423322    1.283371
      8          1           0        4.860020   -2.392868   -0.649987
      9          1           0        3.353108   -2.566753   -1.562063
     10          1           0        3.612799   -3.520768   -0.091783
     11          6           0        2.745909    1.096244    0.460255
     12          6           0        2.962735    2.476419   -0.161104
     13          6           0        2.334402    3.600896    0.662634
     14          1           0        1.667379    0.915213    0.566999
     15          1           0        3.166140    1.087999    1.475284
     16          1           0        2.542109    2.481320   -1.174843
     17          1           0        4.040507    2.654222   -0.267920
     18          1           0        2.761082    3.624751    1.670591
     19          1           0        1.254171    3.450866    0.758515
     20          1           0        2.501392    4.578766    0.200311
     21          6           0       -0.648982   -2.203411    0.326296
     22          6           0       -1.592091   -1.928118    1.321925
     23          6           0       -2.560415   -0.938426    1.128519
     24          6           0       -2.556512   -0.240217   -0.078037
     25          6           0       -1.630210   -0.491323   -1.089077
     26          6           0       -0.671012   -1.485401   -0.873911
     27          1           0        0.099692   -2.973931    0.484989
     28          1           0       -1.577374   -2.484146    2.255017
     29          1           0       -3.302312   -0.704853    1.882477
     30          1           0       -1.670078    0.079680   -2.008742
     31          1           0        0.060185   -1.697055   -1.648894
     32          7           0       -3.576803    0.809846   -0.294305
     33          8           0       -3.552092    1.410849   -1.366136
     34          8           0       -4.381900    1.012002    0.612112
 ---------------------------------------------------------------------

 SCF Done:  E(RHF) =  -669.534787103     A.U. after   15 cycles
 E2 =    -0.2093385673D+01 EUMP2 =    -0.67162817277559D+03

 The electronic state is 1-A.
 Alpha  occ. eigenvalues --  -20.60837 -20.60832 -15.85892 -11.31286 -11.27866
 Alpha  occ. eigenvalues --  -11.27853 -11.27586 -11.26887 -11.26858 -11.22342
 Alpha  occ. eigenvalues --  -11.21993 -11.21986 -11.21847 -11.21718 -11.21171
 Alpha  occ. eigenvalues --   -1.59912  -1.39465  -1.19470  -1.08976  -1.08831
 Alpha  occ. eigenvalues --   -1.04872  -1.04047  -0.96486  -0.95690  -0.87499
 Alpha  occ. eigenvalues --   -0.86268  -0.82519  -0.80139  -0.78714  -0.77554
 Alpha  occ. eigenvalues --   -0.72110  -0.71237  -0.70600  -0.65664  -0.65110
 Alpha  occ. eigenvalues --   -0.64823  -0.62224  -0.61429  -0.59900  -0.58087
 Alpha  occ. eigenvalues --   -0.55794  -0.55353  -0.53279  -0.53135  -0.52955
 Alpha  occ. eigenvalues --   -0.52899  -0.50427  -0.48870  -0.48863  -0.48431
 Alpha  occ. eigenvalues --   -0.47182  -0.46258  -0.46148  -0.44864  -0.44277
 Alpha  occ. eigenvalues --   -0.37369  -0.36462
 Alpha virt. eigenvalues --    0.04940   0.11082   0.16349   0.19574   0.22852
 Alpha virt. eigenvalues --    0.23941   0.25533   0.26375   0.27274   0.28009
 Alpha virt. eigenvalues --    0.29364   0.29579   0.31141   0.31642   0.32054

 Mulliken charges:
               1
     1  C   -0.296320
     2  C   -0.309127
     3  C   -0.476770
     4  H    0.145257
     5  H    0.151944
     6  H    0.151245
     7  H    0.154417
     8  H    0.160967
     9  H    0.150916
    10  H    0.157379
    11  C   -0.301118
    12  C   -0.299866
    13  C   -0.476267
    14  H    0.153489
    15  H    0.149870
    16  H    0.151693
    17  H    0.151897
    18  H    0.154853
    19  H    0.158143
    20  H    0.162111
    21  C   -0.171239
    22  C   -0.220022
    23  C   -0.170764
    24  C    0.158410
    25  C   -0.172007
    26  C   -0.217443
    27  H    0.228582
    28  H    0.224283
    29  H    0.276116
    30  H    0.276006
    31  H    0.225551
    32  N    0.488057
    33  O   -0.460224
    34  O   -0.460019
 Sum of Mulliken charges =  -0.00000

 Dipole moment (field-independent basis, Debye):
    X=              3.5682    Y=             -3.6211    Z=              0.8169  Tot=              5.1490
 Quadrupole moment (field-independent basis, Debye-Ang):
   XX=           -112.3482   YY=            -94.2630   ZZ=            -90.8703
   XY=              9.6961   XZ=             -3.5305   YZ=             -1.3290

 Normal termination of Gaussian 16 at Thu May  6 19:01:30 2021.
