 Gaussian 16, Revision A.03,
 Gaussian 16:  EM64L-G16RevA.03 25-Dec-2016

 -------------
 #p 6-31g* mp2
 -------------

 ------------------------------------------------------
 Input file generated by CHIRIPA (05-May-2021 14:57:24)
 ------------------------------------------------------
 Symbolic Z-matrix:
 Charge =  0 Multiplicity = 1

                         Standard orientation:
 ---------------------------------------------------------------------
 Center     Atomic      Atomic             Coordinates (Angstroms)
 Number     Number       Type             X           Y           Z
 ---------------------------------------------------------------------
      1          6           0        4.014725    2.280334    0.528589
      2          6           0        5.007069    1.359563    0.176518
      3          6           0        4.674550    0.032254   -0.110238
      4          6           0        3.333742   -0.341701   -0.034866
      5          6           0        2.322227    0.552245    0.312968
      6          6           0        2.677828    1.874452    0.595572
      7          1           0        4.281999    3.309438    0.749736
      8          1           0        6.046137    1.671962    0.123699
      9          1           0        5.422657   -0.701259   -0.385396
     10          1           0        1.295033    0.211169    0.357205
     11          1           0        1.905049    2.587366    0.868723
     12          7           0        2.969500   -1.744163   -0.336245
     13          8           0        1.780986   -2.048577   -0.262737
     14          8           0        3.879420   -2.512444   -0.640266
     15          6           0       -3.668718   -2.340456    0.517039
     16          6           0       -2.388970   -1.795307    0.370141
     17          6           0       -2.224702   -0.438573    0.075461
     18          6           0       -3.367192    0.347514   -0.066221
     19          6           0       -4.655487   -0.166184    0.074136
     20          6           0       -4.795905   -1.525591    0.368830
     21          1           0       -3.787062   -3.395437    0.745959
     22          1           0       -1.511783   -2.425757    0.484690
     23          1           0       -1.245656    0.009447   -0.043558
     24          1           0       -5.510959    0.487407   -0.045883
     25          1           0       -5.791000   -1.946237    0.482357
     26          7           0       -3.205914    1.785242   -0.378193
     27          8           0       -4.228449    2.456571   -0.498092
     28          8           0       -2.060022    2.213582   -0.496910
 ---------------------------------------------------------------------

 SCF Done:  E(RHF) =  -868.340076327     A.U. after   16 cycles
 E2 =    -0.2599106603D+01 EUMP2 =    -0.87093918293023D+03

 The electronic state is 1-A.
 Alpha  occ. eigenvalues --  -20.61253 -20.61201 -20.60892 -20.60856 -15.86270
 Alpha  occ. eigenvalues --  -15.85917 -11.31345 -11.31038 -11.27905 -11.27848
 Alpha  occ. eigenvalues --  -11.27564 -11.27550 -11.27493 -11.27174 -11.26817
 Alpha  occ. eigenvalues --  -11.26722 -11.26537 -11.26344  -1.60289  -1.59948
 Alpha  occ. eigenvalues --   -1.39859  -1.39513  -1.19466  -1.19153  -1.08905
 Alpha  occ. eigenvalues --   -1.08585  -1.04818  -1.04498  -0.95803  -0.95476
 Alpha  occ. eigenvalues --   -0.86236  -0.85910  -0.82647  -0.82302  -0.77756
 Alpha  occ. eigenvalues --   -0.77378  -0.72509  -0.72149  -0.71592  -0.71260
 Alpha  occ. eigenvalues --   -0.70601  -0.70255  -0.65119  -0.64829  -0.64785
 Alpha  occ. eigenvalues --   -0.64451  -0.62242  -0.61784  -0.55325  -0.54997
 Alpha  occ. eigenvalues --   -0.53162  -0.52929  -0.52857  -0.52524  -0.49277
 Alpha  occ. eigenvalues --   -0.49207  -0.48920  -0.48865  -0.45326  -0.44973
 Alpha  occ. eigenvalues --   -0.37414  -0.37112  -0.36399  -0.36089
 Alpha virt. eigenvalues --    0.04776   0.05103   0.11245   0.11556   0.16362
 Alpha virt. eigenvalues --    0.16684   0.19321   0.22349   0.24782   0.27734
 Alpha virt. eigenvalues --    0.28307   0.29810   0.31317   0.31380   0.31772

 Mulliken charges:
               1
     1  C   -0.170256
     2  C   -0.218541
     3  C   -0.170355
     4  C    0.157724
     5  C   -0.174206
     6  C   -0.221210
     7  H    0.228174
     8  H    0.224145
     9  H    0.275187
    10  H    0.276317
    11  H    0.234486
    12  N    0.489965
    13  O   -0.473785
    14  O   -0.456840
    15  C   -0.171232
    16  C   -0.224616
    17  C   -0.178838
    18  C    0.159485
    19  C   -0.171451
    20  C   -0.218449
    21  H    0.227472
    22  H    0.242736
    23  H    0.276877
    24  H    0.274161
    25  H    0.222866
    26  N    0.487756
    27  O   -0.459243
    28  O   -0.468329
 Sum of Mulliken charges =  -0.00000

 Dipole moment (field-independent basis, Debye):
    X=              0.8719    Y=             -0.1478    Z=              2.1997  Tot=              2.3708
 Quadrupole moment (field-independent basis, Debye-Ang):
   XX=            -82.2893   YY=           -112.0432   ZZ=           -106.6211
   XY=             32.2663   XZ=             -1.1268   YZ=              0.4717

 Normal termination of Gaussian 16 at Thu May  6 06:40:08 2021.
