 Gaussian 16, Revision A.03,
 Gaussian 16:  EM64L-G16RevA.03 25-Dec-2016

 -------------
 #p 6-31g* mp2
 -------------

 ------------------------------------------------------
 Input file generated by CHIRIPA (05-May-2021 14:51:13)
 ------------------------------------------------------
 Symbolic Z-matrix:
 Charge =  0 Multiplicity = 1

                         Standard orientation:
 ---------------------------------------------------------------------
 Center     Atomic      Atomic             Coordinates (Angstroms)
 Number     Number       Type             X           Y           Z
 ---------------------------------------------------------------------
      1          6           0       -2.195273   -0.670139   -0.437402
      2          6           0       -2.116751   -1.270493   -1.841465
      3          6           0       -1.629043   -2.719605   -1.838348
      4          1           0       -1.204128   -0.723928    0.033431
      5          1           0       -2.867698   -1.282974    0.178774
      6          1           0       -1.445756   -0.655918   -2.455207
      7          1           0       -3.108154   -1.215094   -2.309082
      8          1           0       -2.301762   -3.351215   -1.249179
      9          1           0       -0.629918   -2.788862   -1.396135
     10          1           0       -1.580445   -3.129023   -2.852190
     11          6           0       -2.681240    0.778096   -0.424081
     12          6           0       -2.759762    1.378451    0.979982
     13          6           0       -3.247470    2.827563    0.976865
     14          1           0       -2.008815    1.390931   -1.040258
     15          1           0       -3.672385    0.831886   -0.894914
     16          1           0       -1.768359    1.323052    1.447599
     17          1           0       -3.430757    0.763876    1.593724
     18          1           0       -4.246595    2.896819    0.534651
     19          1           0       -2.574751    3.459172    0.387696
     20          1           0       -3.296068    3.236981    1.990706
     21          6           0        3.079607    0.201775    0.104104
     22          6           0        2.827922    1.200305   -1.026195
     23          6           0        4.120612    1.702873   -1.669759
     24          1           0        3.711704    0.674393    0.868322
     25          1           0        3.649915   -0.650958   -0.289584
     26          1           0        2.257063    2.050247   -0.630803
     27          1           0        2.196193    0.725319   -1.787720
     28          1           0        4.691061    0.868596   -2.090675
     29          1           0        4.752276    2.201053   -0.927183
     30          1           0        3.917422    2.415507   -2.475194
     31          6           0        1.796907   -0.309732    0.757379
     32          6           0        2.048591   -1.308263    1.887678
     33          6           0        0.755901   -1.810830    2.531242
     34          1           0        1.226598    0.543001    1.151067
     35          1           0        1.164810   -0.782351   -0.006839
     36          1           0        2.680319   -0.833276    2.649203
     37          1           0        2.619450   -2.158205    1.492286
     38          1           0        0.124237   -2.309010    1.788667
     39          1           0        0.185452   -0.976553    2.952158
     40          1           0        0.959091   -2.523465    3.336677
 ---------------------------------------------------------------------

 SCF Done:  E(RHF) =  -470.732917620     A.U. after   11 cycles
 E2 =    -0.1584545366D+01 EUMP2 =    -0.47231746298592D+03

 The electronic state is 1-A.
 Alpha  occ. eigenvalues --  -11.21681 -11.21665 -11.21581 -11.21567 -11.21501
 Alpha  occ. eigenvalues --  -11.21436 -11.21324 -11.21223 -11.21127 -11.21114
 Alpha  occ. eigenvalues --  -11.21082 -11.21051  -1.08531  -1.08367  -1.03597
 Alpha  occ. eigenvalues --   -1.03510  -0.96041  -0.95955  -0.87058  -0.86975
 Alpha  occ. eigenvalues --   -0.79683  -0.79560  -0.78483  -0.78053  -0.65221
 Alpha  occ. eigenvalues --   -0.64957  -0.61050  -0.60856  -0.59426  -0.59314
 Alpha  occ. eigenvalues --   -0.57658  -0.57563  -0.55329  -0.55248  -0.52730
 Alpha  occ. eigenvalues --   -0.52661  -0.52470  -0.52386  -0.49993  -0.49904
 Alpha  occ. eigenvalues --   -0.48084  -0.47880  -0.46843  -0.46535  -0.46340
 Alpha  occ. eigenvalues --   -0.45768  -0.45686  -0.45002  -0.43854  -0.43744
 Alpha virt. eigenvalues --    0.19836   0.22349   0.23320   0.23748   0.25931
 Alpha virt. eigenvalues --    0.26504   0.27016   0.27890   0.28341   0.29877
 Alpha virt. eigenvalues --    0.30466   0.31414   0.31608   0.31810   0.32245

 Mulliken charges:
               1
     1  C   -0.309455
     2  C   -0.299422
     3  C   -0.477682
     4  H    0.163327
     5  H    0.148769
     6  H    0.151309
     7  H    0.152031
     8  H    0.155708
     9  H    0.154620
    10  H    0.160543
    11  C   -0.297506
    12  C   -0.301529
    13  C   -0.475685
    14  H    0.149473
    15  H    0.149219
    16  H    0.152925
    17  H    0.152067
    18  H    0.155274
    19  H    0.155004
    20  H    0.159910
    21  C   -0.297513
    22  C   -0.299824
    23  C   -0.475752
    24  H    0.150107
    25  H    0.149918
    26  H    0.151745
    27  H    0.151569
    28  H    0.155446
    29  H    0.155422
    30  H    0.160478
    31  C   -0.305663
    32  C   -0.299462
    33  C   -0.479256
    34  H    0.150624
    35  H    0.154029
    36  H    0.152209
    37  H    0.152033
    38  H    0.158459
    39  H    0.156033
    40  H    0.160500
 Sum of Mulliken charges =  -0.00000

 Dipole moment (field-independent basis, Debye):
    X=              0.0423    Y=             -0.0088    Z=              0.0195  Tot=              0.0474
 Quadrupole moment (field-independent basis, Debye-Ang):
   XX=            -84.6722   YY=            -85.4192   ZZ=            -84.6825
   XY=              0.3440   XZ=              0.4620   YZ=              0.5367

 Normal termination of Gaussian 16 at Wed May  5 18:23:56 2021.
