 Gaussian 16, Revision A.03,
 Gaussian 16:  EM64L-G16RevA.03 25-Dec-2016

 -------------
 #p 6-31g* mp2
 -------------

 ------------------------------------------------------
 Input file generated by CHIRIPA (05-May-2021 14:53:18)
 ------------------------------------------------------
 Symbolic Z-matrix:
 Charge =  0 Multiplicity = 1

                         Standard orientation:
 ---------------------------------------------------------------------
 Center     Atomic      Atomic             Coordinates (Angstroms)
 Number     Number       Type             X           Y           Z
 ---------------------------------------------------------------------
      1          6           0       -3.986638    0.315017   -0.436046
      2          6           0       -4.805268   -0.397239    0.641228
      3          6           0       -6.055751   -1.075910    0.081323
      4          1           0       -4.619318    1.062401   -0.934120
      5          1           0       -3.696251   -0.412286   -1.206825
      6          1           0       -5.092851    0.330913    1.410453
      7          1           0       -4.170510   -1.142881    1.136925
      8          1           0       -5.784228   -1.823158   -0.671337
      9          1           0       -6.711809   -0.340990   -0.396256
     10          1           0       -6.626071   -1.578919    0.868454
     11          6           0       -2.733397    0.998319    0.108209
     12          6           0       -1.914766    1.710576   -0.969065
     13          6           0       -0.664284    2.389246   -0.409159
     14          1           0       -3.023783    1.725623    0.878988
     15          1           0       -2.100716    0.250936    0.606284
     16          1           0       -2.549524    2.456218   -1.464762
     17          1           0       -1.627183    0.982423   -1.738289
     18          1           0       -0.008225    1.654327    0.068419
     19          1           0       -0.935806    3.136495    0.343500
     20          1           0       -0.093963    2.892255   -1.196291
     21          6           0        4.669762    0.965124    0.125289
     22          6           0        3.607405    1.241486    0.992204
     23          6           0        2.469534    0.429269    1.002322
     24          6           0        2.427335   -0.655924    0.128329
     25          6           0        3.469475   -0.957249   -0.747134
     26          6           0        4.597534   -0.131428   -0.740088
     27          1           0        5.549877    1.601358    0.124094
     28          1           0        3.660746    2.092406    1.665357
     29          1           0        1.632699    0.620297    1.663105
     30          1           0        3.387296   -1.812630   -1.406670
     31          1           0        5.421066   -0.348458   -1.414431
     32          7           0        1.227915   -1.522982    0.129956
     33          8           0        1.215226   -2.473009   -0.649740
     34          8           0        0.323211   -1.236139    0.910896
 ---------------------------------------------------------------------

 SCF Done:  E(RHF) =  -669.535853424     A.U. after   15 cycles
 E2 =    -0.2093189166D+01 EUMP2 =    -0.67162904258971D+03

 The electronic state is 1-A.
 Alpha  occ. eigenvalues --  -20.61057 -20.61050 -15.86065 -11.31318 -11.27877
 Alpha  occ. eigenvalues --  -11.27867 -11.27602 -11.26869 -11.26855 -11.20935
 Alpha  occ. eigenvalues --  -11.20722 -11.20680 -11.20474 -11.20330 -11.20297
 Alpha  occ. eigenvalues --   -1.60104  -1.39664  -1.19487  -1.08901  -1.07565
 Alpha  occ. eigenvalues --   -1.04875  -1.02811  -0.95757  -0.95270  -0.86366
 Alpha  occ. eigenvalues --   -0.86221  -0.82593  -0.78883  -0.77678  -0.77331
 Alpha  occ. eigenvalues --   -0.72298  -0.71417  -0.70605  -0.65148  -0.64883
 Alpha  occ. eigenvalues --   -0.64162  -0.62242  -0.60202  -0.58643  -0.56886
 Alpha  occ. eigenvalues --   -0.55390  -0.54592  -0.53200  -0.52968  -0.52013
 Alpha  occ. eigenvalues --   -0.51695  -0.49285  -0.49057  -0.48974  -0.47211
 Alpha  occ. eigenvalues --   -0.45944  -0.45268  -0.44905  -0.44471  -0.43010
 Alpha  occ. eigenvalues --   -0.37449  -0.36436
 Alpha virt. eigenvalues --    0.04823   0.11087   0.16306   0.21201   0.23775
 Alpha virt. eigenvalues --    0.24848   0.26780   0.27501   0.27928   0.28742
 Alpha virt. eigenvalues --    0.28990   0.30773   0.31662   0.32270   0.32547

 Mulliken charges:
               1
     1  C   -0.297383
     2  C   -0.300588
     3  C   -0.475419
     4  H    0.144353
     5  H    0.152332
     6  H    0.148185
     7  H    0.159295
     8  H    0.156146
     9  H    0.152162
    10  H    0.158202
    11  C   -0.310620
    12  C   -0.296768
    13  C   -0.481880
    14  H    0.142380
    15  H    0.177361
    16  H    0.148145
    17  H    0.153190
    18  H    0.156473
    19  H    0.151010
    20  H    0.155763
    21  C   -0.170420
    22  C   -0.218776
    23  C   -0.170780
    24  C    0.160058
    25  C   -0.170672
    26  C   -0.218386
    27  H    0.226215
    28  H    0.224573
    29  H    0.276314
    30  H    0.275737
    31  H    0.223897
    32  N    0.490592
    33  O   -0.457968
    34  O   -0.462723
 Sum of Mulliken charges =  -0.00000

 Dipole moment (field-independent basis, Debye):
    X=              4.4688    Y=              2.8252    Z=              0.0491  Tot=              5.2872
 Quadrupole moment (field-independent basis, Debye-Ang):
   XX=            -75.0905   YY=            -97.6926   ZZ=            -92.7244
   XY=              2.9663   XZ=             -1.5989   YZ=              2.9227

 Normal termination of Gaussian 16 at Thu May  6 15:41:23 2021.
