 Gaussian 16, Revision A.03,
 Gaussian 16:  EM64L-G16RevA.03 25-Dec-2016

 -------------
 #p 6-31g* mp2
 -------------

 ------------------------------------------------------
 Input file generated by CHIRIPA (05-May-2021 14:57:25)
 ------------------------------------------------------
 Symbolic Z-matrix:
 Charge =  0 Multiplicity = 1

                         Standard orientation:
 ---------------------------------------------------------------------
 Center     Atomic      Atomic             Coordinates (Angstroms)
 Number     Number       Type             X           Y           Z
 ---------------------------------------------------------------------
      1          6           0       -3.818655   -0.914278    0.070713
      2          6           0       -3.473853   -0.179686    1.210015
      3          6           0       -2.458385    0.779706    1.155802
      4          6           0       -1.805557    0.979595   -0.059578
      5          6           0       -2.126175    0.263690   -1.211956
      6          6           0       -3.144903   -0.690639   -1.134512
      7          1           0       -4.608761   -1.657590    0.121850
      8          1           0       -3.995391   -0.351246    2.147357
      9          1           0       -2.171231    1.362508    2.022579
     10          1           0       -1.588302    0.457054   -2.132130
     11          1           0       -3.410561   -1.259654   -2.020905
     12          7           0       -0.728801    1.992580   -0.129268
     13          8           0       -0.168838    2.149818   -1.212021
     14          8           0       -0.465192    2.610140    0.900182
     15          6           0        0.109293   -2.502173    0.024498
     16          6           0        0.577229   -1.959000   -1.176551
     17          6           0        1.614919   -1.022118   -1.175444
     18          6           0        2.164165   -0.649305    0.050373
     19          6           0        1.719765   -1.172458    1.263679
     20          6           0        0.681047   -2.107863    1.238640
     21          1           0       -0.697209   -3.229392    0.014343
     22          1           0        0.135085   -2.263372   -2.120962
     23          1           0        1.996430   -0.585708   -2.090546
     24          1           0        2.180403   -0.849508    2.189387
     25          1           0        0.319659   -2.528032    2.172932
     26          7           0        3.263265    0.341749    0.064214
     27          8           0        3.730361    0.653704    1.157440
     28          8           0        3.636831    0.787816   -1.018426
 ---------------------------------------------------------------------

 SCF Done:  E(RHF) =  -868.335483915     A.U. after   16 cycles
 E2 =    -0.2606000090D+01 EUMP2 =    -0.87094148400514D+03

 The electronic state is 1-A.
 Alpha  occ. eigenvalues --  -20.60953 -20.60947 -20.60077 -20.60045 -15.85998
 Alpha  occ. eigenvalues --  -15.85139 -11.31523 -11.30833 -11.28206 -11.28164
 Alpha  occ. eigenvalues --  -11.28000 -11.27494 -11.27453 -11.27342 -11.27247
 Alpha  occ. eigenvalues --  -11.27209 -11.26599 -11.26578  -1.60016  -1.59120
 Alpha  occ. eigenvalues --   -1.39568  -1.38669  -1.19771  -1.19079  -1.09128
 Alpha  occ. eigenvalues --   -1.08410  -1.05225  -1.04540  -0.95930  -0.95179
 Alpha  occ. eigenvalues --   -0.86605  -0.85918  -0.82769  -0.82027  -0.77782
 Alpha  occ. eigenvalues --   -0.76990  -0.72213  -0.71399  -0.71365  -0.70907
 Alpha  occ. eigenvalues --   -0.70390  -0.70183  -0.65431  -0.65237  -0.64727
 Alpha  occ. eigenvalues --   -0.64573  -0.62575  -0.61872  -0.55731  -0.55062
 Alpha  occ. eigenvalues --   -0.53978  -0.53323  -0.52646  -0.52409  -0.48980
 Alpha  occ. eigenvalues --   -0.48965  -0.48147  -0.48083  -0.44961  -0.43989
 Alpha  occ. eigenvalues --   -0.37812  -0.37522  -0.36751  -0.35653
 Alpha virt. eigenvalues --    0.04762   0.05574   0.10681   0.11602   0.16212
 Alpha virt. eigenvalues --    0.16957   0.20462   0.21752   0.26099   0.27426
 Alpha virt. eigenvalues --    0.28216   0.28601   0.30347   0.31078   0.32142

 Mulliken charges:
               1
     1  C   -0.173844
     2  C   -0.220811
     3  C   -0.169817
     4  C    0.163348
     5  C   -0.163898
     6  C   -0.223808
     7  H    0.224560
     8  H    0.223246
     9  H    0.277100
    10  H    0.272849
    11  H    0.220049
    12  N    0.486609
    13  O   -0.458552
    14  O   -0.456579
    15  C   -0.164690
    16  C   -0.223382
    17  C   -0.164888
    18  C    0.156915
    19  C   -0.170851
    20  C   -0.220717
    21  H    0.219726
    22  H    0.215860
    23  H    0.279197
    24  H    0.276993
    25  H    0.219897
    26  N    0.491247
    27  O   -0.460526
    28  O   -0.455232
 Sum of Mulliken charges =  -0.00000

 Dipole moment (field-independent basis, Debye):
    X=             -7.4465    Y=             -6.7363    Z=              0.2134  Tot=             10.0436
 Quadrupole moment (field-independent basis, Debye-Ang):
   XX=           -109.3129   YY=           -108.8036   ZZ=            -95.2855
   XY=             -2.3838   XZ=             -1.3087   YZ=              1.0788

 Normal termination of Gaussian 16 at Fri May  7 08:06:44 2021.
