 Gaussian 16, Revision A.03,
 Gaussian 16:  EM64L-G16RevA.03 25-Dec-2016

 -------------
 #p 6-31g* mp2
 -------------

 ------------------------------------------------------
 Input file generated by CHIRIPA (05-May-2021 14:53:12)
 ------------------------------------------------------
 Symbolic Z-matrix:
 Charge =  0 Multiplicity = 1

                         Standard orientation:
 ---------------------------------------------------------------------
 Center     Atomic      Atomic             Coordinates (Angstroms)
 Number     Number       Type             X           Y           Z
 ---------------------------------------------------------------------
      1          6           0        3.486236   -0.512137    0.373535
      2          6           0        2.318612   -1.045639   -0.457137
      3          6           0        1.193022   -1.618380    0.404726
      4          1           0        3.880193   -1.321757    1.003025
      5          1           0        3.115979    0.263835    1.057765
      6          1           0        2.691209   -1.819401   -1.140569
      7          1           0        1.927512   -0.234705   -1.084865
      8          1           0        0.793771   -0.851494    1.076357
      9          1           0        1.561807   -2.445195    1.020335
     10          1           0        0.368640   -1.994079   -0.209362
     11          6           0        4.619347    0.063721   -0.473917
     12          6           0        5.786971    0.597223    0.356755
     13          6           0        6.912562    1.169963   -0.505109
     14          1           0        4.989604   -0.712252   -1.158147
     15          1           0        4.225390    0.873341   -1.103408
     16          1           0        6.178071   -0.213712    0.984482
     17          1           0        5.414374    1.370985    1.040187
     18          1           0        6.543776    1.996779   -1.120718
     19          1           0        7.311812    0.403078   -1.176739
     20          1           0        7.736943    1.545663    0.108980
     21          6           0       -3.404387    2.686185    0.102288
     22          6           0       -4.073425    1.943960   -0.876492
     23          6           0       -3.948758    0.552188   -0.920966
     24          6           0       -3.143220   -0.067594    0.033114
     25          6           0       -2.463971    0.644231    1.020644
     26          6           0       -2.603208    2.035099    1.046068
     27          1           0       -3.506890    3.766996    0.129438
     28          1           0       -4.696308    2.446927   -1.610717
     29          1           0       -4.455527   -0.046835   -1.667810
     30          1           0       -1.850170    0.114673    1.739138
     31          1           0       -2.082452    2.608962    1.807344
     32          7           0       -3.003529   -1.540522   -0.003886
     33          8           0       -2.287841   -2.062763    0.847989
     34          8           0       -3.612373   -2.144872   -0.884061
 ---------------------------------------------------------------------

 SCF Done:  E(RHF) =  -669.535643083     A.U. after   15 cycles
 E2 =    -0.2091502831D+01 EUMP2 =    -0.67162714591448D+03

 The electronic state is 1-A.
 Alpha  occ. eigenvalues --  -20.60866 -20.60837 -15.85877 -11.31229 -11.27799
 Alpha  occ. eigenvalues --  -11.27791 -11.27544 -11.26814 -11.26804 -11.21507
 Alpha  occ. eigenvalues --  -11.21225 -11.21173 -11.21106 -11.21011 -11.20327
 Alpha  occ. eigenvalues --   -1.59917  -1.39471  -1.19402  -1.08803  -1.08195
 Alpha  occ. eigenvalues --   -1.04804  -1.03232  -0.95693  -0.95605  -0.86666
 Alpha  occ. eigenvalues --   -0.86201  -0.82472  -0.79302  -0.78012  -0.77513
 Alpha  occ. eigenvalues --   -0.72104  -0.71238  -0.70513  -0.65058  -0.64852
 Alpha  occ. eigenvalues --   -0.64795  -0.62156  -0.60640  -0.59033  -0.57268
 Alpha  occ. eigenvalues --   -0.55315  -0.54965  -0.53134  -0.52899  -0.52301
 Alpha  occ. eigenvalues --   -0.52082  -0.49633  -0.48866  -0.48858  -0.47611
 Alpha  occ. eigenvalues --   -0.46368  -0.45541  -0.45490  -0.44895  -0.43375
 Alpha  occ. eigenvalues --   -0.37383  -0.36403
 Alpha virt. eigenvalues --    0.04985   0.11211   0.16466   0.21123   0.23046
 Alpha virt. eigenvalues --    0.24391   0.26188   0.27049   0.27673   0.27803
 Alpha virt. eigenvalues --    0.28948   0.30561   0.31465   0.31972   0.32408

 Mulliken charges:
               1
     1  C   -0.297141
     2  C   -0.301662
     3  C   -0.472164
     4  H    0.150335
     5  H    0.145111
     6  H    0.152487
     7  H    0.147690
     8  H    0.143811
     9  H    0.156486
    10  H    0.173502
    11  C   -0.297704
    12  C   -0.299190
    13  C   -0.475471
    14  H    0.150198
    15  H    0.147870
    16  H    0.152389
    17  H    0.150050
    18  H    0.154184
    19  H    0.155661
    20  H    0.159589
    21  C   -0.170627
    22  C   -0.218579
    23  C   -0.170917
    24  C    0.158089
    25  C   -0.171094
    26  C   -0.219076
    27  H    0.225719
    28  H    0.223577
    29  H    0.275650
    30  H    0.277823
    31  H    0.223512
    32  N    0.486942
    33  O   -0.457032
    34  O   -0.460015
 Sum of Mulliken charges =  -0.00000

 Dipole moment (field-independent basis, Debye):
    X=             -0.6457    Y=              5.0790    Z=              0.1234  Tot=              5.1213
 Quadrupole moment (field-independent basis, Debye-Ang):
   XX=            -91.3732   YY=            -95.1401   ZZ=            -92.2315
   XY=            -17.3351   XZ=              2.8104   YZ=              0.5690

 Normal termination of Gaussian 16 at Thu May  6 15:18:29 2021.
