 Gaussian 16, Revision A.03,
 Gaussian 16:  EM64L-G16RevA.03 25-Dec-2016

 -------------
 #p 6-31g* mp2
 -------------

 ------------------------------------------------------
 Input file generated by CHIRIPA (05-May-2021 14:55:21)
 ------------------------------------------------------
 Symbolic Z-matrix:
 Charge =  0 Multiplicity = 1

                         Standard orientation:
 ---------------------------------------------------------------------
 Center     Atomic      Atomic             Coordinates (Angstroms)
 Number     Number       Type             X           Y           Z
 ---------------------------------------------------------------------
      1          6           0        1.605637    1.122124   -0.737741
      2          6           0        2.753224    1.833763   -0.372865
      3          6           0        3.926518    1.158358   -0.023926
      4          6           0        3.916845   -0.235368   -0.050849
      5          6           0        2.789574   -0.972670   -0.409923
      6          6           0        1.627436   -0.276356   -0.755074
      7          1           0        0.698527    1.654916   -1.007334
      8          1           0        2.739198    2.919876   -0.358511
      9          1           0        4.829146    1.684333    0.262484
     10          1           0        2.834148   -2.054986   -0.414824
     11          1           0        0.737693   -0.831639   -1.038029
     12          7           0        5.153054   -0.961457    0.316552
     13          8           0        5.118704   -2.189648    0.284890
     14          8           0        6.132936   -0.288625    0.629226
     15          6           0       -5.413583   -0.112829    0.423092
     16          6           0       -6.085200   -1.152320   -0.474893
     17          6           0       -7.406167   -1.664805    0.099737
     18          1           0       -5.237791   -0.552686    1.414337
     19          1           0       -6.101202    0.731022    0.573065
     20          1           0       -5.395987   -1.993327   -0.624254
     21          1           0       -6.259240   -0.709999   -1.464174
     22          1           0       -8.114126   -0.840342    0.232612
     23          1           0       -7.245968   -2.130962    1.077303
     24          1           0       -7.869168   -2.406849   -0.558184
     25          6           0       -4.091961    0.409020   -0.137904
     26          6           0       -3.420345    1.448511    0.760080
     27          6           0       -2.099377    1.960996    0.185451
     28          1           0       -3.404342   -0.434831   -0.287877
     29          1           0       -4.267753    0.848877   -1.129149
     30          1           0       -3.246304    1.006190    1.749361
     31          1           0       -4.109557    2.289518    0.909442
     32          1           0       -2.259575    2.427153   -0.792115
     33          1           0       -1.391418    1.136533    0.052576
     34          1           0       -1.636377    2.703041    0.843372
 ---------------------------------------------------------------------

 SCF Done:  E(RHF) =  -669.535334352     A.U. after   15 cycles
 E2 =    -0.2091211762D+01 EUMP2 =    -0.67162654611453D+03

 The electronic state is 1-A.
 Alpha  occ. eigenvalues --  -20.60721 -20.60716 -15.85776 -11.31126 -11.27710
 Alpha  occ. eigenvalues --  -11.27701 -11.27368 -11.26707 -11.26684 -11.22497
 Alpha  occ. eigenvalues --  -11.22288 -11.22184 -11.22129 -11.21984 -11.21496
 Alpha  occ. eigenvalues --   -1.59798  -1.39352  -1.19300  -1.09159  -1.08689
 Alpha  occ. eigenvalues --   -1.04706  -1.04283  -0.96768  -0.95525  -0.87794
 Alpha  occ. eigenvalues --   -0.86100  -0.82366  -0.80369  -0.78942  -0.77419
 Alpha  occ. eigenvalues --   -0.71993  -0.71121  -0.70403  -0.65785  -0.64950
 Alpha  occ. eigenvalues --   -0.64715  -0.62062  -0.61671  -0.60134  -0.58360
 Alpha  occ. eigenvalues --   -0.56106  -0.55203  -0.53432  -0.53179  -0.52991
 Alpha  occ. eigenvalues --   -0.52795  -0.50691  -0.48757  -0.48749  -0.48657
 Alpha  occ. eigenvalues --   -0.47372  -0.46491  -0.46390  -0.44761  -0.44523
 Alpha  occ. eigenvalues --   -0.37251  -0.36316
 Alpha virt. eigenvalues --    0.05110   0.11282   0.16576   0.20554   0.22252
 Alpha virt. eigenvalues --    0.23719   0.25495   0.26023   0.26768   0.27479
 Alpha virt. eigenvalues --    0.29118   0.29713   0.30852   0.31139   0.31772

 Mulliken charges:
               1
     1  C   -0.173125
     2  C   -0.220642
     3  C   -0.170724
     4  C    0.158046
     5  C   -0.170726
     6  C   -0.221630
     7  H    0.235347
     8  H    0.223388
     9  H    0.275348
    10  H    0.275281
    11  H    0.222867
    12  N    0.488124
    13  O   -0.460720
    14  O   -0.460615
    15  C   -0.298932
    16  C   -0.300063
    17  C   -0.476126
    18  H    0.151313
    19  H    0.151110
    20  H    0.151726
    21  H    0.152266
    22  H    0.155992
    23  H    0.156176
    24  H    0.161689
    25  C   -0.298462
    26  C   -0.300084
    27  C   -0.482144
    28  H    0.146494
    29  H    0.150016
    30  H    0.155839
    31  H    0.155410
    32  H    0.154331
    33  H    0.149659
    34  H    0.163571
 Sum of Mulliken charges =  -0.00000

 Dipole moment (field-independent basis, Debye):
    X=             -4.5823    Y=              2.5902    Z=             -1.2427  Tot=              5.4084
 Quadrupole moment (field-independent basis, Debye-Ang):
   XX=           -128.2470   YY=            -91.8819   ZZ=            -95.1743
   XY=             12.6448   XZ=             -4.1082   YZ=              0.7866

 Normal termination of Gaussian 16 at Thu May  6 17:29:58 2021.
