 Gaussian 16, Revision A.03,
 Gaussian 16:  EM64L-G16RevA.03 25-Dec-2016

 -------------
 #p 6-31g* mp2
 -------------

 ------------------------------------------------------
 Input file generated by CHIRIPA (05-May-2021 14:53:16)
 ------------------------------------------------------
 Symbolic Z-matrix:
 Charge =  0 Multiplicity = 1

                         Standard orientation:
 ---------------------------------------------------------------------
 Center     Atomic      Atomic             Coordinates (Angstroms)
 Number     Number       Type             X           Y           Z
 ---------------------------------------------------------------------
      1          6           0        2.409022    0.354166    1.019488
      2          6           0        1.162985   -0.437741    1.417307
      3          6           0        0.205126    0.368766    2.294716
      4          1           0        2.931427    0.684232    1.927836
      5          1           0        2.101644    1.265011    0.487253
      6          1           0        1.472675   -1.347514    1.947421
      7          1           0        0.643589   -0.766124    0.507906
      8          1           0       -0.132250    1.268739    1.770476
      9          1           0        0.701547    0.684045    3.218169
     10          1           0       -0.678659   -0.216414    2.567388
     11          6           0        3.376233   -0.438685    0.142209
     12          6           0        4.622270    0.353222   -0.255610
     13          6           0        5.580129   -0.453285   -1.133019
     14          1           0        3.683611   -1.349530    0.674444
     15          1           0        2.853828   -0.768751   -0.766139
     16          1           0        5.141666    0.681605    0.653791
     17          1           0        4.312580    1.262995   -0.785724
     18          1           0        5.083708   -0.768564   -2.056472
     19          1           0        5.917505   -1.353258   -0.608779
     20          1           0        6.463913    0.131895   -1.405691
     21          6           0       -2.645714   -2.451093   -0.238736
     22          6           0       -1.709165   -1.965078   -1.156986
     23          6           0       -1.487152   -0.590683   -1.284652
     24          6           0       -2.222562    0.273170   -0.474578
     25          6           0       -3.162592   -0.180312    0.449538
     26          6           0       -3.368165   -1.558733    0.560187
     27          1           0       -2.811793   -3.520320   -0.146173
     28          1           0       -1.146655   -2.655763   -1.778744
     29          1           0       -0.768213   -0.187294   -1.987377
     30          1           0       -3.708110    0.532785    1.055608
     31          1           0       -4.096141   -1.933335    1.274167
     32          7           0       -1.996230    1.730311   -0.600724
     33          8           0       -2.656976    2.470609    0.124541
     34          8           0       -1.162368    2.104530   -1.422475
 ---------------------------------------------------------------------

 SCF Done:  E(RHF) =  -669.534351755     A.U. after   15 cycles
 E2 =    -0.2095199479D+01 EUMP2 =    -0.67162955123478D+03

 The electronic state is 1-A.
 Alpha  occ. eigenvalues --  -20.60885 -20.60874 -15.85919 -11.31240 -11.27838
 Alpha  occ. eigenvalues --  -11.27832 -11.27588 -11.26851 -11.26839 -11.21460
 Alpha  occ. eigenvalues --  -11.21364 -11.21308 -11.21103 -11.21008 -11.20857
 Alpha  occ. eigenvalues --   -1.59956  -1.39508  -1.19458  -1.08846  -1.08272
 Alpha  occ. eigenvalues --   -1.04865  -1.03384  -0.95844  -0.95684  -0.86860
 Alpha  occ. eigenvalues --   -0.86248  -0.82520  -0.79451  -0.78087  -0.77568
 Alpha  occ. eigenvalues --   -0.72145  -0.71311  -0.70562  -0.65105  -0.64930
 Alpha  occ. eigenvalues --   -0.64838  -0.62204  -0.60826  -0.59235  -0.57479
 Alpha  occ. eigenvalues --   -0.55356  -0.55192  -0.53151  -0.52942  -0.52433
 Alpha  occ. eigenvalues --   -0.52241  -0.49799  -0.48904  -0.48901  -0.47774
 Alpha  occ. eigenvalues --   -0.46503  -0.45647  -0.45536  -0.44901  -0.43640
 Alpha  occ. eigenvalues --   -0.37396  -0.36335
 Alpha virt. eigenvalues --    0.04929   0.11162   0.16394   0.21146   0.22952
 Alpha virt. eigenvalues --    0.24329   0.26315   0.27132   0.27803   0.28080
 Alpha virt. eigenvalues --    0.28691   0.30826   0.31604   0.31799   0.32047

 Mulliken charges:
               1
     1  C   -0.300725
     2  C   -0.305107
     3  C   -0.480580
     4  H    0.149397
     5  H    0.158676
     6  H    0.147847
     7  H    0.154174
     8  H    0.160120
     9  H    0.155912
    10  H    0.157151
    11  C   -0.296195
    12  C   -0.300247
    13  C   -0.475442
    14  H    0.147294
    15  H    0.143623
    16  H    0.152414
    17  H    0.155885
    18  H    0.153468
    19  H    0.153762
    20  H    0.160938
    21  C   -0.170033
    22  C   -0.215884
    23  C   -0.177573
    24  C    0.165817
    25  C   -0.170191
    26  C   -0.219232
    27  H    0.226217
    28  H    0.224240
    29  H    0.275812
    30  H    0.276298
    31  H    0.223939
    32  N    0.488467
    33  O   -0.459186
    34  O   -0.461056
 Sum of Mulliken charges =  -0.00000

 Dipole moment (field-independent basis, Debye):
    X=             -0.9161    Y=             -5.0549    Z=              0.4080  Tot=              5.1534
 Quadrupole moment (field-independent basis, Debye-Ang):
   XX=            -89.6306   YY=            -98.0775   ZZ=            -92.9560
   XY=             11.2211   XZ=             -2.5678   YZ=              2.7852

 Normal termination of Gaussian 16 at Thu May  6 22:02:20 2021.
