 Gaussian 16, Revision A.03,
 Gaussian 16:  EM64L-G16RevA.03 25-Dec-2016

 -------------
 #p 6-31g* mp2
 -------------

 ------------------------------------------------------
 Input file generated by CHIRIPA (05-May-2021 14:53:14)
 ------------------------------------------------------
 Symbolic Z-matrix:
 Charge =  0 Multiplicity = 1

                         Standard orientation:
 ---------------------------------------------------------------------
 Center     Atomic      Atomic             Coordinates (Angstroms)
 Number     Number       Type             X           Y           Z
 ---------------------------------------------------------------------
      1          6           0       -3.647270    0.969408   -0.480929
      2          6           0       -2.588188    1.804856    0.239042
      3          6           0       -2.047897    2.945550   -0.623916
      4          1           0       -3.216345    0.559790   -1.404759
      5          1           0       -4.475623    1.623845   -0.785786
      6          1           0       -1.762718    1.148794    0.543669
      7          1           0       -3.021627    2.212375    1.161363
      8          1           0       -2.856314    3.623253   -0.916802
      9          1           0       -1.590252    2.553629   -1.538005
     10          1           0       -1.292169    3.529837   -0.089739
     11          6           0       -4.197003   -0.174840    0.368905
     12          6           0       -5.256085   -1.010288   -0.351065
     13          6           0       -5.796376   -2.150983    0.511892
     14          1           0       -3.368650   -0.829278    0.673762
     15          1           0       -4.627928    0.234777    1.292736
     16          1           0       -4.822646   -1.417807   -1.273386
     17          1           0       -6.081555   -0.354227   -0.655693
     18          1           0       -6.254021   -1.759062    1.425982
     19          1           0       -4.987959   -2.828685    0.804779
     20          1           0       -6.552104   -2.735269   -0.022284
     21          6           0        5.576576   -0.082448    0.001546
     22          6           0        4.904578   -0.627419   -1.097519
     23          6           0        3.512739   -0.758485   -1.085137
     24          6           0        2.821279   -0.332413    0.047841
     25          6           0        3.462160    0.214530    1.158431
     26          6           0        4.854496    0.336049    1.124036
     27          1           0        6.657983    0.015660   -0.016623
     28          1           0        5.462768   -0.953271   -1.970610
     29          1           0        2.967222   -1.176874   -1.922263
     30          1           0        2.878472    0.530476    2.014530
     31          1           0        5.373729    0.759649    1.979024
     32          7           0        1.347538   -0.466114    0.072601
     33          8           0        0.761373   -0.083247    1.082779
     34          8           0        0.806492   -0.951243   -0.918638
 ---------------------------------------------------------------------

 SCF Done:  E(RHF) =  -669.536781211     A.U. after   15 cycles
 E2 =    -0.2091264247D+01 EUMP2 =    -0.67162804545791D+03

 The electronic state is 1-A.
 Alpha  occ. eigenvalues --  -20.61103 -20.61077 -15.86100 -11.31371 -11.27924
 Alpha  occ. eigenvalues --  -11.27920 -11.27653 -11.26919 -11.26909 -11.20539
 Alpha  occ. eigenvalues --  -11.20171 -11.20068 -11.19981 -11.19906 -11.19838
 Alpha  occ. eigenvalues --   -1.60137  -1.39694  -1.19531  -1.08946  -1.07102
 Alpha  occ. eigenvalues --   -1.04918  -1.02279  -0.95796  -0.94783  -0.86322
 Alpha  occ. eigenvalues --   -0.85807  -0.82631  -0.78347  -0.77691  -0.76885
 Alpha  occ. eigenvalues --   -0.72316  -0.71442  -0.70640  -0.65187  -0.64922
 Alpha  occ. eigenvalues --   -0.63715  -0.62266  -0.59666  -0.58162  -0.56384
 Alpha  occ. eigenvalues --   -0.55426  -0.54075  -0.53252  -0.53010  -0.51521
 Alpha  occ. eigenvalues --   -0.51211  -0.49164  -0.49078  -0.48690  -0.46666
 Alpha  occ. eigenvalues --   -0.45387  -0.45081  -0.44460  -0.44208  -0.42527
 Alpha  occ. eigenvalues --   -0.37506  -0.36516
 Alpha virt. eigenvalues --    0.04817   0.11140   0.16322   0.21278   0.24187
 Alpha virt. eigenvalues --    0.25496   0.27202   0.27952   0.28208   0.28899
 Alpha virt. eigenvalues --    0.29172   0.30855   0.32372   0.32579   0.33009

 Mulliken charges:
               1
     1  C   -0.296645
     2  C   -0.312381
     3  C   -0.474729
     4  H    0.152481
     5  H    0.141972
     6  H    0.183022
     7  H    0.144055
     8  H    0.148862
     9  H    0.154742
    10  H    0.154975
    11  C   -0.299641
    12  C   -0.298891
    13  C   -0.475139
    14  H    0.159924
    15  H    0.145106
    16  H    0.152327
    17  H    0.148076
    18  H    0.152903
    19  H    0.156186
    20  H    0.156465
    21  C   -0.170363
    22  C   -0.218599
    23  C   -0.170578
    24  C    0.158295
    25  C   -0.170568
    26  C   -0.218573
    27  H    0.226303
    28  H    0.224091
    29  H    0.275912
    30  H    0.276094
    31  H    0.224136
    32  N    0.488906
    33  O   -0.459248
    34  O   -0.459478
 Sum of Mulliken charges =  -0.00000

 Dipole moment (field-independent basis, Debye):
    X=              5.6231    Y=              0.2965    Z=             -0.0474  Tot=              5.6311
 Quadrupole moment (field-independent basis, Debye-Ang):
   XX=            -67.1187   YY=            -96.2401   ZZ=            -90.8573
   XY=             -0.9168   XZ=             -0.2032   YZ=              3.0101

 Normal termination of Gaussian 16 at Thu May  6 01:02:52 2021.
