 Gaussian 16, Revision A.03,
 Gaussian 16:  EM64L-G16RevA.03 25-Dec-2016

 -------------
 #p 6-31g* mp2
 -------------

 ------------------------------------------------------
 Input file generated by CHIRIPA (05-May-2021 14:55:22)
 ------------------------------------------------------
 Symbolic Z-matrix:
 Charge =  0 Multiplicity = 1

                         Standard orientation:
 ---------------------------------------------------------------------
 Center     Atomic      Atomic             Coordinates (Angstroms)
 Number     Number       Type             X           Y           Z
 ---------------------------------------------------------------------
      1          6           0       -0.509983   -0.005106    1.028553
      2          6           0       -1.543918    0.719012    1.631174
      3          6           0       -2.853664    0.618678    1.152586
      4          6           0       -3.094853   -0.218955    0.064704
      5          6           0       -2.086112   -0.953181   -0.557103
      6          6           0       -0.783897   -0.837424   -0.061741
      7          1           0        0.504534    0.078826    1.406847
      8          1           0       -1.334127    1.366175    2.478058
      9          1           0       -3.672980    1.167999    1.600232
     10          1           0       -2.326154   -1.590144   -1.399763
     11          1           0        0.017092   -1.400965   -0.531723
     12          7           0       -4.477436   -0.333338   -0.450835
     13          8           0       -4.663826   -1.078185   -1.410574
     14          8           0       -5.348536    0.324021    0.114587
     15          6           0        4.250561   -0.238820   -0.224801
     16          6           0        3.882296   -1.639624    0.265214
     17          6           0        5.054629   -2.618482    0.192644
     18          1           0        4.613060   -0.302891   -1.259902
     19          1           0        5.086965    0.144168    0.376152
     20          1           0        3.045929   -2.019300   -0.335579
     21          1           0        3.520451   -1.572186    1.299205
     22          1           0        5.889636   -2.265691    0.806567
     23          1           0        5.412416   -2.715345   -0.837505
     24          1           0        4.769260   -3.613665    0.547660
     25          6           0        3.088925    0.751086   -0.158357
     26          6           0        3.457190    2.151890   -0.648372
     27          6           0        2.284857    3.130748   -0.575802
     28          1           0        2.252522    0.368098   -0.759310
     29          1           0        2.726426    0.815157    0.876744
     30          1           0        3.819035    2.084451   -1.682363
     31          1           0        4.293557    2.531565   -0.047579
     32          1           0        1.927070    3.227611    0.454347
     33          1           0        1.449850    2.777957   -1.189725
     34          1           0        2.570226    4.125931   -0.930818
 ---------------------------------------------------------------------

 SCF Done:  E(RHF) =  -669.535260037     A.U. after   15 cycles
 E2 =    -0.2092493860D+01 EUMP2 =    -0.67162775389716D+03

 The electronic state is 1-A.
 Alpha  occ. eigenvalues --  -20.60696 -20.60691 -15.85750 -11.31090 -11.27672
 Alpha  occ. eigenvalues --  -11.27668 -11.27324 -11.26656 -11.26645 -11.22722
 Alpha  occ. eigenvalues --  -11.22619 -11.22487 -11.22392 -11.21917 -11.21834
 Alpha  occ. eigenvalues --   -1.59773  -1.39327  -1.19262  -1.09495  -1.08647
 Alpha  occ. eigenvalues --   -1.04667  -1.04472  -0.96911  -0.95491  -0.87921
 Alpha  occ. eigenvalues --   -0.86061  -0.82337  -0.80551  -0.79378  -0.77386
 Alpha  occ. eigenvalues --   -0.71967  -0.71097  -0.70349  -0.66123  -0.64908
 Alpha  occ. eigenvalues --   -0.64670  -0.62021  -0.61861  -0.60282  -0.58542
 Alpha  occ. eigenvalues --   -0.56202  -0.55171  -0.53561  -0.53308  -0.52990
 Alpha  occ. eigenvalues --   -0.52758  -0.50845  -0.48856  -0.48725  -0.48722
 Alpha  occ. eigenvalues --   -0.47589  -0.46823  -0.46791  -0.44761  -0.44738
 Alpha  occ. eigenvalues --   -0.37202  -0.36277
 Alpha virt. eigenvalues --    0.05145   0.11290   0.16613   0.19212   0.22679
 Alpha virt. eigenvalues --    0.22804   0.23867   0.25246   0.27044   0.28401
 Alpha virt. eigenvalues --    0.29782   0.30457   0.30816   0.31210   0.31595

 Mulliken charges:
               1
     1  C   -0.170852
     2  C   -0.220696
     3  C   -0.170643
     4  C    0.158080
     5  C   -0.171335
     6  C   -0.224497
     7  H    0.233302
     8  H    0.222863
     9  H    0.275207
    10  H    0.275157
    11  H    0.225008
    12  N    0.488092
    13  O   -0.460858
    14  O   -0.460740
    15  C   -0.297967
    16  C   -0.301807
    17  C   -0.476029
    18  H    0.153808
    19  H    0.153211
    20  H    0.146814
    21  H    0.149434
    22  H    0.157996
    23  H    0.157961
    24  H    0.162723
    25  C   -0.304755
    26  C   -0.299717
    27  C   -0.476792
    28  H    0.149602
    29  H    0.142520
    30  H    0.155759
    31  H    0.154374
    32  H    0.151154
    33  H    0.159286
    34  H    0.164338
 Sum of Mulliken charges =  -0.00000

 Dipole moment (field-independent basis, Debye):
    X=              5.1478    Y=              0.4620    Z=              1.7433  Tot=              5.4546
 Quadrupole moment (field-independent basis, Debye-Ang):
   XX=           -124.5714   YY=            -93.5997   ZZ=            -91.5493
   XY=             -2.8479   XZ=             -6.5837   YZ=              2.3583

 Normal termination of Gaussian 16 at Thu May  6 06:16:34 2021.
