 Gaussian 16, Revision A.03,
 Gaussian 16:  EM64L-G16RevA.03 25-Dec-2016

 -------------
 #p 6-31g* mp2
 -------------

 ------------------------------------------------------
 Input file generated by CHIRIPA (05-May-2021 14:51:12)
 ------------------------------------------------------
 Symbolic Z-matrix:
 Charge =  0 Multiplicity = 1

                         Standard orientation:
 ---------------------------------------------------------------------
 Center     Atomic      Atomic             Coordinates (Angstroms)
 Number     Number       Type             X           Y           Z
 ---------------------------------------------------------------------
      1          6           0       -3.285506    0.434729   -0.270849
      2          6           0       -3.265085   -0.925396   -0.969154
      3          6           0       -4.662905   -1.517866   -1.150465
      4          1           0       -3.770594    0.329348    0.709217
      5          1           0       -3.906289    1.129112   -0.853821
      6          1           0       -2.643400   -1.616615   -0.385767
      7          1           0       -2.779818   -0.816804   -1.947591
      8          1           0       -5.289203   -0.850536   -1.751316
      9          1           0       -5.152010   -1.654892   -0.180619
     10          1           0       -4.624950   -2.490093   -1.651658
     11          6           0       -1.895544    1.039877   -0.082359
     12          6           0       -1.915965    2.400001    0.615946
     13          6           0       -0.518146    2.992472    0.797257
     14          1           0       -1.274761    0.345494    0.500613
     15          1           0       -1.410456    1.145257   -1.062425
     16          1           0       -2.401232    2.291409    1.594383
     17          1           0       -2.537651    3.091220    0.032559
     18          1           0       -0.029041    3.129497   -0.172589
     19          1           0        0.108153    2.325142    1.398108
     20          1           0       -0.556100    3.964698    1.298450
     21          6           0        2.001307   -1.222963    0.196304
     22          6           0        1.289550   -1.258228    1.549132
     23          6           0        0.113025   -2.234456    1.572839
     24          1           0        1.278659   -0.947503   -0.583983
     25          1           0        2.356871   -2.233175   -0.049540
     26          1           0        0.936646   -0.247978    1.792994
     27          1           0        2.014019   -1.533449    2.326317
     28          1           0        0.452456   -3.252191    1.354657
     29          1           0       -0.631039   -1.959417    0.818305
     30          1           0       -0.381356   -2.243710    2.549242
     31          6           0        3.179743   -0.251643    0.156904
     32          6           0        3.891500   -0.216377   -1.195924
     33          6           0        5.068026    0.759850   -1.219631
     34          1           0        2.824180    0.758570    0.402747
     35          1           0        3.902391   -0.527102    0.937191
     36          1           0        3.167031    0.058844   -1.973109
     37          1           0        4.244404   -1.226627   -1.439786
     38          1           0        5.812089    0.484811   -0.465096
     39          1           0        4.728595    1.777586   -1.001449
     40          1           0        5.562407    0.769105   -2.196034
 ---------------------------------------------------------------------

 SCF Done:  E(RHF) =  -470.732438027     A.U. after   11 cycles
 E2 =    -0.1585093220D+01 EUMP2 =    -0.47231753124717D+03

 The electronic state is 1-A.
 Alpha  occ. eigenvalues --  -11.21654 -11.21628 -11.21626 -11.21576 -11.21433
 Alpha  occ. eigenvalues --  -11.21374 -11.21372 -11.21314 -11.21153 -11.21086
 Alpha  occ. eigenvalues --  -11.21081 -11.21046  -1.08504  -1.08393  -1.03579
 Alpha  occ. eigenvalues --   -1.03534  -0.96038  -0.95969  -0.87045  -0.86997
 Alpha  occ. eigenvalues --   -0.79688  -0.79560  -0.78323  -0.78215  -0.65365
 Alpha  occ. eigenvalues --   -0.64851  -0.61026  -0.60897  -0.59411  -0.59331
 Alpha  occ. eigenvalues --   -0.57638  -0.57588  -0.55429  -0.55177  -0.52728
 Alpha  occ. eigenvalues --   -0.52682  -0.52463  -0.52391  -0.49975  -0.49962
 Alpha  occ. eigenvalues --   -0.47991  -0.47960  -0.46890  -0.46457  -0.46033
 Alpha  occ. eigenvalues --   -0.45783  -0.45628  -0.45320  -0.43823  -0.43775
 Alpha virt. eigenvalues --    0.19916   0.22533   0.23856   0.24018   0.25612
 Alpha virt. eigenvalues --    0.25932   0.26580   0.28097   0.28969   0.29516
 Alpha virt. eigenvalues --    0.30330   0.31322   0.31696   0.31920   0.32486

 Mulliken charges:
               1
     1  C   -0.297553
     2  C   -0.307388
     3  C   -0.475136
     4  H    0.149756
     5  H    0.149715
     6  H    0.158876
     7  H    0.151672
     8  H    0.155224
     9  H    0.155405
    10  H    0.160482
    11  C   -0.308824
    12  C   -0.299065
    13  C   -0.479948
    14  H    0.161035
    15  H    0.148871
    16  H    0.152145
    17  H    0.152272
    18  H    0.155092
    19  H    0.158016
    20  H    0.160941
    21  C   -0.299047
    22  C   -0.304766
    23  C   -0.485845
    24  H    0.151678
    25  H    0.149443
    26  H    0.154844
    27  H    0.152806
    28  H    0.156147
    29  H    0.163585
    30  H    0.159703
    31  C   -0.299621
    32  C   -0.299561
    33  C   -0.475771
    34  H    0.151185
    35  H    0.149345
    36  H    0.151874
    37  H    0.151782
    38  H    0.155104
    39  H    0.155448
    40  H    0.160077
 Sum of Mulliken charges =  -0.00000

 Dipole moment (field-independent basis, Debye):
    X=             -0.0210    Y=             -0.0016    Z=             -0.0013  Tot=              0.0211
 Quadrupole moment (field-independent basis, Debye-Ang):
   XX=            -86.0371   YY=            -84.7574   ZZ=            -83.9726
   XY=             -1.5872   XZ=              0.1987   YZ=             -0.6180

 Normal termination of Gaussian 16 at Wed May  5 18:19:18 2021.
