 Gaussian 16, Revision A.03,
 Gaussian 16:  EM64L-G16RevA.03 25-Dec-2016

 -------------
 #p 6-31g* mp2
 -------------

 ------------------------------------------------------
 Input file generated by CHIRIPA (05-May-2021 14:55:21)
 ------------------------------------------------------
 Symbolic Z-matrix:
 Charge =  0 Multiplicity = 1

                         Standard orientation:
 ---------------------------------------------------------------------
 Center     Atomic      Atomic             Coordinates (Angstroms)
 Number     Number       Type             X           Y           Z
 ---------------------------------------------------------------------
      1          6           0        3.200341    2.661590    0.419060
      2          6           0        2.054662    1.942918    0.776065
      3          6           0        1.959545    0.575645    0.500265
      4          6           0        3.033722   -0.043922   -0.136577
      5          6           0        4.188469    0.644777   -0.504738
      6          6           0        4.261716    2.011372   -0.219078
      7          1           0        3.265735    3.723457    0.637137
      8          1           0        1.228839    2.445272    1.271748
      9          1           0        1.084316   -0.004842    0.765646
     10          1           0        4.995413    0.116464   -0.997835
     11          1           0        5.152694    2.566974   -0.497486
     12          7           0        2.944602   -1.491034   -0.433773
     13          8           0        3.904697   -2.013621   -0.995697
     14          8           0        1.916343   -2.075291   -0.099165
     15          6           0       -3.532206   -0.910577    0.207551
     16          6           0       -2.156664   -0.748413    0.855296
     17          6           0       -1.429269   -2.080603    1.039582
     18          1           0       -4.144440   -1.581893    0.825168
     19          1           0       -3.414801   -1.403258   -0.767578
     20          1           0       -2.276489   -0.254937    1.828300
     21          1           0       -1.547699   -0.077254    0.236165
     22          1           0       -1.280496   -2.575061    0.074192
     23          1           0       -2.013427   -2.753754    1.675372
     24          1           0       -0.448151   -1.941394    1.504219
     25          6           0       -4.271724    0.412455    0.016693
     26          6           0       -5.647266    0.250291   -0.631050
     27          6           0       -6.374661    1.582481   -0.815337
     28          1           0       -4.389129    0.905136    0.991822
     29          1           0       -3.659490    1.083771   -0.600923
     30          1           0       -6.256231   -0.420870   -0.011921
     31          1           0       -5.527442   -0.243186   -1.604056
     32          1           0       -5.790504    2.255631   -1.451128
     33          1           0       -6.523435    2.076938    0.150053
     34          1           0       -7.355779    1.443271   -1.279974
 ---------------------------------------------------------------------

 SCF Done:  E(RHF) =  -669.535405485     A.U. after   15 cycles
 E2 =    -0.2092038662D+01 EUMP2 =    -0.67162744414716D+03

 The electronic state is 1-A.
 Alpha  occ. eigenvalues --  -20.60812 -20.60798 -15.85849 -11.31196 -11.27769
 Alpha  occ. eigenvalues --  -11.27737 -11.27509 -11.26784 -11.26766 -11.21612
 Alpha  occ. eigenvalues --  -11.21585 -11.21417 -11.21298 -11.21122 -11.20445
 Alpha  occ. eigenvalues --   -1.59882  -1.39436  -1.19370  -1.08771  -1.08393
 Alpha  occ. eigenvalues --   -1.04770  -1.03434  -0.95847  -0.95590  -0.86826
 Alpha  occ. eigenvalues --   -0.86170  -0.82442  -0.79506  -0.78234  -0.77494
 Alpha  occ. eigenvalues --   -0.72082  -0.71200  -0.70484  -0.65048  -0.65015
 Alpha  occ. eigenvalues --   -0.64770  -0.62160  -0.60807  -0.59201  -0.57469
 Alpha  occ. eigenvalues --   -0.55276  -0.55081  -0.53102  -0.52890  -0.52462
 Alpha  occ. eigenvalues --   -0.52225  -0.49750  -0.48832  -0.48814  -0.47802
 Alpha  occ. eigenvalues --   -0.46547  -0.45763  -0.45684  -0.44841  -0.43658
 Alpha  occ. eigenvalues --   -0.37355  -0.36371
 Alpha virt. eigenvalues --    0.05012   0.11258   0.16513   0.20491   0.22971
 Alpha virt. eigenvalues --    0.23906   0.26257   0.26836   0.27459   0.27894
 Alpha virt. eigenvalues --    0.29394   0.30945   0.31519   0.31675   0.31960

 Mulliken charges:
               1
     1  C   -0.170352
     2  C   -0.222329
     3  C   -0.177574
     4  C    0.156045
     5  C   -0.170019
     6  C   -0.219021
     7  H    0.225678
     8  H    0.224564
     9  H    0.289675
    10  H    0.275549
    11  H    0.223461
    12  N    0.490122
    13  O   -0.460039
    14  O   -0.464007
    15  C   -0.297439
    16  C   -0.305352
    17  C   -0.477112
    18  H    0.151030
    19  H    0.152790
    20  H    0.146705
    21  H    0.143424
    22  H    0.167121
    23  H    0.152207
    24  H    0.168184
    25  C   -0.298070
    26  C   -0.299704
    27  C   -0.475625
    28  H    0.147465
    29  H    0.147502
    30  H    0.152597
    31  H    0.153169
    32  H    0.154314
    33  H    0.154304
    34  H    0.160737
 Sum of Mulliken charges =  -0.00000

 Dipole moment (field-independent basis, Debye):
    X=              0.3716    Y=              4.9516    Z=              0.9938  Tot=              5.0640
 Quadrupole moment (field-independent basis, Debye-Ang):
   XX=            -89.1748   YY=            -96.2517   ZZ=            -94.2295
   XY=             16.6784   XZ=              0.6142   YZ=             -0.6603

 Normal termination of Gaussian 16 at Wed May  5 22:15:34 2021.
