 Gaussian 16, Revision A.03,
 Gaussian 16:  EM64L-G16RevA.03 25-Dec-2016

 -------------
 #p 6-31g* mp2
 -------------

 ------------------------------------------------------
 Input file generated by CHIRIPA (05-May-2021 14:53:15)
 ------------------------------------------------------
 Symbolic Z-matrix:
 Charge =  0 Multiplicity = 1

                         Standard orientation:
 ---------------------------------------------------------------------
 Center     Atomic      Atomic             Coordinates (Angstroms)
 Number     Number       Type             X           Y           Z
 ---------------------------------------------------------------------
      1          6           0        3.792394   -0.050661   -0.179883
      2          6           0        2.811356   -0.387957    0.943408
      3          6           0        1.352206   -0.334764    0.489705
      4          1           0        3.564164    0.951101   -0.568893
      5          1           0        3.640572   -0.751383   -1.012550
      6          1           0        2.965925    0.312325    1.774268
      7          1           0        3.042070   -1.388955    1.329918
      8          1           0        1.175597   -1.045710   -0.323907
      9          1           0        1.099020    0.665237    0.122968
     10          1           0        0.668086   -0.579188    1.308300
     11          6           0        5.255065   -0.099619    0.258209
     12          6           0        6.236102    0.237677   -0.865082
     13          6           0        7.695252    0.184483   -0.411380
     14          1           0        5.406887    0.601103    1.090876
     15          1           0        5.483294   -1.101382    0.647219
     16          1           0        6.005389    1.238675   -1.251592
     17          1           0        6.081533   -0.462605   -1.695942
     18          1           0        7.948438   -0.815517   -0.044642
     19          1           0        7.871861    0.895430    0.402233
     20          1           0        8.379372    0.428908   -1.229974
     21          6           0       -3.395694    2.575040    0.091054
     22          6           0       -2.390220    1.790089    0.664983
     23          6           0       -2.456599    0.394964    0.603600
     24          6           0       -3.547550   -0.184567   -0.042357
     25          6           0       -4.565070    0.570327   -0.623802
     26          6           0       -4.478002    1.963731   -0.550375
     27          1           0       -3.336094    3.658138    0.143416
     28          1           0       -1.548518    2.262108    1.163762
     29          1           0       -1.692084   -0.236694    1.039423
     30          1           0       -5.391821    0.071015   -1.114300
     31          1           0       -5.260323    2.570821   -0.996986
     32          7           0       -3.628774   -1.660612   -0.113715
     33          8           0       -4.600287   -2.146883   -0.688468
     34          8           0       -2.719386   -2.303318    0.406459
 ---------------------------------------------------------------------

 SCF Done:  E(RHF) =  -669.535471606     A.U. after   15 cycles
 E2 =    -0.2091207124D+01 EUMP2 =    -0.67162667873039D+03

 The electronic state is 1-A.
 Alpha  occ. eigenvalues --  -20.60702 -20.60697 -15.85754 -11.31094 -11.27688
 Alpha  occ. eigenvalues --  -11.27626 -11.27434 -11.26700 -11.26677 -11.21883
 Alpha  occ. eigenvalues --  -11.21728 -11.21602 -11.21522 -11.21519 -11.21171
 Alpha  occ. eigenvalues --   -1.59778  -1.39331  -1.19279  -1.08682  -1.08631
 Alpha  occ. eigenvalues --   -1.04681  -1.03756  -0.96227  -0.95514  -0.87255
 Alpha  occ. eigenvalues --   -0.86077  -0.82348  -0.79828  -0.78431  -0.77389
 Alpha  occ. eigenvalues --   -0.71975  -0.71100  -0.70399  -0.65257  -0.64932
 Alpha  occ. eigenvalues --   -0.64696  -0.62073  -0.61142  -0.59582  -0.57823
 Alpha  occ. eigenvalues --   -0.55499  -0.55200  -0.53135  -0.53001  -0.52645
 Alpha  occ. eigenvalues --   -0.52557  -0.50148  -0.48732  -0.48728  -0.48136
 Alpha  occ. eigenvalues --   -0.46835  -0.45978  -0.45889  -0.44742  -0.44010
 Alpha  occ. eigenvalues --   -0.37270  -0.36271
 Alpha virt. eigenvalues --    0.05122   0.11354   0.16589   0.20675   0.22762
 Alpha virt. eigenvalues --    0.23968   0.26076   0.26400   0.27159   0.27848
 Alpha virt. eigenvalues --    0.28862   0.29869   0.31478   0.31606   0.31934

 Mulliken charges:
               1
     1  C   -0.299044
     2  C   -0.299463
     3  C   -0.481253
     4  H    0.147870
     5  H    0.152212
     6  H    0.149794
     7  H    0.156688
     8  H    0.166251
     9  H    0.149728
    10  H    0.156537
    11  C   -0.298542
    12  C   -0.299785
    13  C   -0.475828
    14  H    0.148793
    15  H    0.151278
    16  H    0.151181
    17  H    0.153057
    18  H    0.156019
    19  H    0.154813
    20  H    0.160637
    21  C   -0.170688
    22  C   -0.222355
    23  C   -0.174586
    24  C    0.157820
    25  C   -0.170362
    26  C   -0.219052
    27  H    0.225142
    28  H    0.223639
    29  H    0.285234
    30  H    0.275300
    31  H    0.223049
    32  N    0.487271
    33  O   -0.460829
    34  O   -0.460527
 Sum of Mulliken charges =  -0.00000

 Dipole moment (field-independent basis, Debye):
    X=              0.4166    Y=              5.1209    Z=              0.2153  Tot=              5.1423
 Quadrupole moment (field-independent basis, Debye-Ang):
   XX=            -94.3185   YY=            -96.2905   ZZ=            -94.2210
   XY=            -19.3202   XZ=              1.3692   YZ=             -0.2164

 Normal termination of Gaussian 16 at Thu May  6 04:17:55 2021.
