 Gaussian 16, Revision A.03,
 Gaussian 16:  EM64L-G16RevA.03 25-Dec-2016

 -------------
 #p 6-31g* mp2
 -------------

 ------------------------------------------------------
 Input file generated by CHIRIPA (05-May-2021 14:53:18)
 ------------------------------------------------------
 Symbolic Z-matrix:
 Charge =  0 Multiplicity = 1

                         Standard orientation:
 ---------------------------------------------------------------------
 Center     Atomic      Atomic             Coordinates (Angstroms)
 Number     Number       Type             X           Y           Z
 ---------------------------------------------------------------------
      1          6           0        3.507486   -0.449131    0.126729
      2          6           0        4.672404   -0.909128   -0.750400
      3          6           0        4.812174   -2.430992   -0.797174
      4          1           0        3.647818   -0.837346    1.144836
      5          1           0        2.575760   -0.892399   -0.251151
      6          1           0        5.601467   -0.464016   -0.371808
      7          1           0        4.529381   -0.519613   -1.766490
      8          1           0        3.901265   -2.889447   -1.195499
      9          1           0        4.979442   -2.833534    0.207108
     10          1           0        5.650970   -2.737858   -1.429720
     11          6           0        3.354854    1.069818    0.183506
     12          6           0        2.189936    1.529814    1.060636
     13          6           0        2.050166    3.051678    1.107409
     14          1           0        4.286581    1.513086    0.561387
     15          1           0        3.214522    1.458032   -0.834601
     16          1           0        2.332959    1.140300    2.076726
     17          1           0        1.260873    1.084702    0.682043
     18          1           0        1.882898    3.454221    0.103127
     19          1           0        2.961076    3.510134    1.505734
     20          1           0        1.211370    3.358545    1.739955
     21          6           0       -2.699611   -2.598893    0.780348
     22          6           0       -3.902988   -1.909874    0.596884
     23          6           0       -3.904431   -0.603857    0.098018
     24          6           0       -2.678764   -0.014644   -0.208342
     25          6           0       -1.463178   -0.675060   -0.036615
     26          6           0       -1.485687   -1.980377    0.463572
     27          1           0       -2.707794   -3.613166    1.168393
     28          1           0       -4.847236   -2.387721    0.842041
     29          1           0       -4.821369   -0.047438   -0.053776
     30          1           0       -0.537697   -0.172377   -0.290017
     31          1           0       -0.549592   -2.513068    0.605030
     32          7           0       -2.667613    1.367607   -0.737169
     33          8           0       -1.574466    1.864466   -0.999460
     34          8           0       -3.752231    1.927983   -0.879359
 ---------------------------------------------------------------------

 SCF Done:  E(RHF) =  -669.535640132     A.U. after   15 cycles
 E2 =    -0.2091726441D+01 EUMP2 =    -0.67162736657237D+03

 The electronic state is 1-A.
 Alpha  occ. eigenvalues --  -20.60808 -20.60803 -15.85855 -11.31202 -11.27769
 Alpha  occ. eigenvalues --  -11.27756 -11.27508 -11.26786 -11.26770 -11.21839
 Alpha  occ. eigenvalues --  -11.21711 -11.21544 -11.21391 -11.21377 -11.20633
 Alpha  occ. eigenvalues --   -1.59878  -1.39433  -1.19374  -1.08772  -1.08556
 Alpha  occ. eigenvalues --   -1.04775  -1.03559  -0.96000  -0.95611  -0.87013
 Alpha  occ. eigenvalues --   -0.86176  -0.82442  -0.79661  -0.78392  -0.77485
 Alpha  occ. eigenvalues --   -0.72076  -0.71198  -0.70492  -0.65215  -0.65027
 Alpha  occ. eigenvalues --   -0.64762  -0.62148  -0.60924  -0.59393  -0.57616
 Alpha  occ. eigenvalues --   -0.55296  -0.55268  -0.53104  -0.52888  -0.52657
 Alpha  occ. eigenvalues --   -0.52424  -0.49930  -0.48836  -0.48830  -0.47960
 Alpha  occ. eigenvalues --   -0.46698  -0.45909  -0.45813  -0.44833  -0.43838
 Alpha  occ. eigenvalues --   -0.37354  -0.36371
 Alpha virt. eigenvalues --    0.05014   0.11236   0.16537   0.19511   0.22949
 Alpha virt. eigenvalues --    0.24054   0.24905   0.26997   0.27779   0.28004
 Alpha virt. eigenvalues --    0.29898   0.30331   0.31529   0.31662   0.32269

 Mulliken charges:
               1
     1  C   -0.296878
     2  C   -0.299764
     3  C   -0.475628
     4  H    0.148772
     5  H    0.138532
     6  H    0.154014
     7  H    0.154534
     8  H    0.152060
     9  H    0.154323
    10  H    0.162061
    11  C   -0.299042
    12  C   -0.304643
    13  C   -0.473766
    14  H    0.150758
    15  H    0.154478
    16  H    0.148803
    17  H    0.151711
    18  H    0.164326
    19  H    0.151719
    20  H    0.163153
    21  C   -0.170663
    22  C   -0.218664
    23  C   -0.170403
    24  C    0.157392
    25  C   -0.176891
    26  C   -0.221368
    27  H    0.225773
    28  H    0.223518
    29  H    0.275597
    30  H    0.285970
    31  H    0.224621
    32  N    0.487605
    33  O   -0.462109
    34  O   -0.459902
 Sum of Mulliken charges =  -0.00000

 Dipole moment (field-independent basis, Debye):
    X=             -0.0198    Y=             -4.7331    Z=              1.8284  Tot=              5.0741
 Quadrupole moment (field-independent basis, Debye-Ang):
   XX=            -88.8797   YY=            -96.0807   ZZ=            -95.8140
   XY=             13.5813   XZ=             -5.0476   YZ=              0.7371

 Normal termination of Gaussian 16 at Thu May  6 04:26:22 2021.
