 Gaussian 16, Revision A.03,
 Gaussian 16:  EM64L-G16RevA.03 25-Dec-2016

 -------------
 #p 6-31g* mp2
 -------------

 ------------------------------------------------------
 Input file generated by CHIRIPA (05-May-2021 14:51:09)
 ------------------------------------------------------
 Symbolic Z-matrix:
 Charge =  0 Multiplicity = 1

                         Standard orientation:
 ---------------------------------------------------------------------
 Center     Atomic      Atomic             Coordinates (Angstroms)
 Number     Number       Type             X           Y           Z
 ---------------------------------------------------------------------
      1          6           0        3.029879   -0.489251   -0.324216
      2          6           0        4.101660    0.579528   -0.107464
      3          6           0        5.005448    0.766163   -1.326533
      4          1           0        3.516564   -1.442750   -0.571043
      5          1           0        2.419504   -0.215040   -1.195793
      6          1           0        4.708959    0.304087    0.764279
      7          1           0        3.612374    1.530548    0.139063
      8          1           0        4.417083    1.064730   -2.200195
      9          1           0        5.519899   -0.168699   -1.571427
     10          1           0        5.764310    1.534766   -1.149788
     11          6           0        2.118482   -0.687369    0.885673
     12          6           0        1.046701   -1.756148    0.668921
     13          6           0        0.142913   -1.942783    1.887990
     14          1           0        2.728857   -0.961579    1.757250
     15          1           0        1.631797    0.266130    1.132500
     16          1           0        1.535987   -2.707168    0.422394
     17          1           0        0.439402   -1.480707   -0.202822
     18          1           0       -0.371538   -1.007920    2.132884
     19          1           0        0.731278   -2.241350    2.761652
     20          1           0       -0.615949   -2.711385    1.711245
     21          6           0       -2.540597    0.006582   -0.774587
     22          6           0       -3.367726   -1.204525   -0.342077
     23          6           0       -3.290466   -2.360114   -1.340294
     24          1           0       -2.888183    0.347140   -1.759548
     25          1           0       -1.493098   -0.300019   -0.901619
     26          1           0       -4.413102   -0.895422   -0.214559
     27          1           0       -3.018258   -1.542122    0.642055
     28          1           0       -2.255600   -2.696411   -1.460954
     29          1           0       -3.658369   -2.046036   -2.322435
     30          1           0       -3.888969   -3.215393   -1.011429
     31          6           0       -2.607764    1.170038    0.213130
     32          6           0       -1.780635    2.381144   -0.219380
     33          6           0       -1.857895    3.536734    0.778836
     34          1           0       -3.655262    1.476639    0.340161
     35          1           0       -2.260177    0.829479    1.198092
     36          1           0       -2.130103    2.718742   -1.203512
     37          1           0       -0.735259    2.072042   -0.346898
     38          1           0       -1.489991    3.222657    1.760978
     39          1           0       -2.892761    3.873031    0.899497
     40          1           0       -1.259392    4.392014    0.449972
 ---------------------------------------------------------------------

 SCF Done:  E(RHF) =  -470.733081558     A.U. after   11 cycles
 E2 =    -0.1584463418D+01 EUMP2 =    -0.47231754497567D+03

 The electronic state is 1-A.
 Alpha  occ. eigenvalues --  -11.21681 -11.21658 -11.21640 -11.21567 -11.21475
 Alpha  occ. eigenvalues --  -11.21424 -11.21411 -11.21353 -11.21168 -11.21116
 Alpha  occ. eigenvalues --  -11.21096 -11.21064  -1.08522  -1.08428  -1.03611
 Alpha  occ. eigenvalues --   -1.03532  -0.96049  -0.95994  -0.87063  -0.87013
 Alpha  occ. eigenvalues --   -0.79696  -0.79584  -0.78362  -0.78210  -0.65440
 Alpha  occ. eigenvalues --   -0.64831  -0.61111  -0.60836  -0.59392  -0.59366
 Alpha  occ. eigenvalues --   -0.57666  -0.57592  -0.55440  -0.55174  -0.52742
 Alpha  occ. eigenvalues --   -0.52688  -0.52493  -0.52395  -0.50032  -0.49926
 Alpha  occ. eigenvalues --   -0.48009  -0.47931  -0.46909  -0.46570  -0.46034
 Alpha  occ. eigenvalues --   -0.45863  -0.45701  -0.45324  -0.43839  -0.43800
 Alpha virt. eigenvalues --    0.18619   0.22418   0.23494   0.25022   0.25167
 Alpha virt. eigenvalues --    0.26020   0.27224   0.27606   0.29069   0.29525
 Alpha virt. eigenvalues --    0.30586   0.31213   0.31792   0.31873   0.32524

 Mulliken charges:
               1
     1  C   -0.298450
     2  C   -0.299721
     3  C   -0.475788
     4  H    0.149972
     5  H    0.149433
     6  H    0.152053
     7  H    0.152038
     8  H    0.155388
     9  H    0.155244
    10  H    0.160423
    11  C   -0.299238
    12  C   -0.306294
    13  C   -0.479435
    14  H    0.150091
    15  H    0.149915
    16  H    0.152759
    17  H    0.157285
    18  H    0.157113
    19  H    0.155777
    20  H    0.161845
    21  C   -0.304317
    22  C   -0.302238
    23  C   -0.476941
    24  H    0.149693
    25  H    0.155333
    26  H    0.151716
    27  H    0.155940
    28  H    0.155781
    29  H    0.155132
    30  H    0.160180
    31  C   -0.300742
    32  C   -0.300459
    33  C   -0.475681
    34  H    0.149990
    35  H    0.151639
    36  H    0.152332
    37  H    0.151328
    38  H    0.155004
    39  H    0.155566
    40  H    0.160334
 Sum of Mulliken charges =  -0.00000

 Dipole moment (field-independent basis, Debye):
    X=              0.0149    Y=             -0.0111    Z=              0.0122  Tot=              0.0222
 Quadrupole moment (field-independent basis, Debye-Ang):
   XX=            -84.1970   YY=            -85.0113   ZZ=            -85.4224
   XY=             -1.0256   XZ=              1.1724   YZ=             -0.8639

 Normal termination of Gaussian 16 at Thu May  6 03:43:50 2021.
