 Gaussian 16, Revision A.03,
 Gaussian 16:  EM64L-G16RevA.03 25-Dec-2016

 -------------
 #p 6-31g* mp2
 -------------

 ------------------------------------------------------
 Input file generated by CHIRIPA (05-May-2021 14:57:22)
 ------------------------------------------------------
 Symbolic Z-matrix:
 Charge =  0 Multiplicity = 1

                         Standard orientation:
 ---------------------------------------------------------------------
 Center     Atomic      Atomic             Coordinates (Angstroms)
 Number     Number       Type             X           Y           Z
 ---------------------------------------------------------------------
      1          6           0       -3.554674    1.957958   -0.987081
      2          6           0       -2.496133    2.138235   -0.090692
      3          6           0       -1.961757    1.049725    0.605107
      4          6           0       -2.512597   -0.210778    0.379283
      5          6           0       -3.567339   -0.422576   -0.507256
      6          6           0       -4.085962    0.680380   -1.192141
      7          1           0       -3.963671    2.809150   -1.523356
      8          1           0       -2.081539    3.129274    0.070550
      9          1           0       -1.142352    1.160893    1.304847
     10          1           0       -3.959670   -1.422556   -0.647018
     11          1           0       -4.908047    0.537398   -1.887682
     12          7           0       -1.955216   -1.370781    1.110117
     13          8           0       -2.458200   -2.471101    0.893460
     14          8           0       -1.025911   -1.157707    1.885764
     15          6           0        3.232312    2.309796    0.593640
     16          6           0        1.911917    2.040022    0.219073
     17          6           0        1.552675    0.774679   -0.254637
     18          6           0        2.543761   -0.201813   -0.341246
     19          6           0        3.867801    0.036199    0.024215
     20          6           0        4.204326    1.308788    0.495188
     21          1           0        3.502556    3.295559    0.960566
     22          1           0        1.154943    2.815490    0.294470
     23          1           0        0.537967    0.538679   -0.551434
     24          1           0        4.600321   -0.757134   -0.062132
     25          1           0        5.230548    1.515452    0.785366
     26          7           0        2.175474   -1.545210   -0.841294
     27          8           0        3.067253   -2.388356   -0.908150
     28          8           0        1.002003   -1.729581   -1.156905
 ---------------------------------------------------------------------

 SCF Done:  E(RHF) =  -868.336032369     A.U. after   16 cycles
 E2 =    -0.2603487858D+01 EUMP2 =    -0.87093952022716D+03

 The electronic state is 1-A.
 Alpha  occ. eigenvalues --  -20.60550 -20.60508 -20.60374 -20.60364 -15.85605
 Alpha  occ. eigenvalues --  -15.85432 -11.31343 -11.30935 -11.27999 -11.27849
 Alpha  occ. eigenvalues --  -11.27720 -11.27563 -11.27556 -11.27413 -11.27148
 Alpha  occ. eigenvalues --  -11.26951 -11.26739 -11.26603  -1.59575  -1.59421
 Alpha  occ. eigenvalues --   -1.39134  -1.38980  -1.19546  -1.19163  -1.08847
 Alpha  occ. eigenvalues --   -1.08535  -1.05045  -1.04609  -0.95636  -0.95338
 Alpha  occ. eigenvalues --   -0.86401  -0.86003  -0.82492  -0.82193  -0.77527
 Alpha  occ. eigenvalues --   -0.77164  -0.71834  -0.71693  -0.70934  -0.70686
 Alpha  occ. eigenvalues --   -0.70640  -0.70251  -0.65195  -0.65060  -0.64828
 Alpha  occ. eigenvalues --   -0.64648  -0.62516  -0.61834  -0.55468  -0.55147
 Alpha  occ. eigenvalues --   -0.53362  -0.53154  -0.52860  -0.52638  -0.48607
 Alpha  occ. eigenvalues --   -0.48554  -0.48418  -0.48397  -0.44560  -0.44255
 Alpha  occ. eigenvalues --   -0.37495  -0.37147  -0.36652  -0.36183
 Alpha virt. eigenvalues --    0.05069   0.05363   0.10866   0.11515   0.16466
 Alpha virt. eigenvalues --    0.16699   0.19901   0.22110   0.25319   0.28045
 Alpha virt. eigenvalues --    0.28400   0.28891   0.30211   0.32020   0.32368

 Mulliken charges:
               1
     1  C   -0.170814
     2  C   -0.219726
     3  C   -0.192061
     4  C    0.168748
     5  C   -0.167318
     6  C   -0.217103
     7  H    0.225849
     8  H    0.217838
     9  H    0.275823
    10  H    0.279792
    11  H    0.225649
    12  N    0.494016
    13  O   -0.453562
    14  O   -0.463812
    15  C   -0.169613
    16  C   -0.224538
    17  C   -0.168622
    18  C    0.162112
    19  C   -0.168563
    20  C   -0.218910
    21  H    0.223723
    22  H    0.211927
    23  H    0.279264
    24  H    0.276527
    25  H    0.223158
    26  N    0.490590
    27  O   -0.459555
    28  O   -0.460819
 Sum of Mulliken charges =  -0.00000

 Dipole moment (field-independent basis, Debye):
    X=             -0.8051    Y=              8.3469    Z=             -0.8705  Tot=              8.4307
 Quadrupole moment (field-independent basis, Debye-Ang):
   XX=            -81.0095   YY=           -107.4847   ZZ=           -108.4263
   XY=              2.7862   XZ=             12.5668   YZ=              1.4008

 Normal termination of Gaussian 16 at Wed May  5 17:48:08 2021.
