 Gaussian 16, Revision A.03,
 Gaussian 16:  EM64L-G16RevA.03 25-Dec-2016

 -------------
 #p 6-31g* mp2
 -------------

 ------------------------------------------------------
 Input file generated by CHIRIPA (05-May-2021 14:57:21)
 ------------------------------------------------------
 Symbolic Z-matrix:
 Charge =  0 Multiplicity = 1

                         Standard orientation:
 ---------------------------------------------------------------------
 Center     Atomic      Atomic             Coordinates (Angstroms)
 Number     Number       Type             X           Y           Z
 ---------------------------------------------------------------------
      1          6           0        5.774319    1.271934    0.160055
      2          6           0        4.982939    1.123696    1.303849
      3          6           0        3.798979    0.381691    1.256792
      4          6           0        3.434873   -0.201086    0.043909
      5          6           0        4.202020   -0.071575   -1.112812
      6          6           0        5.382025    0.674878   -1.042505
      7          1           0        6.692512    1.850069    0.205641
      8          1           0        5.285126    1.586261    2.239137
      9          1           0        3.167504    0.250887    2.127164
     10          1           0        3.874720   -0.544460   -2.030784
     11          1           0        5.994649    0.788320   -1.932374
     12          7           0        2.183561   -0.988969   -0.018215
     13          8           0        1.884788   -1.492453   -1.098898
     14          8           0        1.525248   -1.088108    1.014951
     15          6           0       -5.896977    1.192488    0.086387
     16          6           0       -5.750616   -0.138779    0.489902
     17          6           0       -4.505422   -0.770160    0.416419
     18          6           0       -3.423015   -0.037165   -0.067733
     19          6           0       -3.536907    1.290436   -0.477360
     20          6           0       -4.791604    1.901597   -0.395108
     21          1           0       -6.867964    1.675107    0.146876
     22          1           0       -6.607314   -0.691933    0.864247
     23          1           0       -4.363940   -1.799701    0.722105
     24          1           0       -2.664485    1.816028   -0.846211
     25          1           0       -4.902316    2.935591   -0.709186
     26          7           0       -2.099753   -0.694876   -0.150169
     27          8           0       -1.161705   -0.027310   -0.580351
     28          8           0       -2.025687   -1.865502    0.216961
 ---------------------------------------------------------------------

 SCF Done:  E(RHF) =  -868.334282230     A.U. after   16 cycles
 E2 =    -0.2601526315D+01 EUMP2 =    -0.87093580854482D+03

 The electronic state is 1-A.
 Alpha  occ. eigenvalues --  -20.59403 -20.59392 -20.59083 -20.59076 -15.84494
 Alpha  occ. eigenvalues --  -15.84172 -11.30347 -11.30134 -11.26986 -11.26959
 Alpha  occ. eigenvalues --  -11.26807 -11.26777 -11.26767 -11.26632 -11.26108
 Alpha  occ. eigenvalues --  -11.26087 -11.25932 -11.25919  -1.58443  -1.58107
 Alpha  occ. eigenvalues --   -1.38003  -1.37675  -1.18562  -1.18360  -1.07863
 Alpha  occ. eigenvalues --   -1.07638  -1.04041  -1.03856  -0.94622  -0.94368
 Alpha  occ. eigenvalues --   -0.85417  -0.85226  -0.81462  -0.81228  -0.76416
 Alpha  occ. eigenvalues --   -0.76159  -0.70756  -0.70419  -0.69803  -0.69670
 Alpha  occ. eigenvalues --   -0.69470  -0.69393  -0.64206  -0.64051  -0.64002
 Alpha  occ. eigenvalues --   -0.63866  -0.61387  -0.61201  -0.54530  -0.54340
 Alpha  occ. eigenvalues --   -0.52342  -0.52159  -0.52134  -0.51961  -0.47791
 Alpha  occ. eigenvalues --   -0.47396  -0.47080  -0.46741  -0.43403  -0.42865
 Alpha  occ. eigenvalues --   -0.36570  -0.36369  -0.35668  -0.35488
 Alpha virt. eigenvalues --    0.06127   0.06402   0.11979   0.12158   0.17541
 Alpha virt. eigenvalues --    0.17791   0.22043   0.22202   0.27917   0.28068
 Alpha virt. eigenvalues --    0.28973   0.29143   0.31553   0.31704   0.33231

 Mulliken charges:
               1
     1  C   -0.173019
     2  C   -0.218641
     3  C   -0.171935
     4  C    0.161593
     5  C   -0.171741
     6  C   -0.218620
     7  H    0.221380
     8  H    0.219510
     9  H    0.274145
    10  H    0.274903
    11  H    0.219840
    12  N    0.491859
    13  O   -0.454844
    14  O   -0.454765
    15  C   -0.172531
    16  C   -0.218476
    17  C   -0.171567
    18  C    0.160147
    19  C   -0.171833
    20  C   -0.218478
    21  H    0.222325
    22  H    0.220949
    23  H    0.275758
    24  H    0.273424
    25  H    0.220037
    26  N    0.488993
    27  O   -0.456565
    28  O   -0.451847
 Sum of Mulliken charges =  -0.00000

 Dipole moment (field-independent basis, Debye):
    X=             -0.3470    Y=              4.8082    Z=              0.4864  Tot=              4.8452
 Quadrupole moment (field-independent basis, Debye-Ang):
   XX=            -46.4558   YY=           -103.5094   ZZ=           -100.4554
   XY=              2.7435   XZ=             -1.6819   YZ=             -0.8424

 Normal termination of Gaussian 16 at Wed May  5 19:15:47 2021.
