 Gaussian 16, Revision A.03,
 Gaussian 16:  EM64L-G16RevA.03 25-Dec-2016

 -------------
 #p 6-31g* mp2
 -------------

 ------------------------------------------------------
 Input file generated by CHIRIPA (05-May-2021 14:51:08)
 ------------------------------------------------------
 Symbolic Z-matrix:
 Charge =  0 Multiplicity = 1

                         Standard orientation:
 ---------------------------------------------------------------------
 Center     Atomic      Atomic             Coordinates (Angstroms)
 Number     Number       Type             X           Y           Z
 ---------------------------------------------------------------------
      1          6           0       -4.540292   -0.001536    0.270636
      2          6           0       -5.256603    1.178017   -0.387801
      3          6           0       -6.671933    1.386122    0.151945
      4          1           0       -5.131446   -0.914397    0.115182
      5          1           0       -4.499176    0.163134    1.356264
      6          1           0       -5.295131    1.011831   -1.472012
      7          1           0       -4.663578    2.088142   -0.230926
      8          1           0       -6.649010    1.577050    1.229731
      9          1           0       -7.284152    0.494623   -0.018407
     10          1           0       -7.165638    2.234350   -0.332435
     11          6           0       -3.124297   -0.222302   -0.258468
     12          6           0       -2.407986   -1.401854    0.399969
     13          6           0       -0.992656   -1.609959   -0.139776
     14          1           0       -3.165413   -0.386971   -1.344096
     15          1           0       -2.533143    0.690559   -0.103014
     16          1           0       -3.001011   -2.311979    0.243095
     17          1           0       -2.369458   -1.235668    1.484181
     18          1           0       -0.380437   -0.718461    0.030575
     19          1           0       -1.015578   -1.800887   -1.217562
     20          1           0       -0.498951   -2.458187    0.344603
     21          6           0        4.355137    0.649987    0.137267
     22          6           0        3.862017    2.067641   -0.154408
     23          6           0        4.919231    3.133005    0.137296
     24          1           0        4.662625    0.584890    1.189959
     25          1           0        5.253287    0.450787   -0.463601
     26          1           0        2.964262    2.263615    0.445798
     27          1           0        3.555487    2.129319   -1.206479
     28          1           0        5.813355    2.965387   -0.471840
     29          1           0        5.218772    3.100446    1.189824
     30          1           0        4.545624    4.138918   -0.078150
     31          6           0        3.309452   -0.426150   -0.149436
     32          6           0        3.802572   -1.843803    0.142240
     33          6           0        2.745358   -2.909167   -0.149464
     34          1           0        2.411302   -0.226950    0.451433
     35          1           0        3.001964   -0.361052   -1.202127
     36          1           0        4.109102   -1.905482    1.194311
     37          1           0        4.700327   -2.039778   -0.457967
     38          1           0        2.445817   -2.876609   -1.201992
     39          1           0        1.851234   -2.741550    0.459672
     40          1           0        3.118965   -3.915081    0.065981
 ---------------------------------------------------------------------

 SCF Done:  E(RHF) =  -470.732915436     A.U. after   11 cycles
 E2 =    -0.1582813650D+01 EUMP2 =    -0.47231572908533D+03

 The electronic state is 1-A.
 Alpha  occ. eigenvalues --  -11.21596 -11.21591 -11.21577 -11.21539 -11.21395
 Alpha  occ. eigenvalues --  -11.21368 -11.21335 -11.21305 -11.21067 -11.21063
 Alpha  occ. eigenvalues --  -11.21019 -11.20938  -1.08422  -1.08388  -1.03533
 Alpha  occ. eigenvalues --   -1.03468  -0.95999  -0.95902  -0.87042  -0.86897
 Alpha  occ. eigenvalues --   -0.79664  -0.79473  -0.78255  -0.78174  -0.65066
 Alpha  occ. eigenvalues --   -0.65009  -0.60955  -0.60860  -0.59412  -0.59257
 Alpha  occ. eigenvalues --   -0.57663  -0.57463  -0.55259  -0.55223  -0.52841
 Alpha  occ. eigenvalues --   -0.52629  -0.52407  -0.52169  -0.49917  -0.49856
 Alpha  occ. eigenvalues --   -0.47892  -0.47853  -0.46677  -0.46536  -0.45842
 Alpha  occ. eigenvalues --   -0.45720  -0.45698  -0.45592  -0.43747  -0.43708
 Alpha virt. eigenvalues --    0.21938   0.23046   0.23608   0.24750   0.25888
 Alpha virt. eigenvalues --    0.26666   0.26967   0.27066   0.27801   0.29289
 Alpha virt. eigenvalues --    0.29943   0.30875   0.31686   0.31965   0.32041

 Mulliken charges:
               1
     1  C   -0.298215
     2  C   -0.299608
     3  C   -0.475688
     4  H    0.149655
     5  H    0.149398
     6  H    0.151931
     7  H    0.151909
     8  H    0.155139
     9  H    0.155178
    10  H    0.160232
    11  C   -0.298569
    12  C   -0.299936
    13  C   -0.479500
    14  H    0.149540
    15  H    0.149560
    16  H    0.151903
    17  H    0.151380
    18  H    0.157227
    19  H    0.155459
    20  H    0.163212
    21  C   -0.298218
    22  C   -0.299519
    23  C   -0.475661
    24  H    0.149437
    25  H    0.149545
    26  H    0.151341
    27  H    0.152022
    28  H    0.155236
    29  H    0.155121
    30  H    0.160135
    31  C   -0.300187
    32  C   -0.299562
    33  C   -0.479823
    34  H    0.151553
    35  H    0.149933
    36  H    0.151308
    37  H    0.151514
    38  H    0.155350
    39  H    0.161286
    40  H    0.158980
 Sum of Mulliken charges =  -0.00000

 Dipole moment (field-independent basis, Debye):
    X=             -0.0135    Y=             -0.0094    Z=             -0.0096  Tot=              0.0191
 Quadrupole moment (field-independent basis, Debye-Ang):
   XX=            -86.2422   YY=            -85.2991   ZZ=            -83.4269
   XY=             -0.0356   XZ=              0.1321   YZ=              0.3200

 Normal termination of Gaussian 16 at Thu May  6 14:50:59 2021.
