 Gaussian 16, Revision A.03,
 Gaussian 16:  EM64L-G16RevA.03 25-Dec-2016

 -------------
 #p 6-31g* mp2
 -------------

 ------------------------------------------------------
 Input file generated by CHIRIPA (05-May-2021 14:57:22)
 ------------------------------------------------------
 Symbolic Z-matrix:
 Charge =  0 Multiplicity = 1

                         Standard orientation:
 ---------------------------------------------------------------------
 Center     Atomic      Atomic             Coordinates (Angstroms)
 Number     Number       Type             X           Y           Z
 ---------------------------------------------------------------------
      1          6           0       -1.027758    1.119598   -1.234307
      2          6           0       -1.988951    1.843643   -0.521294
      3          6           0       -3.120562    1.205004   -0.005401
      4          6           0       -3.259728   -0.165006   -0.222185
      5          6           0       -2.319611   -0.913838   -0.928386
      6          6           0       -1.195859   -0.254410   -1.435223
      7          1           0       -0.151748    1.623783   -1.631547
      8          1           0       -1.861020    2.910812   -0.363724
      9          1           0       -3.880166    1.741316    0.550287
     10          1           0       -2.474736   -1.976620   -1.069276
     11          1           0       -0.451006   -0.819251   -1.988570
     12          7           0       -4.453554   -0.852109    0.319175
     13          8           0       -4.552860   -2.059956    0.114525
     14          8           0       -5.267363   -0.169803    0.937891
     15          6           0        1.596132    2.018292    0.900535
     16          6           0        1.482157    0.821149    1.614944
     17          6           0        2.289748   -0.274932    1.297215
     18          6           0        3.204780   -0.138354    0.254453
     19          6           0        3.341939    1.041084   -0.475893
     20          6           0        2.524023    2.124252   -0.140767
     21          1           0        0.964765    2.864738    1.154112
     22          1           0        0.762418    0.735991    2.424122
     23          1           0        2.222340   -1.213460    1.833907
     24          1           0        4.068620    1.095754   -1.277369
     25          1           0        2.614721    3.052738   -0.697303
     26          7           0        4.065206   -1.291890   -0.091122
     27          8           0        4.863574   -1.146051   -1.014148
     28          8           0        3.924946   -2.320027    0.567588
 ---------------------------------------------------------------------

 SCF Done:  E(RHF) =  -868.336475545     A.U. after   16 cycles
 E2 =    -0.2602553491D+01 EUMP2 =    -0.87093902903550D+03

 The electronic state is 1-A.
 Alpha  occ. eigenvalues --  -20.61466 -20.61454 -20.61106 -20.61094 -15.86521
 Alpha  occ. eigenvalues --  -15.86163 -11.32015 -11.31567 -11.28651 -11.28541
 Alpha  occ. eigenvalues --  -11.28374 -11.28237 -11.28143 -11.27885 -11.27685
 Alpha  occ. eigenvalues --  -11.27528 -11.27250 -11.27080  -1.60540  -1.60182
 Alpha  occ. eigenvalues --   -1.40088  -1.39733  -1.20218  -1.19772  -1.09605
 Alpha  occ. eigenvalues --   -1.09135  -1.05615  -1.05190  -0.96405  -0.95962
 Alpha  occ. eigenvalues --   -0.87007  -0.86584  -0.83208  -0.82806  -0.78228
 Alpha  occ. eigenvalues --   -0.77849  -0.72730  -0.72377  -0.71876  -0.71513
 Alpha  occ. eigenvalues --   -0.71333  -0.70868  -0.65849  -0.65600  -0.65417
 Alpha  occ. eigenvalues --   -0.65198  -0.62936  -0.62536  -0.56135  -0.55780
 Alpha  occ. eigenvalues --   -0.54165  -0.53685  -0.53280  -0.53220  -0.49501
 Alpha  occ. eigenvalues --   -0.49480  -0.49140  -0.49129  -0.45464  -0.45130
 Alpha  occ. eigenvalues --   -0.38705  -0.37434  -0.36996  -0.36792
 Alpha virt. eigenvalues --    0.04134   0.04837   0.10276   0.10813   0.15637
 Alpha virt. eigenvalues --    0.16297   0.19798   0.21602   0.25877   0.26379
 Alpha virt. eigenvalues --    0.27765   0.28717   0.29557   0.31344   0.31866

 Mulliken charges:
               1
     1  C   -0.162942
     2  C   -0.226680
     3  C   -0.171598
     4  C    0.156710
     5  C   -0.170737
     6  C   -0.221266
     7  H    0.226294
     8  H    0.216832
     9  H    0.275197
    10  H    0.278232
    11  H    0.227465
    12  N    0.487998
    13  O   -0.458557
    14  O   -0.461049
    15  C   -0.170900
    16  C   -0.212647
    17  C   -0.170782
    18  C    0.156565
    19  C   -0.173120
    20  C   -0.228588
    21  H    0.224300
    22  H    0.228931
    23  H    0.279386
    24  H    0.277273
    25  H    0.223031
    26  N    0.487562
    27  O   -0.459542
    28  O   -0.457367
 Sum of Mulliken charges =  -0.00000

 Dipole moment (field-independent basis, Debye):
    X=              1.2944    Y=              6.2660    Z=             -0.5971  Tot=              6.4261
 Quadrupole moment (field-independent basis, Debye-Ang):
   XX=           -151.5897   YY=           -102.4296   ZZ=           -100.8100
   XY=              4.6243   XZ=              6.1812   YZ=              0.4066

 Normal termination of Gaussian 16 at Thu May  6 12:52:40 2021.
