 Gaussian 16, Revision A.03,
 Gaussian 16:  EM64L-G16RevA.03 25-Dec-2016

 -------------
 #p 6-31g* mp2
 -------------

 ------------------------------------------------------
 Input file generated by CHIRIPA (05-May-2021 14:51:09)
 ------------------------------------------------------
 Symbolic Z-matrix:
 Charge =  0 Multiplicity = 1

                         Standard orientation:
 ---------------------------------------------------------------------
 Center     Atomic      Atomic             Coordinates (Angstroms)
 Number     Number       Type             X           Y           Z
 ---------------------------------------------------------------------
      1          6           0        5.129569    0.036235   -0.089076
      2          6           0        5.415673   -1.465548   -0.061146
      3          6           0        6.907771   -1.781150    0.047638
      4          1           0        5.664259    0.489234   -0.935151
      5          1           0        5.537360    0.497106    0.821253
      6          1           0        5.006248   -1.923668   -0.970603
      7          1           0        4.880086   -1.915055    0.784848
      8          1           0        7.326829   -1.350779    0.962937
      9          1           0        7.453708   -1.359441   -0.802489
     10          1           0        7.089574   -2.860256    0.065998
     11          6           0        3.642258    0.367680   -0.197593
     12          6           0        3.356154    1.869463   -0.225523
     13          6           0        1.864056    2.185065   -0.334306
     14          1           0        3.234467   -0.093191   -1.107922
     15          1           0        3.107568   -0.085319    0.648483
     16          1           0        3.891741    2.318970   -1.071517
     17          1           0        3.765579    2.327583    0.683934
     18          1           0        1.318119    1.763356    0.515820
     19          1           0        1.444997    1.754694   -1.249605
     20          1           0        1.682253    3.264171   -0.352667
     21          6           0       -4.932553   -0.513970   -0.289407
     22          6           0       -6.346289   -0.134305    0.152397
     23          6           0       -7.428936   -0.766214   -0.723023
     24          1           0       -4.786858   -0.206918   -1.334126
     25          1           0       -4.830557   -1.607831   -0.267985
     26          1           0       -6.445155    0.958582    0.131475
     27          1           0       -6.488571   -0.442124    1.196246
     28          1           0       -7.358918   -1.858396   -0.694084
     29          1           0       -7.315256   -0.449731   -1.764905
     30          1           0       -8.431734   -0.481589   -0.389488
     31          6           0       -3.839273    0.110054    0.576075
     32          6           0       -2.425537   -0.269609    0.134272
     33          6           0       -1.342891    0.362299    1.009692
     34          1           0       -3.941270    1.203916    0.554653
     35          1           0       -3.984969   -0.196996    1.620794
     36          1           0       -2.283255    0.038209   -0.909577
     37          1           0       -2.326671   -1.362498    0.155193
     38          1           0       -1.456571    0.045816    2.051573
     39          1           0       -1.412909    1.454480    0.980753
     40          1           0       -0.340093    0.077674    0.676156
 ---------------------------------------------------------------------

 SCF Done:  E(RHF) =  -470.732806976     A.U. after   11 cycles
 E2 =    -0.1582519306D+01 EUMP2 =    -0.47231532628170D+03

 The electronic state is 1-A.
 Alpha  occ. eigenvalues --  -11.21594 -11.21585 -11.21563 -11.21555 -11.21396
 Alpha  occ. eigenvalues --  -11.21380 -11.21337 -11.21320 -11.21065 -11.21059
 Alpha  occ. eigenvalues --  -11.20991 -11.20950  -1.08416  -1.08399  -1.03531
 Alpha  occ. eigenvalues --   -1.03472  -0.96015  -0.95890  -0.87070  -0.86875
 Alpha  occ. eigenvalues --   -0.79655  -0.79482  -0.78238  -0.78206  -0.65050
 Alpha  occ. eigenvalues --   -0.65027  -0.60950  -0.60863  -0.59439  -0.59242
 Alpha  occ. eigenvalues --   -0.57676  -0.57447  -0.55332  -0.55159  -0.52845
 Alpha  occ. eigenvalues --   -0.52640  -0.52386  -0.52179  -0.49987  -0.49776
 Alpha  occ. eigenvalues --   -0.47945  -0.47798  -0.46659  -0.46527  -0.45772
 Alpha  occ. eigenvalues --   -0.45755  -0.45701  -0.45667  -0.43763  -0.43696
 Alpha virt. eigenvalues --    0.22303   0.22978   0.23584   0.24845   0.26346
 Alpha virt. eigenvalues --    0.26624   0.27074   0.27447   0.27745   0.29058
 Alpha virt. eigenvalues --    0.30744   0.31028   0.31571   0.31872   0.32034

 Mulliken charges:
               1
     1  C   -0.298160
     2  C   -0.299670
     3  C   -0.475704
     4  H    0.149740
     5  H    0.149596
     6  H    0.151872
     7  H    0.151933
     8  H    0.155197
     9  H    0.155171
    10  H    0.160216
    11  C   -0.298918
    12  C   -0.299592
    13  C   -0.480884
    14  H    0.149279
    15  H    0.149478
    16  H    0.151479
    17  H    0.151716
    18  H    0.163700
    19  H    0.154167
    20  H    0.159260
    21  C   -0.298266
    22  C   -0.299613
    23  C   -0.475684
    24  H    0.149623
    25  H    0.149440
    26  H    0.151928
    27  H    0.151880
    28  H    0.155140
    29  H    0.155158
    30  H    0.160196
    31  C   -0.298569
    32  C   -0.299505
    33  C   -0.479355
    34  H    0.149628
    35  H    0.149483
    36  H    0.152115
    37  H    0.151597
    38  H    0.153976
    39  H    0.156446
    40  H    0.164507
 Sum of Mulliken charges =  -0.00000

 Dipole moment (field-independent basis, Debye):
    X=             -0.0052    Y=              0.0037    Z=              0.0102  Tot=              0.0121
 Quadrupole moment (field-independent basis, Debye-Ang):
   XX=            -86.8335   YY=            -84.4614   ZZ=            -83.6626
   XY=              0.0310   XZ=             -0.6065   YZ=             -0.6557

 Normal termination of Gaussian 16 at Thu May  6 05:20:24 2021.
