 Gaussian 16, Revision A.03,
 Gaussian 16:  EM64L-G16RevA.03 25-Dec-2016

 -------------
 #p 6-31g* mp2
 -------------

 ------------------------------------------------------
 Input file generated by CHIRIPA (05-May-2021 14:57:24)
 ------------------------------------------------------
 Symbolic Z-matrix:
 Charge =  0 Multiplicity = 1

                         Standard orientation:
 ---------------------------------------------------------------------
 Center     Atomic      Atomic             Coordinates (Angstroms)
 Number     Number       Type             X           Y           Z
 ---------------------------------------------------------------------
      1          6           0        5.530924    0.563914   -0.813606
      2          6           0        4.931138    1.496797    0.038747
      3          6           0        3.698894    1.220909    0.638756
      4          6           0        3.091660   -0.003249    0.363087
      5          6           0        3.663947   -0.953152   -0.481580
      6          6           0        4.896533   -0.655932   -1.070596
      7          1           0        6.488294    0.786516   -1.275438
      8          1           0        5.421518    2.444959    0.240144
      9          1           0        3.212240    1.925073    1.302638
     10          1           0        3.150918   -1.889756   -0.663217
     11          1           0        5.359996   -1.382313   -1.732124
     12          7           0        1.786958   -0.306610    0.992471
     13          8           0        1.272410   -1.392331    0.733459
     14          8           0        1.303585    0.547081    1.732876
     15          6           0       -4.313617    2.266675   -0.249882
     16          6           0       -3.123950    2.023889   -0.944337
     17          6           0       -2.557007    0.746009   -0.956443
     18          6           0       -3.209345   -0.270403   -0.260272
     19          6           0       -4.395660   -0.059994    0.440922
     20          6           0       -4.944563    1.225794    0.439316
     21          1           0       -4.747025    3.262435   -0.245804
     22          1           0       -2.631756    2.830342   -1.480457
     23          1           0       -1.636908    0.530270   -1.485869
     24          1           0       -4.863196   -0.884026    0.966090
     25          1           0       -5.868568    1.411433    0.979499
     26          7           0       -2.618697   -1.627422   -0.265831
     27          8           0       -3.212917   -2.505896    0.355317
     28          8           0       -1.572711   -1.786886   -0.891228
 ---------------------------------------------------------------------

 SCF Done:  E(RHF) =  -868.336398077     A.U. after   16 cycles
 E2 =    -0.2600254463D+01 EUMP2 =    -0.87093665254059D+03

 The electronic state is 1-A.
 Alpha  occ. eigenvalues --  -20.60335 -20.60184 -20.59637 -20.59537 -15.85295
 Alpha  occ. eigenvalues --  -15.84641 -11.30862 -11.30240 -11.27492 -11.27403
 Alpha  occ. eigenvalues --  -11.27245 -11.26860 -11.26852 -11.26673 -11.26540
 Alpha  occ. eigenvalues --  -11.26486 -11.25950 -11.25938  -1.59341  -1.58637
 Alpha  occ. eigenvalues --   -1.38880  -1.38192  -1.19059  -1.18441  -1.08422
 Alpha  occ. eigenvalues --   -1.07799  -1.04485  -1.03896  -0.95219  -0.94598
 Alpha  occ. eigenvalues --   -0.85873  -0.85288  -0.82041  -0.81441  -0.77058
 Alpha  occ. eigenvalues --   -0.76443  -0.71527  -0.70895  -0.70658  -0.70161
 Alpha  occ. eigenvalues --   -0.69912  -0.69585  -0.64700  -0.64489  -0.64109
 Alpha  occ. eigenvalues --   -0.63930  -0.61822  -0.61258  -0.54987  -0.54419
 Alpha  occ. eigenvalues --   -0.52815  -0.52575  -0.52187  -0.52016  -0.48316
 Alpha  occ. eigenvalues --   -0.48270  -0.47649  -0.47618  -0.44314  -0.43424
 Alpha  occ. eigenvalues --   -0.37059  -0.36430  -0.36101  -0.35498
 Alpha virt. eigenvalues --    0.05443   0.06166   0.11550   0.12152   0.16902
 Alpha virt. eigenvalues --    0.17592   0.21678   0.22150   0.27578   0.28021
 Alpha virt. eigenvalues --    0.28602   0.29062   0.31205   0.31653   0.32887

 Mulliken charges:
               1
     1  C   -0.171592
     2  C   -0.218901
     3  C   -0.172675
     4  C    0.157416
     5  C   -0.171071
     6  C   -0.218959
     7  H    0.224238
     8  H    0.221401
     9  H    0.273432
    10  H    0.281096
    11  H    0.223541
    12  N    0.485421
    13  O   -0.444546
    14  O   -0.468801
    15  C   -0.171416
    16  C   -0.217695
    17  C   -0.165976
    18  C    0.163137
    19  C   -0.170487
    20  C   -0.218346
    21  H    0.221875
    22  H    0.219090
    23  H    0.272561
    24  H    0.274339
    25  H    0.220409
    26  N    0.490396
    27  O   -0.464608
    28  O   -0.453279
 Sum of Mulliken charges =  -0.00000

 Dipole moment (field-independent basis, Debye):
    X=              2.6059    Y=              5.5439    Z=             -2.2123  Tot=              6.5131
 Quadrupole moment (field-independent basis, Debye-Ang):
   XX=            -62.6398   YY=           -103.8095   ZZ=           -105.2515
   XY=            -10.2531   XZ=             -7.6022   YZ=              0.4141

 Normal termination of Gaussian 16 at Wed May  5 16:24:06 2021.
