 Gaussian 16, Revision A.03,
 Gaussian 16:  EM64L-G16RevA.03 25-Dec-2016

 -------------
 #p 6-31g* mp2
 -------------

 ------------------------------------------------------
 Input file generated by CHIRIPA (05-May-2021 14:53:14)
 ------------------------------------------------------
 Symbolic Z-matrix:
 Charge =  0 Multiplicity = 1

                         Standard orientation:
 ---------------------------------------------------------------------
 Center     Atomic      Atomic             Coordinates (Angstroms)
 Number     Number       Type             X           Y           Z
 ---------------------------------------------------------------------
      1          6           0        2.313820    1.006258    0.134303
      2          6           0        1.934572    2.310175   -0.568517
      3          6           0        1.270067    3.316671    0.371267
      4          1           0        1.412262    0.558918    0.574787
      5          1           0        2.991024    1.231703    0.969746
      6          1           0        1.259382    2.082196   -1.403239
      7          1           0        2.837106    2.754365   -1.007542
      8          1           0        1.940805    3.573079    1.197685
      9          1           0        0.354117    2.897091    0.799740
     10          1           0        1.007268    4.241439   -0.151801
     11          6           0        2.979139   -0.010001   -0.792139
     12          6           0        3.358387   -1.313918   -0.089319
     13          6           0        4.022892   -2.320413   -1.029103
     14          1           0        2.301934   -0.235446   -1.627582
     15          1           0        3.880697    0.437339   -1.232622
     16          1           0        2.455853   -1.758108    0.349706
     17          1           0        4.033577   -1.085939    0.745403
     18          1           0        4.938842   -1.900833   -1.457576
     19          1           0        3.352154   -2.576822   -1.855521
     20          1           0        4.285691   -3.245181   -0.506035
     21          6           0       -0.631268   -0.916733    2.263120
     22          6           0       -1.070404   -1.947726    1.426023
     23          6           0       -1.866637   -1.667074    0.311663
     24          6           0       -2.206418   -0.338159    0.063020
     25          6           0       -1.784525    0.710982    0.878249
     26          6           0       -0.989099    0.406997    1.987048
     27          1           0       -0.013049   -1.143813    3.126622
     28          1           0       -0.794056   -2.976682    1.637981
     29          1           0       -2.220393   -2.445877   -0.352972
     30          1           0       -2.076313    1.726903    0.641216
     31          1           0       -0.649505    1.209709    2.635411
     32          7           0       -3.048926   -0.028695   -1.113760
     33          8           0       -3.334505    1.150350   -1.311083
     34          8           0       -3.407753   -0.971041   -1.816515
 ---------------------------------------------------------------------

 SCF Done:  E(RHF) =  -669.534262335     A.U. after   15 cycles
 E2 =    -0.2095092859D+01 EUMP2 =    -0.67162935519370D+03

 The electronic state is 1-A.
 Alpha  occ. eigenvalues --  -20.60884 -20.60879 -15.85939 -11.31355 -11.27920
 Alpha  occ. eigenvalues --  -11.27897 -11.27642 -11.26955 -11.26894 -11.21918
 Alpha  occ. eigenvalues --  -11.21803 -11.21568 -11.21506 -11.21450 -11.21345
 Alpha  occ. eigenvalues --   -1.59959  -1.39510  -1.19540  -1.08927  -1.08646
 Alpha  occ. eigenvalues --   -1.04952  -1.03812  -0.96272  -0.95736  -0.87295
 Alpha  occ. eigenvalues --   -0.86326  -0.82573  -0.79883  -0.78489  -0.77605
 Alpha  occ. eigenvalues --   -0.72154  -0.71285  -0.70616  -0.65329  -0.65172
 Alpha  occ. eigenvalues --   -0.64921  -0.62328  -0.61198  -0.59629  -0.57883
 Alpha  occ. eigenvalues --   -0.55597  -0.55392  -0.53367  -0.53022  -0.52951
 Alpha  occ. eigenvalues --   -0.52695  -0.50228  -0.48918  -0.48907  -0.48208
 Alpha  occ. eigenvalues --   -0.46917  -0.46009  -0.45905  -0.44903  -0.44030
 Alpha  occ. eigenvalues --   -0.37444  -0.36437
 Alpha virt. eigenvalues --    0.04878   0.11007   0.16242   0.20547   0.22863
 Alpha virt. eigenvalues --    0.23817   0.26000   0.26596   0.27271   0.28088
 Alpha virt. eigenvalues --    0.28671   0.30593   0.31400   0.31547   0.32033

 Mulliken charges:
               1
     1  C   -0.309791
     2  C   -0.299294
     3  C   -0.477471
     4  H    0.161715
     5  H    0.144021
     6  H    0.156637
     7  H    0.153199
     8  H    0.153332
     9  H    0.145567
    10  H    0.164941
    11  C   -0.297211
    12  C   -0.300376
    13  C   -0.475867
    14  H    0.152123
    15  H    0.149958
    16  H    0.147840
    17  H    0.149715
    18  H    0.156737
    19  H    0.156887
    20  H    0.158387
    21  C   -0.170118
    22  C   -0.218151
    23  C   -0.171465
    24  C    0.158257
    25  C   -0.169837
    26  C   -0.220991
    27  H    0.227675
    28  H    0.224803
    29  H    0.276379
    30  H    0.277230
    31  H    0.226784
    32  N    0.488037
    33  O   -0.459687
    34  O   -0.459966
 Sum of Mulliken charges =  -0.00000

 Dipole moment (field-independent basis, Debye):
    X=              2.8520    Y=             -1.1288    Z=              4.1106  Tot=              5.1289
 Quadrupole moment (field-independent basis, Debye-Ang):
   XX=           -108.3258   YY=            -89.9449   ZZ=            -94.6761
   XY=              2.4235   XZ=             -8.7026   YZ=             -0.7578

 Normal termination of Gaussian 16 at Thu May  6 07:24:49 2021.
