 Gaussian 16, Revision A.03,
 Gaussian 16:  EM64L-G16RevA.03 25-Dec-2016

 -------------
 #p 6-31g* mp2
 -------------

 ------------------------------------------------------
 Input file generated by CHIRIPA (05-May-2021 14:55:21)
 ------------------------------------------------------
 Symbolic Z-matrix:
 Charge =  0 Multiplicity = 1

                         Standard orientation:
 ---------------------------------------------------------------------
 Center     Atomic      Atomic             Coordinates (Angstroms)
 Number     Number       Type             X           Y           Z
 ---------------------------------------------------------------------
      1          6           0        1.856772    1.597722    0.439485
      2          6           0        3.099206    2.229798    0.323903
      3          6           0        4.252359    1.485617    0.057480
      4          6           0        4.126049    0.104995   -0.088186
      5          6           0        2.902416   -0.553809    0.021306
      6          6           0        1.762508    0.210382    0.288085
      7          1           0        0.966119    2.183592    0.646587
      8          1           0        3.175408    3.307075    0.441004
      9          1           0        5.226770    1.949315   -0.036998
     10          1           0        2.858023   -1.629271   -0.100472
     11          1           0        0.798934   -0.283183    0.377323
     12          7           0        5.339829   -0.693427   -0.370425
     13          8           0        5.201897   -1.908424   -0.494497
     14          8           0        6.406139   -0.089116   -0.462227
     15          6           0       -4.292174   -0.183647    0.231599
     16          6           0       -3.512906   -1.474042    0.487741
     17          6           0       -2.047814   -1.219197    0.843205
     18          1           0       -3.807858    0.374425   -0.581383
     19          1           0       -4.236158    0.453751    1.124897
     20          1           0       -3.571534   -2.109416   -0.405275
     21          1           0       -3.999243   -2.029198    1.300078
     22          1           0       -1.971716   -0.605732    1.746793
     23          1           0       -1.541576   -0.686406    0.031751
     24          1           0       -1.509477   -2.155145    1.022247
     25          6           0       -5.758394   -0.422011   -0.124923
     26          6           0       -6.537662    0.868384   -0.381065
     27          6           0       -8.002754    0.613539   -0.736529
     28          1           0       -5.814410   -1.059409   -1.018221
     29          1           0       -6.242710   -0.980083    0.688058
     30          1           0       -6.051324    1.423541   -1.193402
     31          1           0       -6.479034    1.503758    0.511951
     32          1           0       -8.508992    0.080748    0.074925
     33          1           0       -8.078851    0.000075   -1.640117
     34          1           0       -8.541090    1.549487   -0.915571
 ---------------------------------------------------------------------

 SCF Done:  E(RHF) =  -669.535619083     A.U. after   15 cycles
 E2 =    -0.2090843896D+01 EUMP2 =    -0.67162646297935D+03

 The electronic state is 1-A.
 Alpha  occ. eigenvalues --  -20.60696 -20.60691 -15.85747 -11.31093 -11.27662
 Alpha  occ. eigenvalues --  -11.27640 -11.27387 -11.26680 -11.26589 -11.22472
 Alpha  occ. eigenvalues --  -11.22290 -11.22139 -11.22113 -11.21956 -11.21488
 Alpha  occ. eigenvalues --   -1.59771  -1.39326  -1.19258  -1.09129  -1.08658
 Alpha  occ. eigenvalues --   -1.04657  -1.04263  -0.96745  -0.95498  -0.87781
 Alpha  occ. eigenvalues --   -0.86052  -0.82329  -0.80348  -0.78911  -0.77377
 Alpha  occ. eigenvalues --   -0.71966  -0.71094  -0.70371  -0.65758  -0.64908
 Alpha  occ. eigenvalues --   -0.64671  -0.62048  -0.61626  -0.60117  -0.58326
 Alpha  occ. eigenvalues --   -0.56047  -0.55160  -0.53494  -0.53230  -0.52991
 Alpha  occ. eigenvalues --   -0.52631  -0.50670  -0.48752  -0.48723  -0.48612
 Alpha  occ. eigenvalues --   -0.47347  -0.46461  -0.46357  -0.44735  -0.44501
 Alpha  occ. eigenvalues --   -0.37243  -0.36259
 Alpha virt. eigenvalues --    0.05149   0.11368   0.16642   0.20588   0.22277
 Alpha virt. eigenvalues --    0.23720   0.25473   0.26058   0.26922   0.28214
 Alpha virt. eigenvalues --    0.28833   0.30275   0.30797   0.30970   0.31860

 Mulliken charges:
               1
     1  C   -0.173923
     2  C   -0.218438
     3  C   -0.171580
     4  C    0.159028
     5  C   -0.173684
     6  C   -0.228735
     7  H    0.225453
     8  H    0.222890
     9  H    0.275166
    10  H    0.275694
    11  H    0.240387
    12  N    0.488028
    13  O   -0.460634
    14  O   -0.460814
    15  C   -0.299234
    16  C   -0.299430
    17  C   -0.483247
    18  H    0.148831
    19  H    0.149202
    20  H    0.155524
    21  H    0.155990
    22  H    0.156538
    23  H    0.148618
    24  H    0.163602
    25  C   -0.298919
    26  C   -0.300064
    27  C   -0.476083
    28  H    0.151172
    29  H    0.151210
    30  H    0.151937
    31  H    0.151905
    32  H    0.156044
    33  H    0.156160
    34  H    0.161405
 Sum of Mulliken charges =  -0.00000

 Dipole moment (field-independent basis, Debye):
    X=             -4.5546    Y=              2.7615    Z=              1.0085  Tot=              5.4210
 Quadrupole moment (field-independent basis, Debye-Ang):
   XX=           -129.3235   YY=            -90.7728   ZZ=            -94.8999
   XY=             14.0217   XZ=              4.0032   YZ=             -0.0488

 Normal termination of Gaussian 16 at Thu May  6 03:01:34 2021.
