 Gaussian 16, Revision A.03,
 Gaussian 16:  EM64L-G16RevA.03 25-Dec-2016

 -------------
 #p 6-31g* mp2
 -------------

 ------------------------------------------------------
 Input file generated by CHIRIPA (05-May-2021 14:57:26)
 ------------------------------------------------------
 Symbolic Z-matrix:
 Charge =  0 Multiplicity = 1

                         Standard orientation:
 ---------------------------------------------------------------------
 Center     Atomic      Atomic             Coordinates (Angstroms)
 Number     Number       Type             X           Y           Z
 ---------------------------------------------------------------------
      1          6           0        1.223628   -0.161501    0.385232
      2          6           0        1.994055   -1.221849    0.873724
      3          6           0        3.376906   -1.247676    0.669751
      4          6           0        3.959106   -0.191974   -0.030126
      5          6           0        3.218549    0.878463   -0.529154
      6          6           0        1.837252    0.883429   -0.313417
      7          1           0        0.150000   -0.149541    0.548252
      8          1           0        1.520205   -2.034706    1.416655
      9          1           0        3.997203   -2.056221    1.037045
     10          1           0        3.719333    1.674519   -1.066674
     11          1           0        1.241429    1.708202   -0.693927
     12          7           0        5.422246   -0.208274   -0.252291
     13          8           0        5.911165    0.733823   -0.872006
     14          8           0        6.052430   -1.162839    0.197499
     15          6           0       -1.885894    1.746583    0.757893
     16          6           0       -2.037509    1.458550   -0.602463
     17          6           0       -3.049097    0.597104   -1.037375
     18          6           0       -3.895080    0.038735   -0.080387
     19          6           0       -3.769509    0.306206    1.281957
     20          6           0       -2.750853    1.170507    1.694111
     21          1           0       -1.097323    2.416884    1.086903
     22          1           0       -1.367232    1.904496   -1.331782
     23          1           0       -3.188962    0.356910   -2.084353
     24          1           0       -4.453070   -0.153528    1.985382
     25          1           0       -2.635463    1.392394    2.751228
     26          7           0       -4.969745   -0.874751   -0.528762
     27          8           0       -5.702060   -1.353848    0.334266
     28          8           0       -5.059403   -1.094348   -1.734738
 ---------------------------------------------------------------------

 SCF Done:  E(RHF) =  -868.336137786     A.U. after   16 cycles
 E2 =    -0.2602228941D+01 EUMP2 =    -0.87093836672653D+03

 The electronic state is 1-A.
 Alpha  occ. eigenvalues --  -20.61672 -20.61667 -20.61126 -20.61118 -15.86735
 Alpha  occ. eigenvalues --  -15.86186 -11.32359 -11.31617 -11.28962 -11.28934
 Alpha  occ. eigenvalues --  -11.28767 -11.28282 -11.28190 -11.28079 -11.27996
 Alpha  occ. eigenvalues --  -11.27819 -11.27348 -11.27149  -1.60743  -1.60200
 Alpha  occ. eigenvalues --   -1.40288  -1.39752  -1.20593  -1.19812  -1.09965
 Alpha  occ. eigenvalues --   -1.09173  -1.06005  -1.05246  -0.96731  -0.95989
 Alpha  occ. eigenvalues --   -0.87409  -0.86631  -0.83527  -0.82844  -0.78520
 Alpha  occ. eigenvalues --   -0.77894  -0.72946  -0.72401  -0.72074  -0.71708
 Alpha  occ. eigenvalues --   -0.71527  -0.70869  -0.66238  -0.66070  -0.65453
 Alpha  occ. eigenvalues --   -0.65225  -0.63317  -0.62582  -0.56515  -0.55970
 Alpha  occ. eigenvalues --   -0.54100  -0.54046  -0.53550  -0.53331  -0.49725
 Alpha  occ. eigenvalues --   -0.49684  -0.49166  -0.49150  -0.45635  -0.45142
 Alpha  occ. eigenvalues --   -0.38595  -0.37844  -0.37542  -0.36865
 Alpha virt. eigenvalues --    0.03940   0.04709   0.09904   0.10739   0.15314
 Alpha virt. eigenvalues --    0.16226   0.18584   0.21959   0.24594   0.26878
 Alpha virt. eigenvalues --    0.27953   0.29085   0.29603   0.30583   0.31799

 Mulliken charges:
               1
     1  C   -0.177474
     2  C   -0.220318
     3  C   -0.169353
     4  C    0.157944
     5  C   -0.169712
     6  C   -0.225734
     7  H    0.238626
     8  H    0.225792
     9  H    0.277221
    10  H    0.275783
    11  H    0.211126
    12  N    0.488081
    13  O   -0.460312
    14  O   -0.458918
    15  C   -0.185315
    16  C   -0.225060
    17  C   -0.168854
    18  C    0.158953
    19  C   -0.170668
    20  C   -0.218626
    21  H    0.229889
    22  H    0.224398
    23  H    0.280398
    24  H    0.279794
    25  H    0.228712
    26  N    0.487873
    27  O   -0.457306
    28  O   -0.456939
 Sum of Mulliken charges =  -0.00000

 Dipole moment (field-independent basis, Debye):
    X=             -1.6852    Y=              3.1303    Z=              2.4175  Tot=              4.2992
 Quadrupole moment (field-independent basis, Debye-Ang):
   XX=           -174.4642   YY=           -101.6367   ZZ=            -99.8283
   XY=            -11.5017   XZ=             -4.6338   YZ=             -3.4081

 Normal termination of Gaussian 16 at Thu May  6 09:56:56 2021.
