 Gaussian 16, Revision A.03,
 Gaussian 16:  EM64L-G16RevA.03 25-Dec-2016

 -------------
 #p 6-31g* mp2
 -------------

 ------------------------------------------------------
 Input file generated by CHIRIPA (05-May-2021 14:57:24)
 ------------------------------------------------------
 Symbolic Z-matrix:
 Charge =  0 Multiplicity = 1

                         Standard orientation:
 ---------------------------------------------------------------------
 Center     Atomic      Atomic             Coordinates (Angstroms)
 Number     Number       Type             X           Y           Z
 ---------------------------------------------------------------------
      1          6           0       -3.975922    0.934412   -0.367739
      2          6           0       -3.562906    0.532054    0.906642
      3          6           0       -2.526042   -0.393499    1.057686
      4          6           0       -1.921610   -0.898697   -0.092413
      5          6           0       -2.310554   -0.517484   -1.375647
      6          6           0       -3.349533    0.409284   -1.502815
      7          1           0       -4.782205    1.653875   -0.475799
      8          1           0       -4.047550    0.938210    1.789933
      9          1           0       -2.186397   -0.722344    2.032324
     10          1           0       -1.808281   -0.939902   -2.237449
     11          1           0       -3.668201    0.719942   -2.493768
     12          7           0       -0.822810   -1.879181    0.054851
     13          8           0       -0.306478   -2.309453   -0.974180
     14          8           0       -0.498707   -2.198849    1.196520
     15          6           0        0.221047    2.333944    0.641445
     16          6           0        0.594702    1.361482    1.574837
     17          6           0        1.635832    0.471449    1.294766
     18          6           0        2.284618    0.582725    0.065953
     19          6           0        1.935552    1.540813   -0.884579
     20          6           0        0.891482    2.420354   -0.583125
     21          1           0       -0.588869    3.021269    0.867317
     22          1           0        0.075808    1.292047    2.526663
     23          1           0        1.945589   -0.290928    1.999216
     24          1           0        2.471508    1.585487   -1.824883
     25          1           0        0.603443    3.174581   -1.309912
     26          7           0        3.388371   -0.353960   -0.241864
     27          8           0        3.944168   -0.235205   -1.331646
     28          8           0        3.676796   -1.189152    0.612479
 ---------------------------------------------------------------------

 SCF Done:  E(RHF) =  -868.336522804     A.U. after   16 cycles
 E2 =    -0.2605246927D+01 EUMP2 =    -0.87094176973131D+03

 The electronic state is 1-A.
 Alpha  occ. eigenvalues --  -20.61124 -20.61088 -20.60020 -20.59970 -15.86133
 Alpha  occ. eigenvalues --  -15.85069 -11.31614 -11.30682 -11.28285 -11.28201
 Alpha  occ. eigenvalues --  -11.28032 -11.27367 -11.27323 -11.27258 -11.27230
 Alpha  occ. eigenvalues --  -11.27201 -11.26439 -11.26397  -1.60157  -1.59059
 Alpha  occ. eigenvalues --   -1.39717  -1.38608  -1.19835  -1.18933  -1.09204
 Alpha  occ. eigenvalues --   -1.08281  -1.05278  -1.04373  -0.96019  -0.95059
 Alpha  occ. eigenvalues --   -0.86666  -0.85753  -0.82863  -0.81895  -0.77888
 Alpha  occ. eigenvalues --   -0.76872  -0.72371  -0.71533  -0.71292  -0.70966
 Alpha  occ. eigenvalues --   -0.70344  -0.70026  -0.65498  -0.65291  -0.64575
 Alpha  occ. eigenvalues --   -0.64396  -0.62628  -0.61687  -0.55778  -0.54908
 Alpha  occ. eigenvalues --   -0.53800  -0.53375  -0.52504  -0.52447  -0.49131
 Alpha  occ. eigenvalues --   -0.49112  -0.48076  -0.48016  -0.45130  -0.43959
 Alpha  occ. eigenvalues --   -0.37974  -0.37168  -0.36669  -0.35747
 Alpha virt. eigenvalues --    0.04649   0.05694   0.10455   0.11967   0.16089
 Alpha virt. eigenvalues --    0.17084   0.20541   0.21809   0.26096   0.27281
 Alpha virt. eigenvalues --    0.28427   0.28693   0.30346   0.31053   0.32503

 Mulliken charges:
               1
     1  C   -0.172971
     2  C   -0.223201
     3  C   -0.171236
     4  C    0.166100
     5  C   -0.169161
     6  C   -0.219947
     7  H    0.225521
     8  H    0.221749
     9  H    0.271666
    10  H    0.278120
    11  H    0.224203
    12  N    0.487978
    13  O   -0.454370
    14  O   -0.462239
    15  C   -0.167123
    16  C   -0.224717
    17  C   -0.165900
    18  C    0.158018
    19  C   -0.170759
    20  C   -0.221417
    21  H    0.219907
    22  H    0.217788
    23  H    0.284931
    24  H    0.274769
    25  H    0.218878
    26  N    0.490903
    27  O   -0.463641
    28  O   -0.453849
 Sum of Mulliken charges =  -0.00000

 Dipole moment (field-independent basis, Debye):
    X=             -7.6064    Y=              6.4105    Z=              0.5044  Tot=              9.9602
 Quadrupole moment (field-independent basis, Debye-Ang):
   XX=           -109.0798   YY=           -107.8845   ZZ=            -95.8208
   XY=              2.0694   XZ=              2.9454   YZ=             -0.9672

 Normal termination of Gaussian 16 at Fri May  7 11:06:01 2021.
