 Gaussian 16, Revision A.03,
 Gaussian 16:  EM64L-G16RevA.03 25-Dec-2016

 -------------
 #p 6-31g* mp2
 -------------

 ------------------------------------------------------
 Input file generated by CHIRIPA (05-May-2021 14:53:15)
 ------------------------------------------------------
 Symbolic Z-matrix:
 Charge =  0 Multiplicity = 1

                         Standard orientation:
 ---------------------------------------------------------------------
 Center     Atomic      Atomic             Coordinates (Angstroms)
 Number     Number       Type             X           Y           Z
 ---------------------------------------------------------------------
      1          6           0       -3.732638   -0.002739   -0.299638
      2          6           0       -5.250561    0.181127   -0.308936
      3          6           0       -5.717552    1.188771   -1.359825
      4          1           0       -3.253123    0.968652   -0.116855
      5          1           0       -3.403957   -0.331125   -1.295393
      6          1           0       -5.576444    0.507736    0.686927
      7          1           0       -5.726523   -0.790848   -0.491528
      8          1           0       -5.420654    0.865055   -2.362651
      9          1           0       -5.269722    2.171018   -1.177501
     10          1           0       -6.805799    1.304799   -1.349089
     11          6           0       -3.250440   -1.007042    0.745631
     12          6           0       -1.732516   -1.190909    0.754929
     13          6           0       -1.265526   -2.198553    1.805818
     14          1           0       -3.579120   -0.678656    1.741386
     15          1           0       -3.729955   -1.978433    0.562848
     16          1           0       -1.256554   -0.218933    0.937521
     17          1           0       -1.406634   -1.517517   -0.240934
     18          1           0       -1.713355   -3.180799    1.623493
     19          1           0       -1.562423   -1.874837    2.808644
     20          1           0       -0.177278   -2.314581    1.795082
     21          6           0        4.090468   -1.517268   -1.098505
     22          6           0        2.745098   -1.379717   -1.455692
     23          6           0        1.980459   -0.324357   -0.949637
     24          6           0        2.596024    0.579264   -0.084859
     25          6           0        3.934235    0.469093    0.289764
     26          6           0        4.679703   -0.594052   -0.228451
     27          1           0        4.677012   -2.340122   -1.496344
     28          1           0        2.284855   -2.095201   -2.131195
     29          1           0        0.936967   -0.194155   -1.209615
     30          1           0        4.365259    1.198113    0.965164
     31          1           0        5.724330   -0.698391    0.050679
     32          7           0        1.796682    1.700647    0.457315
     33          8           0        2.362439    2.483406    1.217476
     34          8           0        0.619537    1.775594    0.111845
 ---------------------------------------------------------------------

 SCF Done:  E(RHF) =  -669.536324465     A.U. after   15 cycles
 E2 =    -0.2091880770D+01 EUMP2 =    -0.67162820523515D+03

 The electronic state is 1-A.
 Alpha  occ. eigenvalues --  -20.60923 -20.60914 -15.85945 -11.31240 -11.27810
 Alpha  occ. eigenvalues --  -11.27781 -11.27546 -11.26814 -11.26800 -11.21183
 Alpha  occ. eigenvalues --  -11.21143 -11.20964 -11.20851 -11.20822 -11.20671
 Alpha  occ. eigenvalues --   -1.59979  -1.39535  -1.19411  -1.08822  -1.07992
 Alpha  occ. eigenvalues --   -1.04803  -1.03142  -0.95669  -0.95597  -0.86616
 Alpha  occ. eigenvalues --   -0.86204  -0.82502  -0.79212  -0.77841  -0.77503
 Alpha  occ. eigenvalues --   -0.72171  -0.71288  -0.70519  -0.65072  -0.64808
 Alpha  occ. eigenvalues --   -0.64610  -0.62153  -0.60534  -0.58972  -0.57213
 Alpha  occ. eigenvalues --   -0.55312  -0.54883  -0.53137  -0.52896  -0.52311
 Alpha  occ. eigenvalues --   -0.52023  -0.49541  -0.48946  -0.48926  -0.47522
 Alpha  occ. eigenvalues --   -0.46251  -0.45413  -0.45318  -0.44709  -0.43382
 Alpha  occ. eigenvalues --   -0.37392  -0.36399
 Alpha virt. eigenvalues --    0.04932   0.11215   0.16398   0.21016   0.23297
 Alpha virt. eigenvalues --    0.24469   0.26033   0.27362   0.27681   0.28300
 Alpha virt. eigenvalues --    0.29109   0.30873   0.31570   0.31904   0.32171

 Mulliken charges:
               1
     1  C   -0.300057
     2  C   -0.299389
     3  C   -0.475661
     4  H    0.161204
     5  H    0.144347
     6  H    0.152373
     7  H    0.149228
     8  H    0.153272
     9  H    0.158147
    10  H    0.158654
    11  C   -0.297288
    12  C   -0.310791
    13  C   -0.475517
    14  H    0.150885
    15  H    0.145668
    16  H    0.176873
    17  H    0.138232
    18  H    0.151809
    19  H    0.157447
    20  H    0.156280
    21  C   -0.170467
    22  C   -0.219496
    23  C   -0.171773
    24  C    0.157296
    25  C   -0.170742
    26  C   -0.218713
    27  H    0.225841
    28  H    0.223778
    29  H    0.280279
    30  H    0.275571
    31  H    0.223619
    32  N    0.488384
    33  O   -0.459070
    34  O   -0.460222
 Sum of Mulliken charges =  -0.00000

 Dipole moment (field-independent basis, Debye):
    X=              2.9263    Y=             -3.7511    Z=             -1.8542  Tot=              5.1061
 Quadrupole moment (field-independent basis, Debye-Ang):
   XX=            -77.6536   YY=            -99.6902   ZZ=            -93.8275
   XY=             -7.3244   XZ=             -3.4577   YZ=              1.4176

 Normal termination of Gaussian 16 at Thu May  6 02:42:30 2021.
