 Gaussian 16, Revision A.03,
 Gaussian 16:  EM64L-G16RevA.03 25-Dec-2016

 -------------
 #p 6-31g* mp2
 -------------

 ------------------------------------------------------
 Input file generated by CHIRIPA (05-May-2021 14:51:12)
 ------------------------------------------------------
 Symbolic Z-matrix:
 Charge =  0 Multiplicity = 1

                         Standard orientation:
 ---------------------------------------------------------------------
 Center     Atomic      Atomic             Coordinates (Angstroms)
 Number     Number       Type             X           Y           Z
 ---------------------------------------------------------------------
      1          6           0        3.587041    0.209752   -0.522134
      2          6           0        3.318843    1.713916   -0.581691
      3          6           0        1.924055    2.045099   -1.113368
      4          1           0        3.464837   -0.218099   -1.526601
      5          1           0        2.828384   -0.265979    0.114666
      6          1           0        4.078600    2.186858   -1.217073
      7          1           0        3.441887    2.138268    0.422998
      8          1           0        1.153135    1.599887   -0.476133
      9          1           0        1.793466    1.648752   -2.125523
     10          1           0        1.753564    3.125666   -1.147543
     11          6           0        4.977363   -0.137217    0.007342
     12          6           0        5.245562   -1.641381    0.066899
     13          6           0        6.640350   -1.972564    0.598576
     14          1           0        5.736021    0.338514   -0.629458
     15          1           0        5.099567    0.290634    1.011809
     16          1           0        5.122518   -2.065733   -0.937790
     17          1           0        4.485805   -2.114323    0.702282
     18          1           0        6.770939   -1.576217    1.610731
     19          1           0        7.411270   -1.527352   -0.038659
     20          1           0        6.810840   -3.053131    0.632751
     21          6           0       -3.546021   -0.009133    0.459217
     22          6           0       -3.082946    1.386854    0.877269
     23          6           0       -1.607959    1.425005    1.278207
     24          1           0       -3.371420   -0.709698    1.287267
     25          1           0       -2.927851   -0.356874   -0.380031
     26          1           0       -3.702712    1.732428    1.714578
     27          1           0       -3.258846    2.084216    0.048196
     28          1           0       -0.973846    1.105411    0.444923
     29          1           0       -1.420233    0.751623    2.120773
     30          1           0       -1.298092    2.432330    1.573400
     31          6           0       -5.018385   -0.063402    0.055575
     32          6           0       -5.481458   -1.459389   -0.362477
     33          6           0       -6.956446   -1.497540   -0.763415
     34          1           0       -5.636555    0.284339    0.894823
     35          1           0       -5.192985    0.637164   -0.772475
     36          1           0       -5.305559   -2.156751    0.466595
     37          1           0       -4.861694   -1.804962   -1.199786
     38          1           0       -7.144172   -0.824158   -1.605981
     39          1           0       -7.590558   -1.177946    0.069868
     40          1           0       -7.266313   -2.504864   -1.058607
 ---------------------------------------------------------------------

 SCF Done:  E(RHF) =  -470.733254458     A.U. after   11 cycles
 E2 =    -0.1582240742D+01 EUMP2 =    -0.47231549520024D+03

 The electronic state is 1-A.
 Alpha  occ. eigenvalues --  -11.21602 -11.21598 -11.21582 -11.21561 -11.21403
 Alpha  occ. eigenvalues --  -11.21377 -11.21344 -11.21318 -11.21075 -11.21068
 Alpha  occ. eigenvalues --  -11.21056 -11.21002  -1.08430  -1.08400  -1.03538
 Alpha  occ. eigenvalues --   -1.03492  -0.96005  -0.95929  -0.87042  -0.86929
 Alpha  occ. eigenvalues --   -0.79635  -0.79526  -0.78247  -0.78209  -0.65077
 Alpha  occ. eigenvalues --   -0.65016  -0.61022  -0.60820  -0.59350  -0.59313
 Alpha  occ. eigenvalues --   -0.57638  -0.57526  -0.55453  -0.55084  -0.52698
 Alpha  occ. eigenvalues --   -0.52630  -0.52501  -0.52285  -0.50121  -0.49697
 Alpha  occ. eigenvalues --   -0.47993  -0.47799  -0.46731  -0.46464  -0.45810
 Alpha  occ. eigenvalues --   -0.45748  -0.45713  -0.45614  -0.43785  -0.43753
 Alpha virt. eigenvalues --    0.22327   0.22978   0.23605   0.24691   0.25940
 Alpha virt. eigenvalues --    0.26773   0.27062   0.27614   0.27702   0.28908
 Alpha virt. eigenvalues --    0.30287   0.31691   0.31744   0.31944   0.32005

 Mulliken charges:
               1
     1  C   -0.298465
     2  C   -0.299017
     3  C   -0.482913
     4  H    0.149361
     5  H    0.149738
     6  H    0.151617
     7  H    0.152088
     8  H    0.162849
     9  H    0.154319
    10  H    0.160090
    11  C   -0.298278
    12  C   -0.299653
    13  C   -0.475692
    14  H    0.149446
    15  H    0.149710
    16  H    0.151841
    17  H    0.151986
    18  H    0.155179
    19  H    0.155135
    20  H    0.160180
    21  C   -0.298612
    22  C   -0.299259
    23  C   -0.481260
    24  H    0.149493
    25  H    0.149881
    26  H    0.151862
    27  H    0.152416
    28  H    0.160333
    29  H    0.154802
    30  H    0.160743
    31  C   -0.298322
    32  C   -0.299672
    33  C   -0.475711
    34  H    0.149499
    35  H    0.149771
    36  H    0.151889
    37  H    0.152004
    38  H    0.155215
    39  H    0.155161
    40  H    0.160247
 Sum of Mulliken charges =  -0.00000

 Dipole moment (field-independent basis, Debye):
    X=             -0.0199    Y=              0.0026    Z=              0.0080  Tot=              0.0216
 Quadrupole moment (field-independent basis, Debye-Ang):
   XX=            -86.7169   YY=            -84.9682   ZZ=            -83.1773
   XY=              0.2298   XZ=             -1.2537   YZ=             -0.1219

 Normal termination of Gaussian 16 at Thu May  6 07:06:22 2021.
