 Gaussian 16, Revision A.03,
 Gaussian 16:  EM64L-G16RevA.03 25-Dec-2016

 -------------
 #p 6-31g* mp2
 -------------

 ------------------------------------------------------
 Input file generated by CHIRIPA (05-May-2021 14:53:14)
 ------------------------------------------------------
 Symbolic Z-matrix:
 Charge =  0 Multiplicity = 1

                         Standard orientation:
 ---------------------------------------------------------------------
 Center     Atomic      Atomic             Coordinates (Angstroms)
 Number     Number       Type             X           Y           Z
 ---------------------------------------------------------------------
      1          6           0       -5.822274    0.140911    0.309080
      2          6           0       -7.025472   -0.718703   -0.079976
      3          6           0       -8.332904   -0.218585    0.535081
      4          1           0       -5.730991    0.158640    1.403748
      5          1           0       -6.003903    1.177717   -0.006260
      6          1           0       -6.841033   -1.753852    0.234769
      7          1           0       -7.113788   -0.734543   -1.173853
      8          1           0       -8.543833    0.805797    0.211426
      9          1           0       -8.269528   -0.219303    1.628051
     10          1           0       -9.179952   -0.847564    0.243954
     11          6           0       -4.507896   -0.346428   -0.298075
     12          6           0       -3.304698    0.513186    0.090982
     13          6           0       -1.997266    0.013068   -0.524076
     14          1           0       -4.326267   -1.383234    0.017265
     15          1           0       -4.599179   -0.364156   -1.392743
     16          1           0       -3.216382    0.529027    1.184858
     17          1           0       -3.489138    1.548335   -0.223764
     18          1           0       -2.060642    0.013787   -1.617046
     19          1           0       -1.786337   -1.011313   -0.200421
     20          1           0       -1.150218    0.642048   -0.232949
     21          6           0        5.917703   -1.565077    0.334806
     22          6           0        4.674777   -2.009153   -0.128286
     23          6           0        3.624583   -1.106409   -0.319835
     24          6           0        3.853231    0.239347   -0.037082
     25          6           0        5.080168    0.712563    0.425499
     26          6           0        6.116082   -0.208029    0.609735
     27          1           0        6.727972   -2.273282    0.480766
     28          1           0        4.517846   -3.062471   -0.342617
     29          1           0        2.652274   -1.423046   -0.677294
     30          1           0        5.206394    1.768707    0.630546
     31          1           0        7.080298    0.139693    0.969489
     32          7           0        2.748997    1.204489   -0.235996
     33          8           0        2.975943    2.384915    0.020377
     34          8           0        1.677460    0.762266   -0.644512
 ---------------------------------------------------------------------

 SCF Done:  E(RHF) =  -669.536026558     A.U. after   15 cycles
 E2 =    -0.2090580096D+01 EUMP2 =    -0.67162660665390D+03

 The electronic state is 1-A.
 Alpha  occ. eigenvalues --  -20.60898 -20.60890 -15.85932 -11.31259 -11.27826
 Alpha  occ. eigenvalues --  -11.27817 -11.27566 -11.26835 -11.26825 -11.21145
 Alpha  occ. eigenvalues --  -11.20801 -11.20689 -11.20662 -11.20595 -11.19680
 Alpha  occ. eigenvalues --   -1.59962  -1.39516  -1.19430  -1.08834  -1.07744
 Alpha  occ. eigenvalues --   -1.04827  -1.02764  -0.95677  -0.95187  -0.86232
 Alpha  occ. eigenvalues --   -0.86197  -0.82506  -0.78852  -0.77570  -0.77527
 Alpha  occ. eigenvalues --   -0.72157  -0.71277  -0.70538  -0.65085  -0.64830
 Alpha  occ. eigenvalues --   -0.64388  -0.62173  -0.60177  -0.58580  -0.56780
 Alpha  occ. eigenvalues --   -0.55333  -0.54503  -0.53160  -0.52919  -0.51814
 Alpha  occ. eigenvalues --   -0.51624  -0.49171  -0.48911  -0.48899  -0.47148
 Alpha  occ. eigenvalues --   -0.45922  -0.45078  -0.45013  -0.44925  -0.42964
 Alpha  occ. eigenvalues --   -0.37411  -0.36429
 Alpha virt. eigenvalues --    0.04960   0.11226   0.16446   0.21350   0.23499
 Alpha virt. eigenvalues --    0.25133   0.27238   0.27307   0.28094   0.28157
 Alpha virt. eigenvalues --    0.28936   0.30912   0.32074   0.32323   0.32561

 Mulliken charges:
               1
     1  C   -0.297582
     2  C   -0.298992
     3  C   -0.475309
     4  H    0.148491
     5  H    0.149371
     6  H    0.150485
     7  H    0.151269
     8  H    0.155034
     9  H    0.154497
    10  H    0.158619
    11  C   -0.297149
    12  C   -0.299881
    13  C   -0.482056
    14  H    0.146457
    15  H    0.148303
    16  H    0.148956
    17  H    0.151905
    18  H    0.151622
    19  H    0.145224
    20  H    0.187470
    21  C   -0.170630
    22  C   -0.218606
    23  C   -0.170916
    24  C    0.157683
    25  C   -0.170627
    26  C   -0.218630
    27  H    0.225855
    28  H    0.223782
    29  H    0.276507
    30  H    0.275749
    31  H    0.223663
    32  N    0.491527
    33  O   -0.459591
    34  O   -0.462500
 Sum of Mulliken charges =  -0.00000

 Dipole moment (field-independent basis, Debye):
    X=              4.2027    Y=             -3.3183    Z=              0.6900  Tot=              5.3991
 Quadrupole moment (field-independent basis, Debye-Ang):
   XX=            -65.5635   YY=            -93.6214   ZZ=            -94.7217
   XY=             -9.9538   XZ=              4.2547   YZ=              1.0051

 Normal termination of Gaussian 16 at Wed May  5 17:07:32 2021.
