 Gaussian 16, Revision A.03,
 Gaussian 16:  EM64L-G16RevA.03 25-Dec-2016

 -------------
 #p 6-31g* mp2
 -------------

 ------------------------------------------------------
 Input file generated by CHIRIPA (05-May-2021 14:55:19)
 ------------------------------------------------------
 Symbolic Z-matrix:
 Charge =  0 Multiplicity = 1

                         Standard orientation:
 ---------------------------------------------------------------------
 Center     Atomic      Atomic             Coordinates (Angstroms)
 Number     Number       Type             X           Y           Z
 ---------------------------------------------------------------------
      1          6           0        2.548844    1.535023    1.549993
      2          6           0        3.251100    1.245995    0.375335
      3          6           0        2.952378    0.099310   -0.366571
      4          6           0        1.940808   -0.740181    0.097401
      5          6           0        1.223257   -0.479483    1.263783
      6          6           0        1.538945    0.672882    1.989693
      7          1           0        2.787488    2.428002    2.120111
      8          1           0        4.035899    1.913744    0.031465
      9          1           0        3.480268   -0.148506   -1.279445
     10          1           0        0.446176   -1.164114    1.581341
     11          1           0        0.991910    0.894823    2.901581
     12          7           0        1.615584   -1.957132   -0.679555
     13          8           0        0.719960   -2.680695   -0.249494
     14          8           0        2.262455   -2.164372   -1.703882
     15          6           0       -2.704074    0.026528    0.057008
     16          6           0       -4.200010   -0.256139    0.199335
     17          6           0       -4.486537   -1.588447    0.892623
     18          1           0       -2.235093   -0.790715   -0.507897
     19          1           0       -2.241033    0.023628    1.053491
     20          1           0       -4.660338   -0.251336   -0.797004
     21          1           0       -4.665517    0.561968    0.763801
     22          1           0       -4.053799   -1.600347    1.898206
     23          1           0       -4.048590   -2.418270    0.328533
     24          1           0       -5.561907   -1.770422    0.983877
     25          6           0       -2.401613    1.354881   -0.634167
     26          6           0       -0.905675    1.637548   -0.776494
     27          6           0       -0.619148    2.969857   -1.469781
     28          1           0       -2.864653    1.357781   -1.630650
     29          1           0       -2.870593    2.172125   -0.069263
     30          1           0       -0.440168    0.819442   -1.340960
     31          1           0       -0.445347    1.632745    0.219845
     32          1           0       -1.057095    3.799679   -0.905692
     33          1           0       -1.051887    2.981756   -2.475364
     34          1           0        0.456221    3.151831   -1.561036
 ---------------------------------------------------------------------

 SCF Done:  E(RHF) =  -669.534059951     A.U. after   15 cycles
 E2 =    -0.2095355279D+01 EUMP2 =    -0.67162941523034D+03

 The electronic state is 1-A.
 Alpha  occ. eigenvalues --  -20.60846 -20.60839 -15.85887 -11.31202 -11.27834
 Alpha  occ. eigenvalues --  -11.27770 -11.27575 -11.26845 -11.26787 -11.21472
 Alpha  occ. eigenvalues --  -11.21421 -11.21312 -11.21252 -11.21107 -11.20865
 Alpha  occ. eigenvalues --   -1.59914  -1.39468  -1.19425  -1.08821  -1.08340
 Alpha  occ. eigenvalues --   -1.04834  -1.03429  -0.95893  -0.95653  -0.86910
 Alpha  occ. eigenvalues --   -0.86223  -0.82490  -0.79516  -0.78185  -0.77523
 Alpha  occ. eigenvalues --   -0.72108  -0.71233  -0.70531  -0.65096  -0.64965
 Alpha  occ. eigenvalues --   -0.64829  -0.62173  -0.60848  -0.59306  -0.57526
 Alpha  occ. eigenvalues --   -0.55334  -0.55183  -0.53286  -0.52922  -0.52526
 Alpha  occ. eigenvalues --   -0.52290  -0.49837  -0.48867  -0.48864  -0.47762
 Alpha  occ. eigenvalues --   -0.46561  -0.45683  -0.45647  -0.44834  -0.43690
 Alpha  occ. eigenvalues --   -0.37360  -0.36290
 Alpha virt. eigenvalues --    0.04972   0.11128   0.16400   0.20977   0.23001
 Alpha virt. eigenvalues --    0.24238   0.25955   0.26765   0.27779   0.27958
 Alpha virt. eigenvalues --    0.29118   0.30839   0.31558   0.31665   0.31985

 Mulliken charges:
               1
     1  C   -0.168619
     2  C   -0.218500
     3  C   -0.171374
     4  C    0.162327
     5  C   -0.166847
     6  C   -0.222467
     7  H    0.226120
     8  H    0.223853
     9  H    0.275892
    10  H    0.277300
    11  H    0.223532
    12  N    0.487629
    13  O   -0.460464
    14  O   -0.460397
    15  C   -0.301264
    16  C   -0.299401
    17  C   -0.476159
    18  H    0.162028
    19  H    0.138429
    20  H    0.153581
    21  H    0.149209
    22  H    0.151323
    23  H    0.162118
    24  H    0.159546
    25  C   -0.297306
    26  C   -0.304832
    27  C   -0.474790
    28  H    0.150874
    29  H    0.146232
    30  H    0.151635
    31  H    0.155985
    32  H    0.151964
    33  H    0.156367
    34  H    0.156478
 Sum of Mulliken charges =  -0.00000

 Dipole moment (field-independent basis, Debye):
    X=              1.2316    Y=              4.1502    Z=              2.7086  Tot=              5.1066
 Quadrupole moment (field-independent basis, Debye-Ang):
   XX=            -88.3450   YY=           -102.4169   ZZ=            -91.8835
   XY=              8.5643   XZ=              3.2170   YZ=             -1.4254

 Normal termination of Gaussian 16 at Wed May  5 23:43:49 2021.
