 Gaussian 16, Revision A.03,
 Gaussian 16:  EM64L-G16RevA.03 25-Dec-2016

 -------------
 #p 6-31g* mp2
 -------------

 ------------------------------------------------------
 Input file generated by CHIRIPA (05-May-2021 14:53:14)
 ------------------------------------------------------
 Symbolic Z-matrix:
 Charge =  0 Multiplicity = 1

                         Standard orientation:
 ---------------------------------------------------------------------
 Center     Atomic      Atomic             Coordinates (Angstroms)
 Number     Number       Type             X           Y           Z
 ---------------------------------------------------------------------
      1          6           0        4.139702    0.115241   -0.418550
      2          6           0        5.154734    1.158932    0.048787
      3          6           0        5.987739    1.729084   -1.099614
      4          1           0        4.670357   -0.700341   -0.928625
      5          1           0        3.473936    0.570004   -1.165103
      6          1           0        5.817514    0.702726    0.795255
      7          1           0        4.621619    1.972030    0.557977
      8          1           0        5.342369    2.209349   -1.842205
      9          1           0        6.545059    0.932833   -1.603579
     10          1           0        6.706802    2.473203   -0.743109
     11          6           0        3.299366   -0.464010    0.718125
     12          6           0        2.284334   -1.507701    0.250788
     13          6           0        1.451329   -2.077853    1.399188
     14          1           0        3.965131   -0.918773    1.464678
     15          1           0        2.768711    0.351572    1.228200
     16          1           0        2.817449   -2.320799   -0.258402
     17          1           0        1.621554   -1.051495   -0.495680
     18          1           0        0.894009   -1.281602    1.903154
     19          1           0        2.096699   -2.558118    2.141780
     20          1           0        0.732266   -2.821972    1.042684
     21          6           0       -3.542783    2.421882    0.740952
     22          6           0       -2.866986    1.524603    1.574447
     23          6           0       -2.509145    0.255554    1.109674
     24          6           0       -2.844314   -0.084729   -0.199967
     25          6           0       -3.517230    0.787074   -1.054620
     26          6           0       -3.865180    2.050906   -0.568612
     27          1           0       -3.816919    3.405683    1.110247
     28          1           0       -2.615317    1.809995    2.591923
     29          1           0       -1.985617   -0.458656    1.733563
     30          1           0       -3.754505    0.474000   -2.064126
     31          1           0       -4.389975    2.745693   -1.218155
     32          7           0       -2.470719   -1.425454   -0.703242
     33          8           0       -2.777485   -1.701115   -1.861060
     34          8           0       -1.878204   -2.175266    0.069639
 ---------------------------------------------------------------------

 SCF Done:  E(RHF) =  -669.535916742     A.U. after   15 cycles
 E2 =    -0.2091370711D+01 EUMP2 =    -0.67162728745280D+03

 The electronic state is 1-A.
 Alpha  occ. eigenvalues --  -20.60890 -20.60878 -15.85922 -11.31258 -11.27825
 Alpha  occ. eigenvalues --  -11.27814 -11.27566 -11.26837 -11.26826 -11.21410
 Alpha  occ. eigenvalues --  -11.21083 -11.20995 -11.20932 -11.20920 -11.20205
 Alpha  occ. eigenvalues --   -1.59950  -1.39504  -1.19429  -1.08831  -1.08051
 Alpha  occ. eigenvalues --   -1.04827  -1.03086  -0.95685  -0.95514  -0.86551
 Alpha  occ. eigenvalues --   -0.86226  -0.82504  -0.79171  -0.77855  -0.77549
 Alpha  occ. eigenvalues --   -0.72154  -0.71267  -0.70537  -0.65086  -0.64835
 Alpha  occ. eigenvalues --   -0.64690  -0.62176  -0.60498  -0.58893  -0.57106
 Alpha  occ. eigenvalues --   -0.55334  -0.54848  -0.53160  -0.52919  -0.52166
 Alpha  occ. eigenvalues --   -0.51956  -0.49528  -0.48902  -0.48886  -0.47471
 Alpha  occ. eigenvalues --   -0.46231  -0.45398  -0.45325  -0.44896  -0.43307
 Alpha  occ. eigenvalues --   -0.37410  -0.36429
 Alpha virt. eigenvalues --    0.04954   0.11199   0.16435   0.21036   0.23156
 Alpha virt. eigenvalues --    0.24386   0.26385   0.27159   0.27694   0.27897
 Alpha virt. eigenvalues --    0.29180   0.30739   0.31503   0.32093   0.32652

 Mulliken charges:
               1
     1  C   -0.297787
     2  C   -0.299018
     3  C   -0.475406
     4  H    0.150450
     5  H    0.148868
     6  H    0.151572
     7  H    0.149642
     8  H    0.154549
     9  H    0.155716
    10  H    0.158944
    11  C   -0.297311
    12  C   -0.298778
    13  C   -0.478079
    14  H    0.148294
    15  H    0.144719
    16  H    0.152688
    17  H    0.152409
    18  H    0.141505
    19  H    0.148595
    20  H    0.185684
    21  C   -0.170610
    22  C   -0.218993
    23  C   -0.172682
    24  C    0.157539
    25  C   -0.170804
    26  C   -0.218626
    27  H    0.225866
    28  H    0.223854
    29  H    0.278918
    30  H    0.275728
    31  H    0.223682
    32  N    0.490315
    33  O   -0.459640
    34  O   -0.461801
 Sum of Mulliken charges =  -0.00000

 Dipole moment (field-independent basis, Debye):
    X=             -1.4893    Y=              4.5984    Z=              1.6941  Tot=              5.1218
 Quadrupole moment (field-independent basis, Debye-Ang):
   XX=            -87.5667   YY=            -95.2859   ZZ=            -92.4474
   XY=            -15.1325   XZ=             -2.3234   YZ=             -1.8317

 Normal termination of Gaussian 16 at Thu May  6 20:23:47 2021.
