 Gaussian 16, Revision A.03,
 Gaussian 16:  EM64L-G16RevA.03 25-Dec-2016

 -------------
 #p 6-31g* mp2
 -------------

 ------------------------------------------------------
 Input file generated by CHIRIPA (05-May-2021 14:57:25)
 ------------------------------------------------------
 Symbolic Z-matrix:
 Charge =  0 Multiplicity = 1

                         Standard orientation:
 ---------------------------------------------------------------------
 Center     Atomic      Atomic             Coordinates (Angstroms)
 Number     Number       Type             X           Y           Z
 ---------------------------------------------------------------------
      1          6           0        3.574210    2.586595    0.682398
      2          6           0        4.696255    1.763005    0.821093
      3          6           0        4.656165    0.431223    0.397658
      4          6           0        3.472351   -0.046253   -0.162600
      5          6           0        2.337791    0.749401   -0.314255
      6          6           0        2.400629    2.078061    0.116165
      7          1           0        3.614189    3.619943    1.014046
      8          1           0        5.609019    2.155240    1.260477
      9          1           0        5.510133   -0.228352    0.493147
     10          1           0        1.442078    0.329956   -0.756049
     11          1           0        1.527695    2.715369    0.007207
     12          7           0        3.417868   -1.454499   -0.614570
     13          8           0        2.362958   -1.851139   -1.104955
     14          8           0        4.431107   -2.134976   -0.469879
     15          6           0       -5.321217    1.339623   -0.720402
     16          6           0       -4.124281    1.245153   -1.437996
     17          6           0       -3.098025    0.403172   -0.999344
     18          6           0       -3.303456   -0.333320    0.166275
     19          6           0       -4.484589   -0.260850    0.903136
     20          6           0       -5.497241    0.587647    0.445818
     21          1           0       -6.113154    1.996224   -1.068407
     22          1           0       -3.984799    1.827971   -2.344038
     23          1           0       -2.161335    0.310930   -1.535554
     24          1           0       -4.594340   -0.854230    1.802732
     25          1           0       -6.425742    0.659010    1.005137
     26          7           0       -2.224206   -1.228134    0.640536
     27          8           0       -2.429921   -1.866518    1.670480
     28          8           0       -1.193011   -1.274164   -0.026664
 ---------------------------------------------------------------------

 SCF Done:  E(RHF) =  -868.336838735     A.U. after   16 cycles
 E2 =    -0.2599853443D+01 EUMP2 =    -0.87093669217768D+03

 The electronic state is 1-A.
 Alpha  occ. eigenvalues --  -20.60798 -20.60793 -20.59863 -20.59782 -15.85845
 Alpha  occ. eigenvalues --  -15.84881 -11.31339 -11.30436 -11.27946 -11.27896
 Alpha  occ. eigenvalues --  -11.27668 -11.27090 -11.26981 -11.26969 -11.26936
 Alpha  occ. eigenvalues --  -11.26904 -11.26151 -11.26137  -1.59864  -1.58900
 Alpha  occ. eigenvalues --   -1.39416  -1.38442  -1.19519  -1.18654  -1.08886
 Alpha  occ. eigenvalues --   -1.08027  -1.04941  -1.04092  -0.95698  -0.94818
 Alpha  occ. eigenvalues --   -0.86331  -0.85482  -0.82527  -0.81650  -0.77568
 Alpha  occ. eigenvalues --   -0.76642  -0.72045  -0.71199  -0.71093  -0.70622
 Alpha  occ. eigenvalues --   -0.70225  -0.69772  -0.65167  -0.64940  -0.64311
 Alpha  occ. eigenvalues --   -0.64117  -0.62290  -0.61423  -0.55427  -0.54622
 Alpha  occ. eigenvalues --   -0.53264  -0.53032  -0.52413  -0.52195  -0.48815
 Alpha  occ. eigenvalues --   -0.48802  -0.47892  -0.47828  -0.44790  -0.43801
 Alpha  occ. eigenvalues --   -0.37502  -0.36671  -0.36554  -0.35702
 Alpha virt. eigenvalues --    0.04952   0.05897   0.11097   0.11950   0.16414
 Alpha virt. eigenvalues --    0.17323   0.20956   0.22033   0.26395   0.27478
 Alpha virt. eigenvalues --    0.28201   0.29131   0.30598   0.31497   0.32126

 Mulliken charges:
               1
     1  C   -0.171093
     2  C   -0.219307
     3  C   -0.170839
     4  C    0.157227
     5  C   -0.170435
     6  C   -0.220022
     7  H    0.221998
     8  H    0.220735
     9  H    0.274305
    10  H    0.286454
    11  H    0.217901
    12  N    0.487181
    13  O   -0.450329
    14  O   -0.465626
    15  C   -0.171206
    16  C   -0.218610
    17  C   -0.172931
    18  C    0.158887
    19  C   -0.171000
    20  C   -0.218353
    21  H    0.225805
    22  H    0.223021
    23  H    0.273196
    24  H    0.276616
    25  H    0.224041
    26  N    0.489408
    27  O   -0.458087
    28  O   -0.458936
 Sum of Mulliken charges =  -0.00000

 Dipole moment (field-independent basis, Debye):
    X=             -3.8487    Y=              7.8918    Z=             -0.0925  Tot=              8.7807
 Quadrupole moment (field-independent basis, Debye-Ang):
   XX=            -73.5219   YY=           -108.5795   ZZ=           -103.5555
   XY=              7.9688   XZ=              9.3956   YZ=             -1.2901

 Normal termination of Gaussian 16 at Fri May  7 09:39:49 2021.
