 Gaussian 16, Revision A.03,
 Gaussian 16:  EM64L-G16RevA.03 25-Dec-2016

 -------------
 #p 6-31g* mp2
 -------------

 ------------------------------------------------------
 Input file generated by CHIRIPA (05-May-2021 14:53:17)
 ------------------------------------------------------
 Symbolic Z-matrix:
 Charge =  0 Multiplicity = 1

                         Standard orientation:
 ---------------------------------------------------------------------
 Center     Atomic      Atomic             Coordinates (Angstroms)
 Number     Number       Type             X           Y           Z
 ---------------------------------------------------------------------
      1          6           0       -3.983417    0.883350   -0.222649
      2          6           0       -2.528583    1.223506   -0.547824
      3          6           0       -2.268396    2.729656   -0.587940
      4          1           0       -4.638524    1.350262   -0.970829
      5          1           0       -4.248905    1.328186    0.746387
      6          1           0       -2.265502    0.776994   -1.515311
      7          1           0       -1.876851    0.755571    0.201107
      8          1           0       -2.503617    3.187108    0.378502
      9          1           0       -2.894476    3.208653   -1.347668
     10          1           0       -1.222269    2.950254   -0.822062
     11          6           0       -4.259200   -0.618569   -0.178949
     12          6           0       -5.714034   -0.958725    0.146225
     13          6           0       -5.974221   -2.464875    0.186341
     14          1           0       -3.993712   -1.063405   -1.147986
     15          1           0       -3.604093   -1.085481    0.569230
     16          1           0       -6.365766   -0.490790   -0.602706
     17          1           0       -5.977115   -0.512213    1.113712
     18          1           0       -5.348141   -2.943872    0.946069
     19          1           0       -5.739000   -2.922327   -0.780101
     20          1           0       -7.020348   -2.685473    0.420464
     21          6           0        1.233487    0.854386    1.382917
     22          6           0        2.330884    0.367461    2.100653
     23          6           0        3.436868   -0.165443    1.431803
     24          6           0        3.411799   -0.196028    0.038345
     25          6           0        2.333393    0.281320   -0.704937
     26          6           0        1.238235    0.809841   -0.015123
     27          1           0        0.378536    1.266656    1.910638
     28          1           0        2.329951    0.400781    3.186440
     29          1           0        4.299635   -0.549274    1.962582
     30          1           0        2.363364    0.234661   -1.786761
     31          1           0        0.387366    1.187272   -0.575132
     32          7           0        4.576924   -0.757869   -0.680833
     33          8           0        4.530319   -0.773464   -1.908930
     34          8           0        5.514694   -1.172007   -0.002810
 ---------------------------------------------------------------------

 SCF Done:  E(RHF) =  -669.534766674     A.U. after   15 cycles
 E2 =    -0.2092307305D+01 EUMP2 =    -0.67162707397906D+03

 The electronic state is 1-A.
 Alpha  occ. eigenvalues --  -20.60719 -20.60713 -15.85770 -11.31126 -11.27692
 Alpha  occ. eigenvalues --  -11.27667 -11.27423 -11.26716 -11.26613 -11.22832
 Alpha  occ. eigenvalues --  -11.22334 -11.22303 -11.22175 -11.22075 -11.21525
 Alpha  occ. eigenvalues --   -1.59794  -1.39348  -1.19291  -1.09307  -1.08689
 Alpha  occ. eigenvalues --   -1.04707  -1.04410  -0.96852  -0.95528  -0.87855
 Alpha  occ. eigenvalues --   -0.86099  -0.82360  -0.80527  -0.79065  -0.77405
 Alpha  occ. eigenvalues --   -0.71990  -0.71116  -0.70412  -0.65951  -0.64941
 Alpha  occ. eigenvalues --   -0.64776  -0.62178  -0.61767  -0.60163  -0.58424
 Alpha  occ. eigenvalues --   -0.56102  -0.55190  -0.53581  -0.53321  -0.53018
 Alpha  occ. eigenvalues --   -0.52659  -0.50769  -0.48828  -0.48745  -0.48733
 Alpha  occ. eigenvalues --   -0.47544  -0.46596  -0.46490  -0.44755  -0.44653
 Alpha  occ. eigenvalues --   -0.37268  -0.36283
 Alpha virt. eigenvalues --    0.05112   0.11270   0.16593   0.19657   0.22429
 Alpha virt. eigenvalues --    0.23973   0.25220   0.26054   0.26657   0.27741
 Alpha virt. eigenvalues --    0.29256   0.29764   0.30781   0.31495   0.31727

 Mulliken charges:
               1
     1  C   -0.297759
     2  C   -0.309483
     3  C   -0.481944
     4  H    0.153286
     5  H    0.150303
     6  H    0.154580
     7  H    0.147836
     8  H    0.157618
     9  H    0.163492
    10  H    0.156147
    11  C   -0.299141
    12  C   -0.300399
    13  C   -0.476182
    14  H    0.151674
    15  H    0.149717
    16  H    0.153293
    17  H    0.152109
    18  H    0.155682
    19  H    0.156623
    20  H    0.162022
    21  C   -0.175968
    22  C   -0.218403
    23  C   -0.171467
    24  C    0.159053
    25  C   -0.173675
    26  C   -0.225416
    27  H    0.225779
    28  H    0.223006
    29  H    0.275296
    30  H    0.275739
    31  H    0.239776
    32  N    0.487971
    33  O   -0.460499
    34  O   -0.460665
 Sum of Mulliken charges =  -0.00000

 Dipole moment (field-independent basis, Debye):
    X=             -4.3722    Y=              1.9678    Z=              2.4916  Tot=              5.4034
 Quadrupole moment (field-independent basis, Debye-Ang):
   XX=           -121.5179   YY=            -97.1336   ZZ=            -89.8314
   XY=              6.7087   XZ=             11.2260   YZ=             -1.3408

 Normal termination of Gaussian 16 at Thu May  6 20:31:05 2021.
