 Gaussian 16, Revision A.03,
 Gaussian 16:  EM64L-G16RevA.03 25-Dec-2016

 -------------
 #p 6-31g* mp2
 -------------

 ------------------------------------------------------
 Input file generated by CHIRIPA (05-May-2021 14:51:09)
 ------------------------------------------------------
 Symbolic Z-matrix:
 Charge =  0 Multiplicity = 1

                         Standard orientation:
 ---------------------------------------------------------------------
 Center     Atomic      Atomic             Coordinates (Angstroms)
 Number     Number       Type             X           Y           Z
 ---------------------------------------------------------------------
      1          6           0       -2.279717   -0.216366   -0.179128
      2          6           0       -3.234798   -0.968189   -1.106796
      3          6           0       -2.866455   -2.443733   -1.264555
      4          1           0       -1.256583   -0.300551   -0.570349
      5          1           0       -2.278495   -0.702331    0.806383
      6          1           0       -3.235266   -0.480121   -2.089855
      7          1           0       -4.255804   -0.882042   -0.713424
      8          1           0       -2.884681   -2.951173   -0.294620
      9          1           0       -1.858345   -2.546968   -1.678871
     10          1           0       -3.562177   -2.962079   -1.931748
     11          6           0       -2.634883    1.259929   -0.011379
     12          6           0       -1.679802    2.011752    0.916288
     13          6           0       -2.048145    3.487296    1.074047
     14          1           0       -2.636105    1.745894   -0.996890
     15          1           0       -3.658017    1.344115    0.379842
     16          1           0       -0.658796    1.925606    0.522917
     17          1           0       -1.679334    1.523684    1.899347
     18          1           0       -3.056255    3.590531    1.488364
     19          1           0       -2.029918    3.994736    0.104113
     20          1           0       -1.352423    4.005643    1.741241
     21          6           0        2.461444   -1.132840    0.553537
     22          6           0        1.115022   -1.855020    0.613422
     23          6           0        1.139190   -3.075341    1.534306
     24          1           0        3.232884   -1.836513    0.211964
     25          1           0        2.748551   -0.822388    1.567728
     26          1           0        0.829880   -2.162800   -0.400769
     27          1           0        0.346663   -1.149495    0.954708
     28          1           0        1.399065   -2.781546    2.556436
     29          1           0        1.885028   -3.800608    1.193259
     30          1           0        0.166617   -3.576521    1.562254
     31          6           0        2.453155    0.089276   -0.363029
     32          6           0        3.799578    0.811457   -0.422915
     33          6           0        3.775410    2.031778   -1.343799
     34          1           0        2.166049   -0.221176   -1.377221
     35          1           0        1.681716    0.792949   -0.021457
     36          1           0        4.567936    0.105931   -0.764200
     37          1           0        4.084719    1.119237    0.591275
     38          1           0        3.029572    2.757045   -1.002752
     39          1           0        3.515535    1.737983   -2.365929
     40          1           0        4.747982    2.532957   -1.371748
 ---------------------------------------------------------------------

 SCF Done:  E(RHF) =  -470.732261726     A.U. after   11 cycles
 E2 =    -0.1584955675D+01 EUMP2 =    -0.47231721740174D+03

 The electronic state is 1-A.
 Alpha  occ. eigenvalues --  -11.21654 -11.21623 -11.21578 -11.21463 -11.21415
 Alpha  occ. eigenvalues --  -11.21380 -11.21326 -11.21275 -11.21111 -11.21098
 Alpha  occ. eigenvalues --  -11.21065 -11.21011  -1.08479  -1.08373  -1.03559
 Alpha  occ. eigenvalues --   -1.03489  -0.95986  -0.95964  -0.87026  -0.86960
 Alpha  occ. eigenvalues --   -0.79725  -0.79508  -0.78552  -0.77921  -0.65119
 Alpha  occ. eigenvalues --   -0.64997  -0.60943  -0.60913  -0.59443  -0.59257
 Alpha  occ. eigenvalues --   -0.57614  -0.57561  -0.55286  -0.55242  -0.52706
 Alpha  occ. eigenvalues --   -0.52644  -0.52499  -0.52319  -0.49977  -0.49860
 Alpha  occ. eigenvalues --   -0.48162  -0.47753  -0.46710  -0.46658  -0.46424
 Alpha  occ. eigenvalues --   -0.45755  -0.45601  -0.44861  -0.43785  -0.43745
 Alpha virt. eigenvalues --    0.20788   0.22202   0.23560   0.24375   0.24667
 Alpha virt. eigenvalues --    0.25861   0.26769   0.27252   0.28776   0.29936
 Alpha virt. eigenvalues --    0.30625   0.31251   0.31455   0.31915   0.32492

 Mulliken charges:
               1
     1  C   -0.304184
     2  C   -0.299356
     3  C   -0.476747
     4  H    0.158557
     5  H    0.148882
     6  H    0.151632
     7  H    0.151528
     8  H    0.154942
     9  H    0.156319
    10  H    0.160111
    11  C   -0.297275
    12  C   -0.306370
    13  C   -0.475326
    14  H    0.149415
    15  H    0.149377
    16  H    0.156528
    17  H    0.151492
    18  H    0.155553
    19  H    0.155493
    20  H    0.160019
    21  C   -0.297387
    22  C   -0.306529
    23  C   -0.475750
    24  H    0.149194
    25  H    0.149259
    26  H    0.151328
    27  H    0.161617
    28  H    0.154561
    29  H    0.154691
    30  H    0.160250
    31  C   -0.305417
    32  C   -0.299199
    33  C   -0.475771
    34  H    0.148666
    35  H    0.155116
    36  H    0.152255
    37  H    0.152157
    38  H    0.154860
    39  H    0.155028
    40  H    0.160481
 Sum of Mulliken charges =  -0.00000

 Dipole moment (field-independent basis, Debye):
    X=             -0.0110    Y=              0.0121    Z=             -0.0025  Tot=              0.0165
 Quadrupole moment (field-independent basis, Debye-Ang):
   XX=            -84.5002   YY=            -86.4825   ZZ=            -83.9790
   XY=              0.0270   XZ=             -0.5903   YZ=              0.6325

 Normal termination of Gaussian 16 at Thu May  6 02:10:59 2021.
