 Gaussian 16, Revision A.03,
 Gaussian 16:  EM64L-G16RevA.03 25-Dec-2016

 -------------
 #p 6-31g* mp2
 -------------

 ------------------------------------------------------
 Input file generated by CHIRIPA (05-May-2021 14:53:18)
 ------------------------------------------------------
 Symbolic Z-matrix:
 Charge =  0 Multiplicity = 1

                         Standard orientation:
 ---------------------------------------------------------------------
 Center     Atomic      Atomic             Coordinates (Angstroms)
 Number     Number       Type             X           Y           Z
 ---------------------------------------------------------------------
      1          6           0       -2.724500    1.091723   -0.028041
      2          6           0       -3.456890    2.396068    0.288619
      3          6           0       -2.537481    3.616818    0.241203
      4          1           0       -1.899672    0.959246    0.685439
      5          1           0       -2.266884    1.168787   -1.024055
      6          1           0       -3.914154    2.316050    1.283166
      7          1           0       -4.280189    2.525359   -0.425578
      8          1           0       -2.091279    3.724662   -0.752715
      9          1           0       -1.723164    3.514163    0.965738
     10          1           0       -3.081562    4.538338    0.470632
     11          6           0       -3.630333   -0.137629    0.015413
     12          6           0       -2.897942   -1.441974   -0.301248
     13          6           0       -3.817351   -2.662725   -0.253832
     14          1           0       -4.087949   -0.214694    1.011427
     15          1           0       -4.455161   -0.005153   -0.698067
     16          1           0       -2.074643   -1.571265    0.412950
     17          1           0       -2.440679   -1.361956   -1.295794
     18          1           0       -4.631669   -2.560070   -0.978366
     19          1           0       -4.263554   -2.770569    0.740087
     20          1           0       -3.273270   -3.584245   -0.483260
     21          6           0        0.700506   -2.128274    0.334881
     22          6           0        1.477103   -1.706685    1.419169
     23          6           0        2.467196   -0.734592    1.248002
     24          6           0        2.654619   -0.202970   -0.026965
     25          6           0        1.897118   -0.602340   -1.126959
     26          6           0        0.912618   -1.575730   -0.932488
     27          1           0       -0.066450   -2.883923    0.476900
     28          1           0        1.314585   -2.134051    2.404558
     29          1           0        3.082743   -0.389974    2.070046
     30          1           0        2.082426   -0.157911   -2.097300
     31          1           0        0.311005   -1.901231   -1.776382
     32          7           0        3.699827    0.826828   -0.220508
     33          8           0        3.845273    1.279646   -1.353839
     34          8           0        4.353822    1.161668    0.764789
 ---------------------------------------------------------------------

 SCF Done:  E(RHF) =  -669.534479964     A.U. after   15 cycles
 E2 =    -0.2092949398D+01 EUMP2 =    -0.67162742936281D+03

 The electronic state is 1-A.
 Alpha  occ. eigenvalues --  -20.60750 -20.60745 -15.85805 -11.31167 -11.27751
 Alpha  occ. eigenvalues --  -11.27733 -11.27460 -11.26763 -11.26730 -11.22458
 Alpha  occ. eigenvalues --  -11.21986 -11.21970 -11.21880 -11.21763 -11.21205
 Alpha  occ. eigenvalues --   -1.59826  -1.39380  -1.19349  -1.08992  -1.08732
 Alpha  occ. eigenvalues --   -1.04751  -1.04085  -0.96508  -0.95581  -0.87521
 Alpha  occ. eigenvalues --   -0.86149  -0.82416  -0.80199  -0.78752  -0.77450
 Alpha  occ. eigenvalues --   -0.72023  -0.71149  -0.70482  -0.65612  -0.64999
 Alpha  occ. eigenvalues --   -0.64757  -0.62104  -0.61486  -0.59934  -0.58122
 Alpha  occ. eigenvalues --   -0.55793  -0.55243  -0.53285  -0.53070  -0.52908
 Alpha  occ. eigenvalues --   -0.52837  -0.50436  -0.48784  -0.48779  -0.48471
 Alpha  occ. eigenvalues --   -0.47213  -0.46284  -0.46185  -0.44786  -0.44317
 Alpha  occ. eigenvalues --   -0.37246  -0.36345
 Alpha virt. eigenvalues --    0.05046   0.11254   0.16420   0.20068   0.22670
 Alpha virt. eigenvalues --    0.23953   0.25230   0.26371   0.26984   0.27855
 Alpha virt. eigenvalues --    0.29243   0.29875   0.31034   0.31576   0.31886

 Mulliken charges:
               1
     1  C   -0.298705
     2  C   -0.300303
     3  C   -0.476043
     4  H    0.152137
     5  H    0.148975
     6  H    0.151797
     7  H    0.152080
     8  H    0.156689
     9  H    0.156889
    10  H    0.161416
    11  C   -0.297910
    12  C   -0.304635
    13  C   -0.476545
    14  H    0.150500
    15  H    0.151290
    16  H    0.150993
    17  H    0.147406
    18  H    0.159643
    19  H    0.157646
    20  H    0.154163
    21  C   -0.170152
    22  C   -0.221135
    23  C   -0.170879
    24  C    0.158589
    25  C   -0.171549
    26  C   -0.215348
    27  H    0.227749
    28  H    0.223202
    29  H    0.275455
    30  H    0.275379
    31  H    0.224193
    32  N    0.488113
    33  O   -0.460473
    34  O   -0.460627
 Sum of Mulliken charges =  -0.00000

 Dipole moment (field-independent basis, Debye):
    X=             -3.7521    Y=             -3.5325    Z=              0.6954  Tot=              5.2001
 Quadrupole moment (field-independent basis, Debye-Ang):
   XX=           -114.9433   YY=            -94.9492   ZZ=            -89.1370
   XY=             -9.7101   XZ=              3.3956   YZ=             -0.5103

 Normal termination of Gaussian 16 at Thu May  6 09:10:33 2021.
