 Gaussian 16, Revision A.03,
 Gaussian 16:  EM64L-G16RevA.03 25-Dec-2016

 -------------
 #p 6-31g* mp2
 -------------

 ------------------------------------------------------
 Input file generated by CHIRIPA (05-May-2021 14:51:13)
 ------------------------------------------------------
 Symbolic Z-matrix:
 Charge =  0 Multiplicity = 1

                         Standard orientation:
 ---------------------------------------------------------------------
 Center     Atomic      Atomic             Coordinates (Angstroms)
 Number     Number       Type             X           Y           Z
 ---------------------------------------------------------------------
      1          6           0       -3.204051    0.729282    0.028573
      2          6           0       -3.881279    1.972470   -0.549207
      3          6           0       -3.309296    3.273356    0.014995
      4          1           0       -3.312174    0.735299    1.121833
      5          1           0       -2.126133    0.777484   -0.179186
      6          1           0       -4.957804    1.921264   -0.341628
      7          1           0       -3.771698    1.963395   -1.641235
      8          1           0       -2.239582    3.351088   -0.204711
      9          1           0       -3.432427    3.308717    1.102281
     10          1           0       -3.807779    4.149388   -0.411553
     11          6           0       -3.764997   -0.579054   -0.525797
     12          6           0       -3.087769   -1.822242    0.051983
     13          6           0       -3.659752   -3.123129   -0.512220
     14          1           0       -4.842915   -0.627256   -0.318039
     15          1           0       -3.656875   -0.585071   -1.619058
     16          1           0       -3.197350   -1.813167    1.144011
     17          1           0       -2.011245   -1.771036   -0.155596
     18          1           0       -3.536622   -3.158489   -1.599505
     19          1           0       -4.729467   -3.200860   -0.292514
     20          1           0       -3.161270   -3.999160   -0.085672
     21          6           0        2.750338   -0.280394    0.201050
     22          6           0        1.975176   -0.065535    1.501413
     23          6           0        0.507872   -0.480872    1.390475
     24          1           0        2.266719    0.288361   -0.604914
     25          1           0        2.688724   -1.339910   -0.083600
     26          1           0        2.039394    0.992997    1.784259
     27          1           0        2.460808   -0.634715    2.304415
     28          1           0        0.426234   -1.541567    1.131896
     29          1           0        0.002425    0.095394    0.608784
     30          1           0       -0.027462   -0.318839    2.331231
     31          6           0        4.218711    0.130166    0.296175
     32          6           0        4.993872   -0.084693   -1.004189
     33          6           0        6.461177    0.330643   -0.893250
     34          1           0        4.280324    1.189681    0.580824
     35          1           0        4.702329   -0.438589    1.102137
     36          1           0        4.508240    0.484487   -1.807191
     37          1           0        4.929654   -1.143225   -1.287034
     38          1           0        6.966624   -0.245623   -0.111559
     39          1           0        6.542815    1.391338   -0.634671
     40          1           0        6.996511    0.168611   -1.834007
 ---------------------------------------------------------------------

 SCF Done:  E(RHF) =  -470.732786859     A.U. after   11 cycles
 E2 =    -0.1583291738D+01 EUMP2 =    -0.47231607859638D+03

 The electronic state is 1-A.
 Alpha  occ. eigenvalues --  -11.21613 -11.21586 -11.21571 -11.21480 -11.21418
 Alpha  occ. eigenvalues --  -11.21359 -11.21340 -11.21280 -11.21080 -11.21064
 Alpha  occ. eigenvalues --  -11.21024 -11.21007  -1.08442  -1.08370  -1.03533
 Alpha  occ. eigenvalues --   -1.03474  -0.95989  -0.95926  -0.87003  -0.86949
 Alpha  occ. eigenvalues --   -0.79636  -0.79520  -0.78304  -0.78115  -0.65097
 Alpha  occ. eigenvalues --   -0.64993  -0.60960  -0.60854  -0.59346  -0.59301
 Alpha  occ. eigenvalues --   -0.57604  -0.57544  -0.55370  -0.55136  -0.52723
 Alpha  occ. eigenvalues --   -0.52604  -0.52407  -0.52358  -0.50030  -0.49794
 Alpha  occ. eigenvalues --   -0.48021  -0.47817  -0.46721  -0.46505  -0.45952
 Alpha  occ. eigenvalues --   -0.45718  -0.45693  -0.45318  -0.43783  -0.43721
 Alpha virt. eigenvalues --    0.21831   0.23041   0.24130   0.24196   0.25440
 Alpha virt. eigenvalues --    0.26540   0.26707   0.27648   0.27906   0.29468
 Alpha virt. eigenvalues --    0.30364   0.31541   0.31764   0.31880   0.32166

 Mulliken charges:
               1
     1  C   -0.302887
     2  C   -0.299187
     3  C   -0.475430
     4  H    0.149640
     5  H    0.154670
     6  H    0.151875
     7  H    0.151545
     8  H    0.154344
     9  H    0.155258
    10  H    0.160169
    11  C   -0.298139
    12  C   -0.303559
    13  C   -0.475650
    14  H    0.149124
    15  H    0.148908
    16  H    0.151736
    17  H    0.158298
    18  H    0.154734
    19  H    0.154807
    20  H    0.159761
    21  C   -0.298256
    22  C   -0.300355
    23  C   -0.479341
    24  H    0.148928
    25  H    0.149390
    26  H    0.151853
    27  H    0.151776
    28  H    0.155680
    29  H    0.159298
    30  H    0.160800
    31  C   -0.298221
    32  C   -0.299647
    33  C   -0.475712
    34  H    0.149590
    35  H    0.149766
    36  H    0.151813
    37  H    0.151912
    38  H    0.155226
    39  H    0.155218
    40  H    0.160263
 Sum of Mulliken charges =  -0.00000

 Dipole moment (field-independent basis, Debye):
    X=              0.0166    Y=             -0.0021    Z=              0.0184  Tot=              0.0249
 Quadrupole moment (field-independent basis, Debye-Ang):
   XX=            -85.6987   YY=            -85.0864   ZZ=            -84.2273
   XY=             -0.8419   XZ=             -0.5199   YZ=             -0.6218

 Normal termination of Gaussian 16 at Thu May  6 07:08:30 2021.
