 Gaussian 16, Revision A.03,
 Gaussian 16:  EM64L-G16RevA.03 25-Dec-2016

 -------------
 #p 6-31g* mp2
 -------------

 ------------------------------------------------------
 Input file generated by CHIRIPA (05-May-2021 14:53:16)
 ------------------------------------------------------
 Symbolic Z-matrix:
 Charge =  0 Multiplicity = 1

                         Standard orientation:
 ---------------------------------------------------------------------
 Center     Atomic      Atomic             Coordinates (Angstroms)
 Number     Number       Type             X           Y           Z
 ---------------------------------------------------------------------
      1          6           0        3.368018   -0.571230   -0.101559
      2          6           0        3.014279   -1.854565   -0.853824
      3          6           0        3.739042   -3.082386   -0.301586
      4          1           0        4.453772   -0.411489   -0.152225
      5          1           0        3.119906   -0.697342    0.961424
      6          1           0        3.261700   -1.725573   -1.915313
      7          1           0        1.929218   -2.011167   -0.801524
      8          1           0        3.483916   -3.239070    0.751487
      9          1           0        4.823970   -2.951853   -0.368631
     10          1           0        3.471594   -3.988619   -0.853921
     11          6           0        2.651341    0.664908   -0.641989
     12          6           0        3.005081    1.948244    0.110277
     13          6           0        2.280317    3.176065   -0.441962
     14          1           0        2.899453    0.791021   -1.704971
     15          1           0        1.565588    0.505168   -0.591323
     16          1           0        4.090142    2.104846    0.057977
     17          1           0        2.757659    1.819251    1.171766
     18          1           0        1.195390    3.045532   -0.374917
     19          1           0        2.535443    3.332749   -1.495034
     20          1           0        2.547765    4.082297    0.110374
     21          6           0       -4.295228   -0.416305   -1.272540
     22          6           0       -3.918777   -1.414778   -0.368185
     23          6           0       -2.843296   -1.215322    0.502508
     24          6           0       -2.163382    0.000116    0.441552
     25          6           0       -2.514335    1.014192   -0.448264
     26          6           0       -3.593044    0.792861   -1.309627
     27          1           0       -5.131941   -0.579743   -1.945292
     28          1           0       -4.462280   -2.354823   -0.337163
     29          1           0       -2.530581   -1.971301    1.212525
     30          1           0       -1.953354    1.940832   -0.455794
     31          1           0       -3.883171    1.570071   -2.010923
     32          7           0       -1.023110    0.222849    1.358378
     33          8           0       -0.440305    1.302470    1.284925
     34          8           0       -0.733760   -0.686411    2.133079
 ---------------------------------------------------------------------

 SCF Done:  E(RHF) =  -669.536408812     A.U. after   15 cycles
 E2 =    -0.2092685172D+01 EUMP2 =    -0.67162909398476D+03

 The electronic state is 1-A.
 Alpha  occ. eigenvalues --  -20.61122 -20.61112 -15.86120 -11.31374 -11.27929
 Alpha  occ. eigenvalues --  -11.27925 -11.27651 -11.26919 -11.26908 -11.20877
 Alpha  occ. eigenvalues --  -11.20430 -11.20374 -11.20316 -11.20242 -11.19922
 Alpha  occ. eigenvalues --   -1.60166  -1.39726  -1.19535  -1.08954  -1.07397
 Alpha  occ. eigenvalues --   -1.04920  -1.02536  -0.95808  -0.95013  -0.86325
 Alpha  occ. eigenvalues --   -0.86043  -0.82646  -0.78639  -0.77715  -0.77207
 Alpha  occ. eigenvalues --   -0.72363  -0.71486  -0.70644  -0.65199  -0.64923
 Alpha  occ. eigenvalues --   -0.63977  -0.62269  -0.59890  -0.58410  -0.56635
 Alpha  occ. eigenvalues --   -0.55427  -0.54276  -0.53253  -0.53011  -0.51751
 Alpha  occ. eigenvalues --   -0.51461  -0.49212  -0.49098  -0.48870  -0.46973
 Alpha  occ. eigenvalues --   -0.45653  -0.45355  -0.44697  -0.44399  -0.42797
 Alpha  occ. eigenvalues --   -0.37509  -0.36515
 Alpha virt. eigenvalues --    0.04784   0.11126   0.16249   0.21010   0.23794
 Alpha virt. eigenvalues --    0.24891   0.26561   0.27398   0.28111   0.28397
 Alpha virt. eigenvalues --    0.29133   0.30582   0.31546   0.32660   0.32699

 Mulliken charges:
               1
     1  C   -0.300355
     2  C   -0.297519
     3  C   -0.475640
     4  H    0.145727
     5  H    0.159495
     6  H    0.147828
     7  H    0.148910
     8  H    0.158292
     9  H    0.153664
    10  H    0.155913
    11  C   -0.297057
    12  C   -0.296347
    13  C   -0.479352
    14  H    0.141181
    15  H    0.150591
    16  H    0.144430
    17  H    0.166718
    18  H    0.164269
    19  H    0.145704
    20  H    0.156426
    21  C   -0.170229
    22  C   -0.218538
    23  C   -0.170671
    24  C    0.157235
    25  C   -0.170895
    26  C   -0.218638
    27  H    0.226409
    28  H    0.224172
    29  H    0.275921
    30  H    0.276729
    31  H    0.224468
    32  N    0.490440
    33  O   -0.461159
    34  O   -0.458123
 Sum of Mulliken charges =  -0.00000

 Dipole moment (field-independent basis, Debye):
    X=             -4.3149    Y=             -0.8034    Z=             -2.9813  Tot=              5.3058
 Quadrupole moment (field-independent basis, Debye-Ang):
   XX=            -78.0873   YY=            -92.2590   ZZ=            -97.2883
   XY=              2.9518   XZ=              5.2752   YZ=             -2.1100

 Normal termination of Gaussian 16 at Thu May  6 05:55:37 2021.
