 Gaussian 16, Revision A.03,
 Gaussian 16:  EM64L-G16RevA.03 25-Dec-2016

 -------------
 #p 6-31g* mp2
 -------------

 ------------------------------------------------------
 Input file generated by CHIRIPA (05-May-2021 14:57:27)
 ------------------------------------------------------
 Symbolic Z-matrix:
 Charge =  0 Multiplicity = 1

                         Standard orientation:
 ---------------------------------------------------------------------
 Center     Atomic      Atomic             Coordinates (Angstroms)
 Number     Number       Type             X           Y           Z
 ---------------------------------------------------------------------
      1          6           0       -3.708996    1.386720    0.899601
      2          6           0       -3.620554    1.150909   -0.476296
      3          6           0       -2.823506    0.113385   -0.969051
      4          6           0       -2.125311   -0.672397   -0.053430
      5          6           0       -2.192917   -0.462480    1.323034
      6          6           0       -2.996152    0.580694    1.793299
      7          1           0       -4.330565    2.194888    1.273649
      8          1           0       -4.173045    1.775281   -1.172685
      9          1           0       -2.736939   -0.091256   -2.029261
     10          1           0       -1.630443   -1.101727    1.992664
     11          1           0       -3.062940    0.761514    2.862359
     12          7           0       -1.278238   -1.773768   -0.563183
     13          8           0       -0.673025   -2.451823    0.264220
     14          8           0       -1.235553   -1.938113   -1.780477
     15          6           0        2.989031   -1.784267    0.785078
     16          6           0        3.028790   -0.685389    1.649604
     17          6           0        2.629956    0.579869    1.208468
     18          6           0        2.194914    0.710830   -0.109438
     19          6           0        2.143873   -0.364728   -0.994796
     20          6           0        2.547477   -1.620718   -0.532042
     21          1           0        3.300707   -2.763550    1.136159
     22          1           0        3.371255   -0.809445    2.673017
     23          1           0        2.650653    1.447596    1.856573
     24          1           0        1.797723   -0.209889   -2.009500
     25          1           0        2.515542   -2.472337   -1.205666
     26          7           0        1.770162    2.045396   -0.587893
     27          8           0        1.390913    2.134455   -1.753601
     28          8           0        1.824533    2.977100    0.211863
 ---------------------------------------------------------------------

 SCF Done:  E(RHF) =  -868.339846384     A.U. after   16 cycles
 E2 =    -0.2601372246D+01 EUMP2 =    -0.87094121862997D+03

 The electronic state is 1-A.
 Alpha  occ. eigenvalues --  -20.61045 -20.61016 -20.60369 -20.60358 -15.86030
 Alpha  occ. eigenvalues --  -15.85407 -11.31119 -11.30497 -11.27691 -11.27627
 Alpha  occ. eigenvalues --  -11.27344 -11.27057 -11.26861 -11.26634 -11.26616
 Alpha  occ. eigenvalues --  -11.26568 -11.26043 -11.25805  -1.60092  -1.59449
 Alpha  occ. eigenvalues --   -1.39655  -1.39009  -1.19265  -1.18606  -1.08716
 Alpha  occ. eigenvalues --   -1.08043  -1.04625  -1.03949  -0.95602  -0.94936
 Alpha  occ. eigenvalues --   -0.86040  -0.85362  -0.82450  -0.81774  -0.77528
 Alpha  occ. eigenvalues --   -0.76868  -0.72297  -0.71636  -0.71419  -0.70761
 Alpha  occ. eigenvalues --   -0.70376  -0.69690  -0.64926  -0.64635  -0.64246
 Alpha  occ. eigenvalues --   -0.63937  -0.61985  -0.61299  -0.55143  -0.54446
 Alpha  occ. eigenvalues --   -0.52965  -0.52722  -0.52306  -0.52028  -0.49062
 Alpha  occ. eigenvalues --   -0.49027  -0.48400  -0.48363  -0.45117  -0.44478
 Alpha  occ. eigenvalues --   -0.37269  -0.36495  -0.36197  -0.35480
 Alpha virt. eigenvalues --    0.04962   0.05625   0.11450   0.12144   0.16547
 Alpha virt. eigenvalues --    0.17228   0.21577   0.22276   0.27491   0.28183
 Alpha virt. eigenvalues --    0.28473   0.29110   0.31141   0.31820   0.32603

 Mulliken charges:
               1
     1  C   -0.168318
     2  C   -0.216359
     3  C   -0.167151
     4  C    0.156333
     5  C   -0.170830
     6  C   -0.217833
     7  H    0.227022
     8  H    0.225838
     9  H    0.276481
    10  H    0.272488
    11  H    0.222711
    12  N    0.488948
    13  O   -0.462844
    14  O   -0.465131
    15  C   -0.165482
    16  C   -0.219839
    17  C   -0.175340
    18  C    0.156029
    19  C   -0.181511
    20  C   -0.200724
    21  H    0.225503
    22  H    0.219023
    23  H    0.270194
    24  H    0.278475
    25  H    0.231551
    26  N    0.488296
    27  O   -0.462489
    28  O   -0.465040
 Sum of Mulliken charges =  -0.00000

 Dipole moment (field-independent basis, Debye):
    X=             -1.6344    Y=             -1.0262    Z=              3.3577  Tot=              3.8728
 Quadrupole moment (field-independent basis, Debye-Ang):
   XX=            -86.1439   YY=           -116.8662   ZZ=            -97.2651
   XY=            -16.8854   XZ=              2.0446   YZ=              1.0911

 Normal termination of Gaussian 16 at Thu May  6 18:11:23 2021.
