 Gaussian 16, Revision A.03,
 Gaussian 16:  EM64L-G16RevA.03 25-Dec-2016

 -------------
 #p 6-31g* mp2
 -------------

 ------------------------------------------------------
 Input file generated by CHIRIPA (05-May-2021 14:53:14)
 ------------------------------------------------------
 Symbolic Z-matrix:
 Charge =  0 Multiplicity = 1

                         Standard orientation:
 ---------------------------------------------------------------------
 Center     Atomic      Atomic             Coordinates (Angstroms)
 Number     Number       Type             X           Y           Z
 ---------------------------------------------------------------------
      1          6           0       -3.652363   -0.054651   -0.185470
      2          6           0       -3.090859   -1.418158    0.218938
      3          6           0       -4.107134   -2.548534    0.053928
      4          1           0       -4.544330    0.161228    0.418465
      5          1           0       -3.986278   -0.098976   -1.231382
      6          1           0       -2.756831   -1.370875    1.263355
      7          1           0       -2.200014   -1.630731   -0.385896
      8          1           0       -4.432919   -2.624543   -0.988516
      9          1           0       -4.992900   -2.363210    0.670106
     10          1           0       -3.684831   -3.514271    0.348667
     11          6           0       -2.648193    1.085510   -0.026088
     12          6           0       -3.209698    2.449017   -0.430497
     13          6           0       -2.193422    3.579392   -0.265486
     14          1           0       -2.314279    1.129835    1.019824
     15          1           0       -1.756227    0.869630   -0.630023
     16          1           0       -4.100543    2.661590    0.174338
     17          1           0       -3.543726    2.401733   -1.474913
     18          1           0       -1.307657    3.394068   -0.881665
     19          1           0       -1.867638    3.655401    0.776957
     20          1           0       -2.615726    4.545130   -0.560225
     21          6           0        4.401705    1.206315   -0.023800
     22          6           0        3.391225    1.390157    0.925755
     23          6           0        2.311317    0.504883    0.993848
     24          6           0        2.273550   -0.558231    0.092931
     25          6           0        3.264865   -0.768088   -0.864433
     26          6           0        4.335417    0.129677   -0.914293
     27          1           0        5.236969    1.898867   -0.069614
     28          1           0        3.440090    2.225403    1.618590
     29          1           0        1.515404    0.623657    1.718992
     30          1           0        3.188596   -1.610026   -1.541738
     31          1           0        5.118739   -0.015567   -1.652775
     32          7           0        1.135252   -1.502042    0.155366
     33          8           0        1.125245   -2.430775   -0.649613
     34          8           0        0.274616   -1.295198    1.008101
 ---------------------------------------------------------------------

 SCF Done:  E(RHF) =  -669.535841853     A.U. after   15 cycles
 E2 =    -0.2092260524D+01 EUMP2 =    -0.67162810237680D+03

 The electronic state is 1-A.
 Alpha  occ. eigenvalues --  -20.60972 -20.60948 -15.85975 -11.31293 -11.27855
 Alpha  occ. eigenvalues --  -11.27848 -11.27589 -11.26858 -11.26846 -11.21058
 Alpha  occ. eigenvalues --  -11.20807 -11.20537 -11.20273 -11.19847 -11.19717
 Alpha  occ. eigenvalues --   -1.60017  -1.39572  -1.19459  -1.08867  -1.07452
 Alpha  occ. eigenvalues --   -1.04852  -1.02535  -0.95709  -0.95073  -0.86254
 Alpha  occ. eigenvalues --   -0.86103  -0.82546  -0.78645  -0.77609  -0.77115
 Alpha  occ. eigenvalues --   -0.72185  -0.71326  -0.70567  -0.65113  -0.64855
 Alpha  occ. eigenvalues --   -0.64104  -0.62199  -0.59943  -0.58489  -0.56618
 Alpha  occ. eigenvalues --   -0.55358  -0.54399  -0.53187  -0.52944  -0.51795
 Alpha  occ. eigenvalues --   -0.51484  -0.49102  -0.49007  -0.48959  -0.46884
 Alpha  occ. eigenvalues --   -0.45696  -0.45239  -0.44561  -0.44324  -0.42794
 Alpha  occ. eigenvalues --   -0.37436  -0.36452
 Alpha virt. eigenvalues --    0.04908   0.11197   0.16400   0.21290   0.23615
 Alpha virt. eigenvalues --    0.25251   0.27068   0.27528   0.27800   0.28691
 Alpha virt. eigenvalues --    0.28923   0.31026   0.32222   0.32376   0.32669

 Mulliken charges:
               1
     1  C   -0.299889
     2  C   -0.296539
     3  C   -0.476347
     4  H    0.144289
     5  H    0.144865
     6  H    0.158489
     7  H    0.166834
     8  H    0.149698
     9  H    0.148016
    10  H    0.162576
    11  C   -0.293691
    12  C   -0.298900
    13  C   -0.474627
    14  H    0.149720
    15  H    0.146840
    16  H    0.150717
    17  H    0.150716
    18  H    0.152359
    19  H    0.151439
    20  H    0.158231
    21  C   -0.170549
    22  C   -0.218499
    23  C   -0.170283
    24  C    0.158251
    25  C   -0.170886
    26  C   -0.218640
    27  H    0.226055
    28  H    0.224055
    29  H    0.276064
    30  H    0.275711
    31  H    0.223778
    32  N    0.488218
    33  O   -0.460532
    34  O   -0.457540
 Sum of Mulliken charges =  -0.00000

 Dipole moment (field-independent basis, Debye):
    X=              4.3009    Y=              3.1648    Z=             -0.1433  Tot=              5.3418
 Quadrupole moment (field-independent basis, Debye-Ang):
   XX=            -77.7518   YY=            -98.9925   ZZ=            -91.3878
   XY=              3.8759   XZ=             -2.4127   YZ=              2.8471

 Normal termination of Gaussian 16 at Thu May  6 10:33:44 2021.
