 Gaussian 16, Revision A.03,
 Gaussian 16:  EM64L-G16RevA.03 25-Dec-2016

 -------------
 #p 6-31g* mp2
 -------------

 ------------------------------------------------------
 Input file generated by CHIRIPA (05-May-2021 14:55:23)
 ------------------------------------------------------
 Symbolic Z-matrix:
 Charge =  0 Multiplicity = 1

                         Standard orientation:
 ---------------------------------------------------------------------
 Center     Atomic      Atomic             Coordinates (Angstroms)
 Number     Number       Type             X           Y           Z
 ---------------------------------------------------------------------
      1          6           0       -2.492354    1.120195    1.668720
      2          6           0       -3.106588    0.827475    0.446610
      3          6           0       -2.622872   -0.205574   -0.361707
      4          6           0       -1.518075   -0.928899    0.084964
      5          6           0       -0.884396   -0.661371    1.297470
      6          6           0       -1.385171    0.376150    2.089507
      7          1           0       -2.874742    1.924429    2.290317
      8          1           0       -3.966597    1.403647    0.117284
      9          1           0       -3.079242   -0.453469   -1.312335
     10          1           0       -0.028737   -1.253257    1.599026
     11          1           0       -0.906141    0.601250    3.038141
     12          7           0       -0.996957   -2.024908   -0.762149
     13          8           0       -0.022244   -2.647359   -0.346062
     14          8           0       -1.573084   -2.240756   -1.826162
     15          6           0        2.491629    0.339270   -0.379914
     16          6           0        3.304351   -0.019328    0.864625
     17          6           0        4.176718   -1.258903    0.664067
     18          1           0        1.858886   -0.515441   -0.655690
     19          1           0        3.177648    0.504918   -1.222133
     20          1           0        2.617086   -0.182897    1.704581
     21          1           0        3.935090    0.836405    1.137581
     22          1           0        4.885061   -1.102893   -0.156000
     23          1           0        3.559568   -2.127986    0.414221
     24          1           0        4.749050   -1.497242    1.566004
     25          6           0        1.614512    1.576283   -0.195005
     26          6           0        0.801790    1.934881   -1.439544
     27          6           0       -0.070577    3.174456   -1.238986
     28          1           0        0.928493    1.410635    0.647214
     29          1           0        2.247254    2.430994    0.080770
     30          1           0        0.171051    1.079148   -1.712502
     31          1           0        1.489055    2.098449   -2.279500
     32          1           0        0.546573    4.043538   -0.989140
     33          1           0       -0.778921    3.018446   -0.418919
     34          1           0       -0.642909    3.412796   -2.140924
 ---------------------------------------------------------------------

 SCF Done:  E(RHF) =  -669.534595663     A.U. after   15 cycles
 E2 =    -0.2097906148D+01 EUMP2 =    -0.67163250181145D+03

 The electronic state is 1-A.
 Alpha  occ. eigenvalues --  -20.61091 -20.61083 -15.86095 -11.31402 -11.27976
 Alpha  occ. eigenvalues --  -11.27958 -11.27713 -11.26979 -11.26955 -11.21463
 Alpha  occ. eigenvalues --  -11.21444 -11.21095 -11.21051 -11.20945 -11.20650
 Alpha  occ. eigenvalues --   -1.60137  -1.39694  -1.19603  -1.08998  -1.08203
 Alpha  occ. eigenvalues --   -1.04993  -1.03332  -0.95855  -0.95740  -0.86782
 Alpha  occ. eigenvalues --   -0.86380  -0.82672  -0.79416  -0.78011  -0.77725
 Alpha  occ. eigenvalues --   -0.72325  -0.71472  -0.70695  -0.65247  -0.65057
 Alpha  occ. eigenvalues --   -0.64817  -0.62325  -0.60772  -0.59137  -0.57379
 Alpha  occ. eigenvalues --   -0.55480  -0.55069  -0.53276  -0.53065  -0.52485
 Alpha  occ. eigenvalues --   -0.52187  -0.49720  -0.49094  -0.49077  -0.47703
 Alpha  occ. eigenvalues --   -0.46513  -0.45700  -0.45538  -0.44788  -0.43559
 Alpha  occ. eigenvalues --   -0.37514  -0.36437
 Alpha virt. eigenvalues --    0.04754   0.10952   0.16160   0.20347   0.23052
 Alpha virt. eigenvalues --    0.23863   0.26162   0.26906   0.27838   0.28148
 Alpha virt. eigenvalues --    0.29068   0.30759   0.31298   0.31852   0.32033

 Mulliken charges:
               1
     1  C   -0.170736
     2  C   -0.216868
     3  C   -0.170845
     4  C    0.161895
     5  C   -0.173012
     6  C   -0.219433
     7  H    0.227406
     8  H    0.225190
     9  H    0.276625
    10  H    0.279223
    11  H    0.225481
    12  N    0.488297
    13  O   -0.458978
    14  O   -0.457259
    15  C   -0.309322
    16  C   -0.296007
    17  C   -0.479200
    18  H    0.163482
    19  H    0.150582
    20  H    0.138481
    21  H    0.150092
    22  H    0.155577
    23  H    0.168110
    24  H    0.156603
    25  C   -0.304315
    26  C   -0.298130
    27  C   -0.478426
    28  H    0.150436
    29  H    0.146343
    30  H    0.150519
    31  H    0.153389
    32  H    0.153382
    33  H    0.153416
    34  H    0.158000
 Sum of Mulliken charges =  -0.00000

 Dipole moment (field-independent basis, Debye):
    X=             -2.0336    Y=              3.6210    Z=              2.9463  Tot=              5.0919
 Quadrupole moment (field-independent basis, Debye-Ang):
   XX=            -86.7646   YY=           -103.1713   ZZ=            -92.2308
   XY=             -4.2808   XZ=             -2.6202   YZ=             -3.0994

 Normal termination of Gaussian 16 at Wed May  5 16:02:20 2021.
