 Gaussian 16, Revision A.03,
 Gaussian 16:  EM64L-G16RevA.03 25-Dec-2016

 -------------
 #p 6-31g* mp2
 -------------

 ------------------------------------------------------
 Input file generated by CHIRIPA (05-May-2021 14:51:08)
 ------------------------------------------------------
 Symbolic Z-matrix:
 Charge =  0 Multiplicity = 1

                         Standard orientation:
 ---------------------------------------------------------------------
 Center     Atomic      Atomic             Coordinates (Angstroms)
 Number     Number       Type             X           Y           Z
 ---------------------------------------------------------------------
      1          6           0        2.601450   -0.199002    1.094885
      2          6           0        1.098442   -0.478632    1.122429
      3          6           0        0.510217   -0.410558    2.532093
      4          1           0        3.114507   -0.922505    1.743159
      5          1           0        2.790430    0.794547    1.524468
      6          1           0        0.912224   -1.470787    0.691653
      7          1           0        0.588922    0.245501    0.473864
      8          1           0        0.666825    0.581717    2.967369
      9          1           0        0.991964   -1.144323    3.186395
     10          1           0       -0.565248   -0.613593    2.528575
     11          6           0        3.204046   -0.263434   -0.307418
     12          6           0        4.707054    0.016196   -0.334962
     13          6           0        5.295279   -0.051878   -1.744626
     14          1           0        3.015066   -1.256983   -0.737001
     15          1           0        2.690989    0.460069   -0.955692
     16          1           0        5.216574   -0.707937    0.313603
     17          1           0        4.893272    1.008351    0.095815
     18          1           0        4.813532    0.681887   -2.398928
     19          1           0        5.138671   -1.044153   -2.179901
     20          1           0        6.370744    0.151157   -1.741107
     21          6           0       -3.121304    0.959987   -0.326195
     22          6           0       -1.950543    1.942485   -0.281468
     23          6           0       -2.403817    3.396456   -0.146176
     24          1           0       -3.778380    1.220482   -1.167229
     25          1           0       -3.721953    1.074337    0.586790
     26          1           0       -1.351496    1.825349   -1.193630
     27          1           0       -1.296075    1.679504    0.559441
     28          1           0       -2.983349    3.535442    0.772206
     29          1           0       -3.039086    3.682117   -0.990826
     30          1           0       -1.550955    4.081717   -0.116129
     31          6           0       -2.684192   -0.497551   -0.461273
     32          6           0       -3.854953   -1.480049   -0.505998
     33          6           0       -3.401679   -2.934020   -0.641291
     34          1           0       -2.083543   -0.611901   -1.374257
     35          1           0       -2.027116   -0.758046    0.379761
     36          1           0       -4.509421   -1.217068   -1.346909
     37          1           0       -4.454000   -1.362914    0.406162
     38          1           0       -2.766410   -3.219682    0.203358
     39          1           0       -2.822146   -3.073007   -1.559673
     40          1           0       -4.254541   -3.619282   -0.671338
 ---------------------------------------------------------------------

 SCF Done:  E(RHF) =  -470.732613864     A.U. after   11 cycles
 E2 =    -0.1584251576D+01 EUMP2 =    -0.47231686544030D+03

 The electronic state is 1-A.
 Alpha  occ. eigenvalues --  -11.21611 -11.21592 -11.21587 -11.21511 -11.21396
 Alpha  occ. eigenvalues --  -11.21379 -11.21322 -11.21320 -11.21119 -11.21094
 Alpha  occ. eigenvalues --  -11.21070 -11.21063  -1.08467  -1.08378  -1.03556
 Alpha  occ. eigenvalues --   -1.03509  -0.96007  -0.95963  -0.87011  -0.86989
 Alpha  occ. eigenvalues --   -0.79667  -0.79550  -0.78405  -0.78054  -0.65159
 Alpha  occ. eigenvalues --   -0.64977  -0.61073  -0.60804  -0.59392  -0.59321
 Alpha  occ. eigenvalues --   -0.57699  -0.57505  -0.55288  -0.55252  -0.52712
 Alpha  occ. eigenvalues --   -0.52660  -0.52454  -0.52361  -0.49936  -0.49915
 Alpha  occ. eigenvalues --   -0.48066  -0.47838  -0.46780  -0.46516  -0.46045
 Alpha  occ. eigenvalues --   -0.45710  -0.45696  -0.45256  -0.43788  -0.43771
 Alpha virt. eigenvalues --    0.20743   0.23042   0.23939   0.24138   0.25871
 Alpha virt. eigenvalues --    0.26306   0.26911   0.27819   0.28168   0.29506
 Alpha virt. eigenvalues --    0.30263   0.31462   0.31617   0.31960   0.32436

 Mulliken charges:
               1
     1  C   -0.297855
     2  C   -0.307032
     3  C   -0.479526
     4  H    0.149262
     5  H    0.149085
     6  H    0.152002
     7  H    0.160876
     8  H    0.155077
     9  H    0.155826
    10  H    0.160810
    11  C   -0.298292
    12  C   -0.299623
    13  C   -0.475689
    14  H    0.149561
    15  H    0.149701
    16  H    0.151922
    17  H    0.151856
    18  H    0.155083
    19  H    0.155159
    20  H    0.160205
    21  C   -0.297538
    22  C   -0.306061
    23  C   -0.475103
    24  H    0.149603
    25  H    0.149137
    26  H    0.151304
    27  H    0.158814
    28  H    0.155346
    29  H    0.155260
    30  H    0.159824
    31  C   -0.306185
    32  C   -0.299391
    33  C   -0.475631
    34  H    0.149624
    35  H    0.158744
    36  H    0.151896
    37  H    0.151592
    38  H    0.154879
    39  H    0.155238
    40  H    0.160241
 Sum of Mulliken charges =  -0.00000

 Dipole moment (field-independent basis, Debye):
    X=             -0.0074    Y=              0.0053    Z=             -0.0070  Tot=              0.0115
 Quadrupole moment (field-independent basis, Debye-Ang):
   XX=            -85.2370   YY=            -85.0165   ZZ=            -84.6910
   XY=             -0.0035   XZ=              0.5948   YZ=             -0.3162

 Normal termination of Gaussian 16 at Thu May  6 05:17:43 2021.
