 Gaussian 16, Revision A.03,
 Gaussian 16:  EM64L-G16RevA.03 25-Dec-2016

 -------------
 #p 6-31g* mp2
 -------------

 ------------------------------------------------------
 Input file generated by CHIRIPA (05-May-2021 14:51:14)
 ------------------------------------------------------
 Symbolic Z-matrix:
 Charge =  0 Multiplicity = 1

                         Standard orientation:
 ---------------------------------------------------------------------
 Center     Atomic      Atomic             Coordinates (Angstroms)
 Number     Number       Type             X           Y           Z
 ---------------------------------------------------------------------
      1          6           0        3.359918   -0.319148    0.268948
      2          6           0        2.539674    0.852797    0.809069
      3          6           0        1.062359    0.504820    0.994124
      4          1           0        2.935296   -0.644168   -0.690741
      5          1           0        3.266270   -1.170990    0.956692
      6          1           0        2.635957    1.702627    0.121221
      7          1           0        2.966414    1.175188    1.767491
      8          1           0        0.947561   -0.326785    1.696873
      9          1           0        0.615227    0.203651    0.041249
     10          1           0        0.494641    1.356789    1.381040
     11          6           0        4.838774    0.013226    0.078585
     12          6           0        5.659017   -1.158719   -0.461535
     13          6           0        7.136332   -0.810741   -0.646591
     14          1           0        4.932422    0.865068   -0.609159
     15          1           0        5.263395    0.338246    1.038275
     16          1           0        5.232278   -1.481110   -1.419958
     17          1           0        5.562734   -2.008549    0.226313
     18          1           0        7.583464   -0.509573    0.306285
     19          1           0        7.251130    0.020863   -1.349340
     20          1           0        7.704051   -1.662711   -1.033506
     21          6           0       -3.450935    0.499193    0.033886
     22          6           0       -3.206313    1.818508   -0.699294
     23          6           0       -1.905262    2.499251   -0.273092
     24          1           0       -3.471045    0.686769    1.116177
     25          1           0       -2.604719   -0.177067   -0.150467
     26          1           0       -4.053392    2.491571   -0.514740
     27          1           0       -3.186975    1.627799   -1.779975
     28          1           0       -1.047095    1.849459   -0.472894
     29          1           0       -1.918435    2.718139    0.799529
     30          1           0       -1.750238    3.440547   -0.809553
     31          6           0       -4.747756   -0.193270   -0.381419
     32          6           0       -4.992378   -1.512586    0.351760
     33          6           0       -6.293429   -2.193330   -0.074441
     34          1           0       -5.593973    0.482989   -0.197066
     35          1           0       -4.727647   -0.380847   -1.463710
     36          1           0       -5.011717   -1.321877    1.432442
     37          1           0       -4.145300   -2.185650    0.167206
     38          1           0       -6.280256   -2.412217   -1.147063
     39          1           0       -7.151596   -1.543537    0.125361
     40          1           0       -6.448453   -3.134625    0.462020
 ---------------------------------------------------------------------

 SCF Done:  E(RHF) =  -470.732170988     A.U. after   11 cycles
 E2 =    -0.1583011691D+01 EUMP2 =    -0.47231518267854D+03

 The electronic state is 1-A.
 Alpha  occ. eigenvalues --  -11.21601 -11.21582 -11.21565 -11.21527 -11.21400
 Alpha  occ. eigenvalues --  -11.21352 -11.21341 -11.21289 -11.21070 -11.21044
 Alpha  occ. eigenvalues --  -11.21008 -11.20901  -1.08427  -1.08372  -1.03547
 Alpha  occ. eigenvalues --   -1.03448  -0.96035  -0.95864  -0.87092  -0.86848
 Alpha  occ. eigenvalues --   -0.79684  -0.79449  -0.78250  -0.78169  -0.65084
 Alpha  occ. eigenvalues --   -0.64986  -0.61051  -0.60774  -0.59428  -0.59235
 Alpha  occ. eigenvalues --   -0.57671  -0.57447  -0.55458  -0.55044  -0.52872
 Alpha  occ. eigenvalues --   -0.52613  -0.52408  -0.52123  -0.50109  -0.49676
 Alpha  occ. eigenvalues --   -0.47917  -0.47811  -0.46731  -0.46437  -0.45818
 Alpha  occ. eigenvalues --   -0.45727  -0.45699  -0.45565  -0.43736  -0.43710
 Alpha virt. eigenvalues --    0.22057   0.23004   0.23632   0.24848   0.25890
 Alpha virt. eigenvalues --    0.26745   0.26933   0.27469   0.27891   0.29161
 Alpha virt. eigenvalues --    0.29844   0.31412   0.31749   0.31929   0.32509

 Mulliken charges:
               1
     1  C   -0.298496
     2  C   -0.300479
     3  C   -0.479458
     4  H    0.149402
     5  H    0.149537
     6  H    0.152281
     7  H    0.152057
     8  H    0.154990
     9  H    0.154190
    10  H    0.166537
    11  C   -0.298243
    12  C   -0.299627
    13  C   -0.475700
    14  H    0.149542
    15  H    0.149692
    16  H    0.151834
    17  H    0.151909
    18  H    0.155197
    19  H    0.155187
    20  H    0.160223
    21  C   -0.298829
    22  C   -0.299551
    23  C   -0.481313
    24  H    0.149580
    25  H    0.150451
    26  H    0.151285
    27  H    0.151122
    28  H    0.164960
    29  H    0.153503
    30  H    0.158721
    31  C   -0.298212
    32  C   -0.299578
    33  C   -0.475667
    34  H    0.149425
    35  H    0.149356
    36  H    0.151915
    37  H    0.151953
    38  H    0.155069
    39  H    0.155109
    40  H    0.160127
 Sum of Mulliken charges =  -0.00000

 Dipole moment (field-independent basis, Debye):
    X=              0.0314    Y=             -0.0025    Z=              0.0195  Tot=              0.0371
 Quadrupole moment (field-independent basis, Debye-Ang):
   XX=            -86.7581   YY=            -84.9483   ZZ=            -83.3779
   XY=             -0.8807   XZ=             -0.1969   YZ=              0.0163

 Normal termination of Gaussian 16 at Thu May  6 05:35:40 2021.
