 Gaussian 16, Revision A.03,
 Gaussian 16:  EM64L-G16RevA.03 25-Dec-2016

 -------------
 #p 6-31g* mp2
 -------------

 ------------------------------------------------------
 Input file generated by CHIRIPA (05-May-2021 14:53:12)
 ------------------------------------------------------
 Symbolic Z-matrix:
 Charge =  0 Multiplicity = 1

                         Standard orientation:
 ---------------------------------------------------------------------
 Center     Atomic      Atomic             Coordinates (Angstroms)
 Number     Number       Type             X           Y           Z
 ---------------------------------------------------------------------
      1          6           0       -5.026035    0.231788   -0.227995
      2          6           0       -6.011009    0.857354    0.760174
      3          6           0       -7.229378    1.472532    0.071023
      4          1           0       -4.696654    0.998473   -0.942590
      5          1           0       -5.545191   -0.539242   -0.813987
      6          1           0       -5.489800    1.626015    1.345081
      7          1           0       -6.337937    0.089136    1.472616
      8          1           0       -7.774534    0.712662   -0.498191
      9          1           0       -6.921577    2.258273   -0.626451
     10          1           0       -7.920339    1.914001    0.795963
     11          6           0       -3.802787   -0.387353    0.445842
     12          6           0       -2.817813   -1.012920   -0.542326
     13          6           0       -1.599444   -1.628097    0.146824
     14          1           0       -3.283631    0.383676    1.031834
     15          1           0       -4.132169   -1.154039    1.160437
     16          1           0       -2.490885   -0.244701   -1.254769
     17          1           0       -3.339023   -1.781580   -1.127234
     18          1           0       -1.907245   -2.413839    0.844298
     19          1           0       -1.054289   -0.868227    0.716038
     20          1           0       -0.908484   -2.069567   -0.578116
     21          6           0        5.479397    1.431278    0.518340
     22          6           0        5.261909    0.194001    1.133456
     23          6           0        4.140191   -0.573870    0.806855
     24          6           0        3.252444   -0.071728   -0.143435
     25          6           0        3.441555    1.157201   -0.773719
     26          6           0        4.570128    1.908089   -0.431609
     27          1           0        6.353437    2.021182    0.778075
     28          1           0        5.966377   -0.178801    1.871553
     29          1           0        3.947485   -1.535080    1.267679
     30          1           0        2.721588    1.502434   -1.505758
     31          1           0        4.736481    2.868622   -0.910929
     32          7           0        2.061302   -0.875649   -0.497402
     33          8           0        1.294156   -0.410977   -1.337760
     34          8           0        1.917386   -1.955212    0.072221
 ---------------------------------------------------------------------

 SCF Done:  E(RHF) =  -669.535887471     A.U. after   15 cycles
 E2 =    -0.2092059563D+01 EUMP2 =    -0.67162794703414D+03

 The electronic state is 1-A.
 Alpha  occ. eigenvalues --  -20.61007 -20.60995 -15.86001 -11.31328 -11.27885
 Alpha  occ. eigenvalues --  -11.27880 -11.27619 -11.26888 -11.26878 -11.20943
 Alpha  occ. eigenvalues --  -11.20541 -11.20525 -11.20265 -11.20044 -11.18923
 Alpha  occ. eigenvalues --   -1.60043  -1.39600  -1.19491  -1.08898  -1.07403
 Alpha  occ. eigenvalues --   -1.04884  -1.02360  -0.95748  -0.94772  -0.86285
 Alpha  occ. eigenvalues --   -0.85797  -0.82573  -0.78496  -0.77631  -0.77146
 Alpha  occ. eigenvalues --   -0.72218  -0.71353  -0.70599  -0.65144  -0.64889
 Alpha  occ. eigenvalues --   -0.64054  -0.62231  -0.59778  -0.58263  -0.56373
 Alpha  occ. eigenvalues --   -0.55387  -0.54113  -0.53215  -0.52975  -0.51514
 Alpha  occ. eigenvalues --   -0.51229  -0.49051  -0.48973  -0.48567  -0.46756
 Alpha  occ. eigenvalues --   -0.45574  -0.45005  -0.44681  -0.44590  -0.42523
 Alpha  occ. eigenvalues --   -0.37466  -0.36484
 Alpha virt. eigenvalues --    0.04891   0.11171   0.16393   0.21310   0.23779
 Alpha virt. eigenvalues --    0.25569   0.27229   0.27577   0.28195   0.28430
 Alpha virt. eigenvalues --    0.29288   0.30896   0.32420   0.32436   0.32652

 Mulliken charges:
               1
     1  C   -0.297051
     2  C   -0.298601
     3  C   -0.475028
     4  H    0.148054
     5  H    0.148176
     6  H    0.150010
     7  H    0.150815
     8  H    0.154559
     9  H    0.154004
    10  H    0.157815
    11  C   -0.296761
    12  C   -0.301455
    13  C   -0.469451
    14  H    0.145909
    15  H    0.146686
    16  H    0.153484
    17  H    0.146446
    18  H    0.142701
    19  H    0.145433
    20  H    0.186363
    21  C   -0.170541
    22  C   -0.218583
    23  C   -0.170823
    24  C    0.160082
    25  C   -0.170936
    26  C   -0.218578
    27  H    0.226107
    28  H    0.223981
    29  H    0.276091
    30  H    0.275755
    31  H    0.223909
    32  N    0.487943
    33  O   -0.458868
    34  O   -0.457647
 Sum of Mulliken charges =  -0.00000

 Dipole moment (field-independent basis, Debye):
    X=              4.6635    Y=              2.7673    Z=              1.1380  Tot=              5.5408
 Quadrupole moment (field-independent basis, Debye-Ang):
   XX=            -69.7246   YY=            -92.4301   ZZ=            -93.7704
   XY=              8.9280   XZ=              4.5603   YZ=             -2.9487

 Normal termination of Gaussian 16 at Thu May  6 12:00:59 2021.
