 Gaussian 16, Revision A.03,
 Gaussian 16:  EM64L-G16RevA.03 25-Dec-2016

 -------------
 #p 6-31g* mp2
 -------------

 ------------------------------------------------------
 Input file generated by CHIRIPA (05-May-2021 14:57:23)
 ------------------------------------------------------
 Symbolic Z-matrix:
 Charge =  0 Multiplicity = 1

                         Standard orientation:
 ---------------------------------------------------------------------
 Center     Atomic      Atomic             Coordinates (Angstroms)
 Number     Number       Type             X           Y           Z
 ---------------------------------------------------------------------
      1          6           0       -2.824709    2.377599    0.472116
      2          6           0       -2.404634    1.415332    1.396291
      3          6           0       -2.271244    0.076540    1.016301
      4          6           0       -2.567660   -0.266459   -0.301947
      5          6           0       -2.988373    0.669093   -1.245893
      6          6           0       -3.114726    2.002071   -0.843707
      7          1           0       -2.925596    3.415346    0.775922
      8          1           0       -2.178712    1.704092    2.418848
      9          1           0       -1.947962   -0.688867    1.711325
     10          1           0       -3.206309    0.350886   -2.258151
     11          1           0       -3.441164    2.747236   -1.563576
     12          7           0       -2.430170   -1.680700   -0.715974
     13          8           0       -2.697454   -1.957253   -1.883328
     14          8           0       -2.057726   -2.485850    0.134705
     15          6           0        3.946242    0.810974   -1.746879
     16          6           0        3.959497   -0.537516   -1.375504
     17          6           0        3.212060   -0.979597   -0.279854
     18          6           0        2.459234   -0.041801    0.425186
     19          6           0        2.425460    1.308360    0.079911
     20          6           0        3.180616    1.727992   -1.019269
     21          1           0        4.529867    1.145674   -2.599378
     22          1           0        4.553169   -1.251917   -1.938736
     23          1           0        3.204173   -2.017705    0.029478
     24          1           0        1.823926    1.996976    0.660758
     25          1           0        3.168419    2.775860   -1.305396
     26          7           0        1.663870   -0.497929    1.586971
     27          8           0        1.008846    0.348140    2.191742
     28          8           0        1.710548   -1.692875    1.870808
 ---------------------------------------------------------------------

 SCF Done:  E(RHF) =  -868.338966907     A.U. after   16 cycles
 E2 =    -0.2600419342D+01 EUMP2 =    -0.87093938624929D+03

 The electronic state is 1-A.
 Alpha  occ. eigenvalues --  -20.61031 -20.60951 -20.60170 -20.60123 -15.86008
 Alpha  occ. eigenvalues --  -15.85194 -11.31246 -11.30480 -11.27849 -11.27761
 Alpha  occ. eigenvalues --  -11.27542 -11.27136 -11.26882 -11.26843 -11.26831
 Alpha  occ. eigenvalues --  -11.26761 -11.26171 -11.25933  -1.60049  -1.59234
 Alpha  occ. eigenvalues --   -1.39606  -1.38782  -1.19412  -1.18667  -1.08836
 Alpha  occ. eigenvalues --   -1.08099  -1.04799  -1.04021  -0.95694  -0.94930
 Alpha  occ. eigenvalues --   -0.86204  -0.85446  -0.82536  -0.81732  -0.77592
 Alpha  occ. eigenvalues --   -0.76778  -0.72254  -0.71438  -0.71336  -0.70561
 Alpha  occ. eigenvalues --   -0.70528  -0.69779  -0.65074  -0.64809  -0.64306
 Alpha  occ. eigenvalues --   -0.64022  -0.62149  -0.61340  -0.55316  -0.54597
 Alpha  occ. eigenvalues --   -0.53132  -0.52895  -0.52416  -0.52100  -0.49030
 Alpha  occ. eigenvalues --   -0.48978  -0.48184  -0.48157  -0.45034  -0.44200
 Alpha  occ. eigenvalues --   -0.37391  -0.36719  -0.36391  -0.35571
 Alpha virt. eigenvalues --    0.04867   0.05774   0.11266   0.12001   0.16394
 Alpha virt. eigenvalues --    0.17249   0.21369   0.22146   0.27289   0.27995
 Alpha virt. eigenvalues --    0.28382   0.29040   0.30933   0.31620   0.32499

 Mulliken charges:
               1
     1  C   -0.175256
     2  C   -0.214941
     3  C   -0.167357
     4  C    0.152829
     5  C   -0.173329
     6  C   -0.220409
     7  H    0.221707
     8  H    0.230118
     9  H    0.287934
    10  H    0.271899
    11  H    0.218730
    12  N    0.486979
    13  O   -0.466023
    14  O   -0.454956
    15  C   -0.170136
    16  C   -0.218283
    17  C   -0.168574
    18  C    0.158063
    19  C   -0.169850
    20  C   -0.218706
    21  H    0.225880
    22  H    0.225266
    23  H    0.279184
    24  H    0.271980
    25  H    0.221751
    26  N    0.488643
    27  O   -0.471802
    28  O   -0.451342
 Sum of Mulliken charges =  -0.00000

 Dipole moment (field-independent basis, Debye):
    X=              2.5775    Y=              6.3324    Z=             -2.4035  Tot=              7.2471
 Quadrupole moment (field-independent basis, Debye-Ang):
   XX=            -89.2778   YY=           -103.7719   ZZ=           -105.5981
   XY=            -11.1161   XZ=            -12.2558   YZ=             -1.6843

 Normal termination of Gaussian 16 at Wed May  5 22:40:51 2021.
