 Gaussian 16, Revision A.03,
 Gaussian 16:  EM64L-G16RevA.03 25-Dec-2016

 -------------
 #p 6-31g* mp2
 -------------

 ------------------------------------------------------
 Input file generated by CHIRIPA (05-May-2021 14:53:17)
 ------------------------------------------------------
 Symbolic Z-matrix:
 Charge =  0 Multiplicity = 1

                         Standard orientation:
 ---------------------------------------------------------------------
 Center     Atomic      Atomic             Coordinates (Angstroms)
 Number     Number       Type             X           Y           Z
 ---------------------------------------------------------------------
      1          6           0       -3.745577   -0.720230   -0.381351
      2          6           0       -4.931591   -1.564019    0.087024
      3          6           0       -4.794228   -3.038842   -0.292214
      4          1           0       -3.646122   -0.812232   -1.471576
      5          1           0       -2.821374   -1.126734    0.052236
      6          1           0       -5.853438   -1.155209   -0.346208
      7          1           0       -5.028352   -1.469845    1.176237
      8          1           0       -3.890704   -3.468410    0.152437
      9          1           0       -4.720477   -3.151986   -1.378658
     10          1           0       -5.652859   -3.623603    0.052269
     11          6           0       -3.868321    0.756424   -0.009658
     12          6           0       -2.682307    1.600213   -0.478034
     13          6           0       -2.819670    3.075036   -0.098795
     14          1           0       -4.792524    1.162928   -0.443245
     15          1           0       -3.967776    0.848426    1.080567
     16          1           0       -2.585546    1.506039   -1.567246
     17          1           0       -1.760461    1.191403   -0.044802
     18          1           0       -2.893421    3.188181    0.987648
     19          1           0       -3.723195    3.504605   -0.543447
     20          1           0       -1.961040    3.659797   -0.443278
     21          6           0        0.975419    1.305106    0.946762
     22          6           0        1.768451    1.795425   -0.095931
     23          6           0        2.878297    1.072937   -0.544037
     24          6           0        3.167411   -0.141678    0.075975
     25          6           0        2.396574   -0.656691    1.117060
     26          6           0        1.291454    0.082768    1.548868
     27          1           0        0.115100    1.872944    1.288531
     28          1           0        1.525397    2.744410   -0.565395
     29          1           0        3.509249    1.429145   -1.349291
     30          1           0        2.663967   -1.605835    1.565440
     31          1           0        0.677357   -0.300470    2.358843
     32          7           0        4.339855   -0.915528   -0.389787
     33          8           0        4.573369   -1.982946    0.172996
     34          8           0        5.003101   -0.439999   -1.308817
 ---------------------------------------------------------------------

 SCF Done:  E(RHF) =  -669.535130394     A.U. after   15 cycles
 E2 =    -0.2092038629D+01 EUMP2 =    -0.67162716902253D+03

 The electronic state is 1-A.
 Alpha  occ. eigenvalues --  -20.60778 -20.60773 -15.85833 -11.31211 -11.27786
 Alpha  occ. eigenvalues --  -11.27778 -11.27501 -11.26807 -11.26790 -11.22457
 Alpha  occ. eigenvalues --  -11.22126 -11.22118 -11.22090 -11.21954 -11.21456
 Alpha  occ. eigenvalues --   -1.59854  -1.39407  -1.19389  -1.09125  -1.08780
 Alpha  occ. eigenvalues --   -1.04791  -1.04239  -0.96687  -0.95614  -0.87695
 Alpha  occ. eigenvalues --   -0.86188  -0.82449  -0.80302  -0.78898  -0.77487
 Alpha  occ. eigenvalues --   -0.72050  -0.71177  -0.70531  -0.65765  -0.65040
 Alpha  occ. eigenvalues --   -0.64792  -0.62138  -0.61653  -0.60083  -0.58287
 Alpha  occ. eigenvalues --   -0.56020  -0.55232  -0.53389  -0.53152  -0.53074
 Alpha  occ. eigenvalues --   -0.52882  -0.50620  -0.48814  -0.48804  -0.48599
 Alpha  occ. eigenvalues --   -0.47333  -0.46437  -0.46355  -0.44810  -0.44475
 Alpha  occ. eigenvalues --   -0.37318  -0.36397
 Alpha virt. eigenvalues --    0.05004   0.11236   0.16378   0.19703   0.22670
 Alpha virt. eigenvalues --    0.23811   0.25856   0.26304   0.26917   0.27454
 Alpha virt. eigenvalues --    0.29559   0.29848   0.30895   0.31507   0.31918

 Mulliken charges:
               1
     1  C   -0.298411
     2  C   -0.300145
     3  C   -0.475946
     4  H    0.152283
     5  H    0.148415
     6  H    0.153152
     7  H    0.151082
     8  H    0.155259
     9  H    0.156820
    10  H    0.161695
    11  C   -0.298005
    12  C   -0.306691
    13  C   -0.478030
    14  H    0.152162
    15  H    0.147395
    16  H    0.156360
    17  H    0.149993
    18  H    0.152773
    19  H    0.161735
    20  H    0.155006
    21  C   -0.169883
    22  C   -0.219686
    23  C   -0.170795
    24  C    0.158749
    25  C   -0.170509
    26  C   -0.220775
    27  H    0.229948
    28  H    0.223883
    29  H    0.275761
    30  H    0.275674
    31  H    0.223356
    32  N    0.488061
    33  O   -0.460380
    34  O   -0.460307
 Sum of Mulliken charges =  -0.00000

 Dipole moment (field-independent basis, Debye):
    X=             -4.2357    Y=              2.6788    Z=              1.5721  Tot=              5.2525
 Quadrupole moment (field-independent basis, Debye-Ang):
   XX=           -120.7147   YY=            -94.5419   ZZ=            -91.8586
   XY=             10.0308   XZ=              4.7824   YZ=             -3.2668

 Normal termination of Gaussian 16 at Thu May  6 18:56:27 2021.
