 Gaussian 16, Revision A.03,
 Gaussian 16:  EM64L-G16RevA.03 25-Dec-2016

 -------------
 #p 6-31g* mp2
 -------------

 ------------------------------------------------------
 Input file generated by CHIRIPA (05-May-2021 14:55:23)
 ------------------------------------------------------
 Symbolic Z-matrix:
 Charge =  0 Multiplicity = 1

                         Standard orientation:
 ---------------------------------------------------------------------
 Center     Atomic      Atomic             Coordinates (Angstroms)
 Number     Number       Type             X           Y           Z
 ---------------------------------------------------------------------
      1          6           0       -1.819318    2.654914   -0.094541
      2          6           0       -0.953186    1.862148   -0.854711
      3          6           0       -1.215176    0.501517   -1.040705
      4          6           0       -2.357520   -0.035925   -0.449523
      5          6           0       -3.239613    0.727805    0.313313
      6          6           0       -2.957760    2.086215    0.486021
      7          1           0       -1.608083    3.711022    0.044784
      8          1           0       -0.068309    2.301109   -1.306762
      9          1           0       -0.561538   -0.135266   -1.624386
     10          1           0       -4.113821    0.261801    0.751511
     11          1           0       -3.632179    2.699472    1.076884
     12          7           0       -2.645391   -1.475188   -0.639395
     13          8           0       -3.658450   -1.924677   -0.108069
     14          8           0       -1.852513   -2.126541   -1.315946
     15          6           0        2.364728   -0.697133    0.734375
     16          6           0        1.461703   -0.056616    1.789016
     17          6           0        0.281496   -0.947946    2.176877
     18          1           0        1.768188   -0.927412   -0.158965
     19          1           0        2.738988   -1.657062    1.116291
     20          1           0        1.090364    0.902471    1.405774
     21          1           0        2.060502    0.172340    2.679878
     22          1           0        0.635638   -1.900630    2.583789
     23          1           0       -0.340012   -1.166350    1.302447
     24          1           0       -0.350928   -0.470668    2.931930
     25          6           0        3.549064    0.181848    0.336294
     26          6           0        4.452090   -0.458669   -0.718347
     27          6           0        5.632296    0.432662   -1.106208
     28          1           0        3.174803    1.141778   -0.045622
     29          1           0        4.145603    0.412127    1.229634
     30          1           0        3.853290   -0.687625   -1.609208
     31          1           0        4.823428   -1.417757   -0.335106
     32          1           0        6.253804    0.651065   -0.231778
     33          1           0        5.278154    1.385345   -1.513120
     34          1           0        6.264720   -0.044617   -1.861261
 ---------------------------------------------------------------------

 SCF Done:  E(RHF) =  -669.534575063     A.U. after   15 cycles
 E2 =    -0.2094826048D+01 EUMP2 =    -0.67162940111088D+03

 The electronic state is 1-A.
 Alpha  occ. eigenvalues --  -20.60877 -20.60866 -15.85906 -11.31251 -11.27849
 Alpha  occ. eigenvalues --  -11.27833 -11.27596 -11.26881 -11.26854 -11.21807
 Alpha  occ. eigenvalues --  -11.21645 -11.21619 -11.21477 -11.21298 -11.20915
 Alpha  occ. eigenvalues --   -1.59941  -1.39494  -1.19461  -1.08856  -1.08587
 Alpha  occ. eigenvalues --   -1.04866  -1.03628  -0.96084  -0.95684  -0.87098
 Alpha  occ. eigenvalues --   -0.86262  -0.82517  -0.79704  -0.78396  -0.77564
 Alpha  occ. eigenvalues --   -0.72132  -0.71287  -0.70565  -0.65257  -0.65109
 Alpha  occ. eigenvalues --   -0.64863  -0.62211  -0.61072  -0.59451  -0.57688
 Alpha  occ. eigenvalues --   -0.55473  -0.55359  -0.53110  -0.52957  -0.52743
 Alpha  occ. eigenvalues --   -0.52469  -0.50033  -0.48896  -0.48886  -0.48006
 Alpha  occ. eigenvalues --   -0.46773  -0.45930  -0.45890  -0.44860  -0.43905
 Alpha  occ. eigenvalues --   -0.37366  -0.36419
 Alpha virt. eigenvalues --    0.04934   0.11076   0.16407   0.20299   0.22933
 Alpha virt. eigenvalues --    0.24129   0.25543   0.26305   0.27412   0.28248
 Alpha virt. eigenvalues --    0.29396   0.30600   0.31340   0.31643   0.31864

 Mulliken charges:
               1
     1  C   -0.171260
     2  C   -0.217273
     3  C   -0.172276
     4  C    0.156944
     5  C   -0.170447
     6  C   -0.218048
     7  H    0.226232
     8  H    0.224193
     9  H    0.276269
    10  H    0.276086
    11  H    0.223933
    12  N    0.491272
    13  O   -0.458814
    14  O   -0.460311
    15  C   -0.299961
    16  C   -0.302049
    17  C   -0.475210
    18  H    0.148618
    19  H    0.153730
    20  H    0.149326
    21  H    0.150864
    22  H    0.158060
    23  H    0.156376
    24  H    0.157888
    25  C   -0.297155
    26  C   -0.299561
    27  C   -0.475417
    28  H    0.141335
    29  H    0.150884
    30  H    0.151021
    31  H    0.154987
    32  H    0.155813
    33  H    0.152236
    34  H    0.161714
 Sum of Mulliken charges =  -0.00000

 Dipole moment (field-independent basis, Debye):
    X=              0.9282    Y=              5.0114    Z=              0.6791  Tot=              5.1417
 Quadrupole moment (field-independent basis, Debye-Ang):
   XX=            -96.5825   YY=            -95.6809   ZZ=            -94.0952
   XY=            -13.5659   XZ=             -3.9398   YZ=             -2.1759

 Normal termination of Gaussian 16 at Thu May  6 11:00:00 2021.
