 Gaussian 16, Revision A.03,
 Gaussian 16:  EM64L-G16RevA.03 25-Dec-2016

 -------------
 #p 6-31g* mp2
 -------------

 ------------------------------------------------------
 Input file generated by CHIRIPA (05-May-2021 14:51:13)
 ------------------------------------------------------
 Symbolic Z-matrix:
 Charge =  0 Multiplicity = 1

                         Standard orientation:
 ---------------------------------------------------------------------
 Center     Atomic      Atomic             Coordinates (Angstroms)
 Number     Number       Type             X           Y           Z
 ---------------------------------------------------------------------
      1          6           0       -3.677543    0.667059   -0.464072
      2          6           0       -4.125191    1.442066    0.775671
      3          6           0       -4.870412    2.731515    0.429607
      4          1           0       -3.033373    1.310943   -1.078403
      5          1           0       -4.557941    0.429575   -1.077174
      6          1           0       -3.244367    1.676815    1.386947
      7          1           0       -4.768215    0.796198    1.387218
      8          1           0       -5.765982    2.512296   -0.160731
      9          1           0       -4.233475    3.397916   -0.161004
     10          1           0       -5.181258    3.269691    1.330497
     11          6           0       -2.931148   -0.624426   -0.134393
     12          6           0       -2.483500   -1.399433   -1.374136
     13          6           0       -1.738278   -2.688882   -1.028072
     14          1           0       -2.050749   -0.386941    0.478709
     15          1           0       -3.575318   -1.268310    0.479938
     16          1           0       -1.840476   -0.753565   -1.985683
     17          1           0       -3.364324   -1.634182   -1.985412
     18          1           0       -2.375215   -3.355283   -0.437461
     19          1           0       -0.842709   -2.469662   -0.437734
     20          1           0       -1.427433   -3.227057   -1.928962
     21          6           0        3.725678    0.226110   -0.287871
     22          6           0        4.604671    1.427780    0.060476
     23          6           0        5.441617    1.911215   -1.124264
     24          1           0        4.362301   -0.593744   -0.647723
     25          1           0        3.062034    0.495400   -1.121211
     26          1           0        5.265495    1.156744    0.893822
     27          1           0        3.965898    2.244804    0.419721
     28          1           0        4.795498    2.208326   -1.956644
     29          1           0        6.102479    1.114083   -1.479849
     30          1           0        6.062388    2.770843   -0.853071
     31          6           0        2.883013   -0.268744    0.886337
     32          6           0        2.004020   -1.470414    0.537989
     33          6           0        1.167074   -1.953849    1.722728
     34          1           0        3.546657   -0.538033    1.719676
     35          1           0        2.246390    0.551111    1.246188
     36          1           0        2.642792   -2.287438    0.178743
     37          1           0        1.343195   -1.199377   -0.295358
     38          1           0        0.506211   -1.156716    2.078313
     39          1           0        1.813193   -2.250959    2.555108
     40          1           0        0.546302   -2.813475    1.451535
 ---------------------------------------------------------------------

 SCF Done:  E(RHF) =  -470.732797788     A.U. after   11 cycles
 E2 =    -0.1583367287D+01 EUMP2 =    -0.47231616507491D+03

 The electronic state is 1-A.
 Alpha  occ. eigenvalues --  -11.21655 -11.21632 -11.21612 -11.21589 -11.21449
 Alpha  occ. eigenvalues --  -11.21406 -11.21388 -11.21346 -11.21102 -11.21095
 Alpha  occ. eigenvalues --  -11.21081 -11.20976  -1.08482  -1.08423  -1.03606
 Alpha  occ. eigenvalues --   -1.03495  -0.96064  -0.95933  -0.87065  -0.86962
 Alpha  occ. eigenvalues --   -0.79636  -0.79588  -0.78290  -0.78240  -0.65193
 Alpha  occ. eigenvalues --   -0.64993  -0.61171  -0.60780  -0.59462  -0.59294
 Alpha  occ. eigenvalues --   -0.57804  -0.57443  -0.55381  -0.55156  -0.52798
 Alpha  occ. eigenvalues --   -0.52657  -0.52533  -0.52218  -0.49974  -0.49872
 Alpha  occ. eigenvalues --   -0.47974  -0.47862  -0.46699  -0.46573  -0.45854
 Alpha  occ. eigenvalues --   -0.45774  -0.45744  -0.45663  -0.43822  -0.43777
 Alpha virt. eigenvalues --    0.20543   0.23252   0.23506   0.24918   0.26147
 Alpha virt. eigenvalues --    0.26766   0.26920   0.27215   0.27945   0.29313
 Alpha virt. eigenvalues --    0.30747   0.30964   0.31473   0.31702   0.32246

 Mulliken charges:
               1
     1  C   -0.298258
     2  C   -0.299556
     3  C   -0.475692
     4  H    0.149280
     5  H    0.149695
     6  H    0.151544
     7  H    0.152123
     8  H    0.155266
     9  H    0.155058
    10  H    0.160287
    11  C   -0.299813
    12  C   -0.299137
    13  C   -0.486446
    14  H    0.150544
    15  H    0.149896
    16  H    0.150996
    17  H    0.151905
    18  H    0.154526
    19  H    0.168275
    20  H    0.159797
    21  C   -0.298351
    22  C   -0.299691
    23  C   -0.475730
    24  H    0.149901
    25  H    0.149420
    26  H    0.152058
    27  H    0.151873
    28  H    0.155171
    29  H    0.155287
    30  H    0.160360
    31  C   -0.297880
    32  C   -0.303450
    33  C   -0.480780
    34  H    0.149898
    35  H    0.149294
    36  H    0.152825
    37  H    0.153733
    38  H    0.155889
    39  H    0.156463
    40  H    0.163418
 Sum of Mulliken charges =  -0.00000

 Dipole moment (field-independent basis, Debye):
    X=              0.0315    Y=             -0.0142    Z=              0.0204  Tot=              0.0401
 Quadrupole moment (field-independent basis, Debye-Ang):
   XX=            -84.1364   YY=            -85.2546   ZZ=            -85.3415
   XY=              0.1403   XZ=              0.6307   YZ=              0.1984

 Normal termination of Gaussian 16 at Wed May  5 15:19:06 2021.
