 Gaussian 16, Revision A.03,
 Gaussian 16:  EM64L-G16RevA.03 25-Dec-2016

 -------------
 #p 6-31g* mp2
 -------------

 ------------------------------------------------------
 Input file generated by CHIRIPA (05-May-2021 14:53:16)
 ------------------------------------------------------
 Symbolic Z-matrix:
 Charge =  0 Multiplicity = 1

                         Standard orientation:
 ---------------------------------------------------------------------
 Center     Atomic      Atomic             Coordinates (Angstroms)
 Number     Number       Type             X           Y           Z
 ---------------------------------------------------------------------
      1          6           0        3.869495   -0.242093   -0.251390
      2          6           0        4.184281   -1.322681    0.783610
      3          6           0        4.900182   -2.530477    0.178211
      4          1           0        3.249943   -0.675900   -1.048203
      5          1           0        4.805050    0.084951   -0.725915
      6          1           0        3.248562   -1.646604    1.257022
      7          1           0        4.802996   -0.886202    1.578150
      8          1           0        5.848272   -2.227598   -0.277849
      9          1           0        4.285005   -2.992320   -0.600801
     10          1           0        5.115583   -3.290651    0.935574
     11          6           0        3.153815    0.971759    0.338605
     12          6           0        2.839028    2.052347   -0.696395
     13          6           0        2.123128    3.260144   -0.090996
     14          1           0        2.218260    0.644716    0.813130
     15          1           0        3.773367    1.405567    1.135418
     16          1           0        2.220313    1.615869   -1.490935
     17          1           0        3.774748    2.376271   -1.169807
     18          1           0        2.738304    3.721987    0.688016
     19          1           0        1.175038    2.957265    0.365064
     20          1           0        1.907727    4.020317   -0.848359
     21          6           0       -3.119534    2.189009    0.287887
     22          6           0       -4.159725    1.285588    0.529454
     23          6           0       -3.962700   -0.087389    0.354341
     24          6           0       -2.707125   -0.524206   -0.065194
     25          6           0       -1.650972    0.350967   -0.313994
     26          6           0       -1.870680    1.719643   -0.132324
     27          1           0       -3.281398    3.253900    0.426466
     28          1           0       -5.130648    1.647253    0.855875
     29          1           0       -4.750524   -0.808782    0.534186
     30          1           0       -0.694131   -0.039598   -0.638542
     31          1           0       -1.061024    2.418946   -0.320679
     32          7           0       -2.486537   -1.975439   -0.254049
     33          8           0       -1.371067   -2.334915   -0.624373
     34          8           0       -3.433287   -2.725959   -0.028172
 ---------------------------------------------------------------------

 SCF Done:  E(RHF) =  -669.535646963     A.U. after   15 cycles
 E2 =    -0.2091389657D+01 EUMP2 =    -0.67162703661966D+03

 The electronic state is 1-A.
 Alpha  occ. eigenvalues --  -20.60793 -20.60787 -15.85845 -11.31201 -11.27771
 Alpha  occ. eigenvalues --  -11.27768 -11.27500 -11.26780 -11.26739 -11.22232
 Alpha  occ. eigenvalues --  -11.21957 -11.21772 -11.21542 -11.21475 -11.20880
 Alpha  occ. eigenvalues --   -1.59868  -1.39422  -1.19371  -1.08767  -1.08725
 Alpha  occ. eigenvalues --   -1.04773  -1.03831  -0.96295  -0.95603  -0.87318
 Alpha  occ. eigenvalues --   -0.86168  -0.82438  -0.79924  -0.78461  -0.77488
 Alpha  occ. eigenvalues --   -0.72064  -0.71190  -0.70479  -0.65394  -0.65019
 Alpha  occ. eigenvalues --   -0.64785  -0.62177  -0.61175  -0.59705  -0.57868
 Alpha  occ. eigenvalues --   -0.55633  -0.55250  -0.53103  -0.53030  -0.52895
 Alpha  occ. eigenvalues --   -0.52636  -0.50224  -0.48820  -0.48819  -0.48218
 Alpha  occ. eigenvalues --   -0.46961  -0.46014  -0.45895  -0.44830  -0.44065
 Alpha  occ. eigenvalues --   -0.37348  -0.36372
 Alpha virt. eigenvalues --    0.05037   0.11243   0.16472   0.18887   0.22903
 Alpha virt. eigenvalues --    0.23895   0.25653   0.26270   0.27347   0.28551
 Alpha virt. eigenvalues --    0.29417   0.30826   0.31244   0.31771   0.32501

 Mulliken charges:
               1
     1  C   -0.299225
     2  C   -0.300449
     3  C   -0.476491
     4  H    0.152848
     5  H    0.149614
     6  H    0.156360
     7  H    0.150490
     8  H    0.153528
     9  H    0.159617
    10  H    0.161454
    11  C   -0.299637
    12  C   -0.301022
    13  C   -0.480966
    14  H    0.148181
    15  H    0.151385
    16  H    0.149102
    17  H    0.156498
    18  H    0.160997
    19  H    0.147802
    20  H    0.160331
    21  C   -0.171617
    22  C   -0.218449
    23  C   -0.170867
    24  C    0.158899
    25  C   -0.174307
    26  C   -0.224922
    27  H    0.226230
    28  H    0.223486
    29  H    0.275622
    30  H    0.275922
    31  H    0.232734
    32  N    0.488138
    33  O   -0.461040
    34  O   -0.460248
 Sum of Mulliken charges =  -0.00000

 Dipole moment (field-independent basis, Debye):
    X=             -0.6556    Y=              5.0537    Z=              0.6770  Tot=              5.1408
 Quadrupole moment (field-independent basis, Debye-Ang):
   XX=            -84.9603   YY=           -101.1428   ZZ=            -95.3745
   XY=            -11.8044   XZ=             -2.9969   YZ=             -1.1111

 Normal termination of Gaussian 16 at Wed May  5 23:34:18 2021.
