 Gaussian 16, Revision A.03,
 Gaussian 16:  EM64L-G16RevA.03 25-Dec-2016

 -------------
 #p 6-31g* mp2
 -------------

 ------------------------------------------------------
 Input file generated by CHIRIPA (05-May-2021 14:57:25)
 ------------------------------------------------------
 Symbolic Z-matrix:
 Charge =  0 Multiplicity = 1

                         Standard orientation:
 ---------------------------------------------------------------------
 Center     Atomic      Atomic             Coordinates (Angstroms)
 Number     Number       Type             X           Y           Z
 ---------------------------------------------------------------------
      1          6           0       -1.733309   -2.015510    0.700034
      2          6           0       -1.314980   -1.120286   -0.289963
      3          6           0       -2.162467   -0.097680   -0.726529
      4          6           0       -3.427313    0.000937   -0.148837
      5          6           0       -3.873013   -0.875512    0.839333
      6          6           0       -3.008742   -1.890486    1.260535
      7          1           0       -1.068442   -2.806931    1.033202
      8          1           0       -0.325007   -1.214981   -0.727036
      9          1           0       -1.864118    0.609036   -1.491355
     10          1           0       -4.865616   -0.755827    1.256266
     11          1           0       -3.336296   -2.584296    2.029548
     12          7           0       -4.333394    1.079485   -0.602877
     13          8           0       -5.442871    1.145016   -0.078088
     14          8           0       -3.916946    1.838896   -1.474945
     15          6           0        3.107070    2.509566    1.020056
     16          6           0        2.241104    1.506982    1.468886
     17          6           0        2.326751    0.210921    0.951743
     18          6           0        3.294503   -0.048700   -0.017456
     19          6           0        4.171620    0.928744   -0.484958
     20          6           0        4.067870    2.217762    0.046283
     21          1           0        3.033505    3.513641    1.427262
     22          1           0        1.493964    1.730724    2.225039
     23          1           0        1.668996   -0.584177    1.281280
     24          1           0        4.906190    0.675388   -1.239700
     25          1           0        4.741716    2.994398   -0.304164
     26          7           0        3.394756   -1.417054   -0.572395
     27          8           0        4.255971   -1.620183   -1.425439
     28          8           0        2.610222   -2.260531   -0.143804
 ---------------------------------------------------------------------

 SCF Done:  E(RHF) =  -868.339834343     A.U. after   16 cycles
 E2 =    -0.2599640805D+01 EUMP2 =    -0.87093947514753D+03

 The electronic state is 1-A.
 Alpha  occ. eigenvalues --  -20.61766 -20.61698 -20.60790 -20.60785 -15.86752
 Alpha  occ. eigenvalues --  -15.85839 -11.31891 -11.31144 -11.28445 -11.28385
 Alpha  occ. eigenvalues --  -11.28064 -11.27706 -11.27672 -11.27359 -11.27341
 Alpha  occ. eigenvalues --  -11.27331 -11.26685 -11.26565  -1.60789  -1.59868
 Alpha  occ. eigenvalues --   -1.40355  -1.39423  -1.20028  -1.19295  -1.09455
 Alpha  occ. eigenvalues --   -1.08683  -1.05388  -1.04676  -0.96331  -0.95531
 Alpha  occ. eigenvalues --   -0.86799  -0.86057  -0.83169  -0.82361  -0.78265
 Alpha  occ. eigenvalues --   -0.77431  -0.72974  -0.72107  -0.72051  -0.71194
 Alpha  occ. eigenvalues --   -0.71115  -0.70341  -0.65674  -0.65385  -0.64924
 Alpha  occ. eigenvalues --   -0.64624  -0.62746  -0.61994  -0.55868  -0.55105
 Alpha  occ. eigenvalues --   -0.53741  -0.53481  -0.53014  -0.52724  -0.49751
 Alpha  occ. eigenvalues --   -0.49696  -0.48818  -0.48806  -0.45790  -0.44842
 Alpha  occ. eigenvalues --   -0.37982  -0.37284  -0.36991  -0.36266
 Alpha virt. eigenvalues --    0.04226   0.05075   0.10528   0.11364   0.15763
 Alpha virt. eigenvalues --    0.16599   0.20597   0.21761   0.26322   0.27221
 Alpha virt. eigenvalues --    0.27775   0.28750   0.30732   0.31203   0.31777

 Mulliken charges:
               1
     1  C   -0.177068
     2  C   -0.227855
     3  C   -0.172838
     4  C    0.157870
     5  C   -0.172121
     6  C   -0.219146
     7  H    0.234576
     8  H    0.235148
     9  H    0.275023
    10  H    0.274865
    11  H    0.223501
    12  N    0.487997
    13  O   -0.460899
    14  O   -0.461281
    15  C   -0.169747
    16  C   -0.218027
    17  C   -0.174778
    18  C    0.156988
    19  C   -0.170596
    20  C   -0.218025
    21  H    0.229510
    22  H    0.227322
    23  H    0.270967
    24  H    0.277072
    25  H    0.226536
    26  N    0.488565
    27  O   -0.453776
    28  O   -0.469782
 Sum of Mulliken charges =  -0.00000

 Dipole moment (field-independent basis, Debye):
    X=              3.1147    Y=              1.1222    Z=              3.5491  Tot=              4.8535
 Quadrupole moment (field-independent basis, Debye-Ang):
   XX=           -123.9841   YY=           -105.0500   ZZ=           -102.4750
   XY=             32.3080   XZ=             -4.7540   YZ=             -1.5746

 Normal termination of Gaussian 16 at Thu May  6 08:18:42 2021.
