 Gaussian 16, Revision A.03,
 Gaussian 16:  EM64L-G16RevA.03 25-Dec-2016

 -------------
 #p 6-31g* mp2
 -------------

 ------------------------------------------------------
 Input file generated by CHIRIPA (05-May-2021 14:55:22)
 ------------------------------------------------------
 Symbolic Z-matrix:
 Charge =  0 Multiplicity = 1

                         Standard orientation:
 ---------------------------------------------------------------------
 Center     Atomic      Atomic             Coordinates (Angstroms)
 Number     Number       Type             X           Y           Z
 ---------------------------------------------------------------------
      1          6           0       -1.192243    1.729587   -0.310399
      2          6           0       -2.533759    2.122585   -0.359457
      3          6           0       -3.555574    1.180674   -0.206993
      4          6           0       -3.198319   -0.151740   -0.006163
      5          6           0       -1.871013   -0.574426    0.047552
      6          6           0       -0.865727    0.384706   -0.107409
      7          1           0       -0.404892    2.467975   -0.429807
      8          1           0       -2.790290    3.166341   -0.516971
      9          1           0       -4.602320    1.457450   -0.240704
     10          1           0       -1.646417   -1.622226    0.205948
     11          1           0        0.175254    0.076619   -0.068862
     12          7           0       -4.271319   -1.158015    0.156566
     13          8           0       -3.930297   -2.325682    0.332335
     14          8           0       -5.433041   -0.760012    0.105262
     15          6           0        3.689305   -0.744479   -0.112684
     16          6           0        4.872480   -1.702561    0.029301
     17          6           0        4.500248   -3.152101   -0.283869
     18          1           0        2.880300   -1.069419    0.555799
     19          1           0        3.294398   -0.809719   -1.136005
     20          1           0        5.265909   -1.634515    1.051651
     21          1           0        5.678835   -1.375192   -0.639456
     22          1           0        4.127836   -3.241228   -1.309523
     23          1           0        3.712563   -3.502024    0.391193
     24          1           0        5.360728   -3.819807   -0.176150
     25          6           0        4.045671    0.708365    0.197119
     26          6           0        2.862497    1.666449    0.055134
     27          6           0        3.234728    3.115987    0.368303
     28          1           0        4.440579    0.773607    1.220440
     29          1           0        4.854676    1.033305   -0.471364
     30          1           0        2.056141    1.339079    0.723891
     31          1           0        2.469068    1.598402   -0.967216
     32          1           0        4.022413    3.465911   -0.306758
     33          1           0        3.607140    3.205114    1.393958
     34          1           0        2.374249    3.783694    0.260585
 ---------------------------------------------------------------------

 SCF Done:  E(RHF) =  -669.535465861     A.U. after   15 cycles
 E2 =    -0.2092114749D+01 EUMP2 =    -0.67162758060930D+03

 The electronic state is 1-A.
 Alpha  occ. eigenvalues --  -20.60692 -20.60687 -15.85743 -11.31087 -11.27658
 Alpha  occ. eigenvalues --  -11.27634 -11.27363 -11.26668 -11.26575 -11.22939
 Alpha  occ. eigenvalues --  -11.22428 -11.22369 -11.22302 -11.22242 -11.21637
 Alpha  occ. eigenvalues --   -1.59768  -1.39322  -1.19251  -1.09452  -1.08646
 Alpha  occ. eigenvalues --   -1.04655  -1.04493  -0.96913  -0.95488  -0.87932
 Alpha  occ. eigenvalues --   -0.86053  -0.82320  -0.80624  -0.79272  -0.77366
 Alpha  occ. eigenvalues --   -0.71962  -0.71091  -0.70356  -0.66078  -0.64899
 Alpha  occ. eigenvalues --   -0.64657  -0.62048  -0.61842  -0.60308  -0.58546
 Alpha  occ. eigenvalues --   -0.56168  -0.55131  -0.53627  -0.53339  -0.52985
 Alpha  occ. eigenvalues --   -0.52743  -0.50843  -0.48916  -0.48720  -0.48693
 Alpha  occ. eigenvalues --   -0.47629  -0.46751  -0.46678  -0.44755  -0.44733
 Alpha  occ. eigenvalues --   -0.37227  -0.36253
 Alpha virt. eigenvalues --    0.05152   0.11321   0.16652   0.19466   0.22253
 Alpha virt. eigenvalues --    0.22857   0.24497   0.25703   0.25878   0.28711
 Alpha virt. eigenvalues --    0.29024   0.30461   0.30836   0.31270   0.32813

 Mulliken charges:
               1
     1  C   -0.175294
     2  C   -0.218765
     3  C   -0.171258
     4  C    0.158654
     5  C   -0.172209
     6  C   -0.225807
     7  H    0.229497
     8  H    0.222923
     9  H    0.275133
    10  H    0.275312
    11  H    0.232974
    12  N    0.488033
    13  O   -0.460686
    14  O   -0.460774
    15  C   -0.302208
    16  C   -0.300248
    17  C   -0.476718
    18  H    0.146449
    19  H    0.150033
    20  H    0.154230
    21  H    0.154276
    22  H    0.156234
    23  H    0.155955
    24  H    0.163451
    25  C   -0.297668
    26  C   -0.310469
    27  C   -0.475626
    28  H    0.153589
    29  H    0.153821
    30  H    0.150142
    31  H    0.150434
    32  H    0.160296
    33  H    0.160649
    34  H    0.155646
 Sum of Mulliken charges =  -0.00000

 Dipole moment (field-independent basis, Debye):
    X=              4.1199    Y=              3.5247    Z=             -0.5572  Tot=              5.4505
 Quadrupole moment (field-independent basis, Debye-Ang):
   XX=           -115.6097   YY=            -94.4245   ZZ=            -94.6254
   XY=            -14.9402   XZ=              2.0632   YZ=             -0.6827

 Normal termination of Gaussian 16 at Thu May  6 09:22:34 2021.
