 Gaussian 16, Revision A.03,
 Gaussian 16:  EM64L-G16RevA.03 25-Dec-2016

 -------------
 #p 6-31g* mp2
 -------------

 ------------------------------------------------------
 Input file generated by CHIRIPA (05-May-2021 14:53:17)
 ------------------------------------------------------
 Symbolic Z-matrix:
 Charge =  0 Multiplicity = 1

                         Standard orientation:
 ---------------------------------------------------------------------
 Center     Atomic      Atomic             Coordinates (Angstroms)
 Number     Number       Type             X           Y           Z
 ---------------------------------------------------------------------
      1          6           0       -3.744142    0.974163    0.050087
      2          6           0       -2.720185    1.932020   -0.559837
      3          6           0       -3.241862    3.365272   -0.666772
      4          1           0       -4.658443    0.988619   -0.558837
      5          1           0       -4.027188    1.337711    1.047641
      6          1           0       -2.438119    1.566025   -1.555379
      7          1           0       -1.808146    1.915138    0.050502
      8          1           0       -3.505620    3.754018    0.322121
      9          1           0       -4.139173    3.402921   -1.292884
     10          1           0       -2.493862    4.033085   -1.105387
     11          6           0       -3.237285   -0.462480    0.163573
     12          6           0       -4.261241   -1.420337    0.773498
     13          6           0       -3.739565   -2.853590    0.880433
     14          1           0       -2.954239   -0.826028   -0.833981
     15          1           0       -2.322983   -0.476936    0.772498
     16          1           0       -5.173281   -1.403455    0.163158
     17          1           0       -4.543307   -1.054342    1.769039
     18          1           0       -2.842254   -2.891239    1.506545
     19          1           0       -3.475807   -3.242336   -0.108460
     20          1           0       -4.487565   -3.521402    1.319047
     21          6           0        4.731048    0.960946    0.917883
     22          6           0        3.440785    1.416415    1.208212
     23          6           0        2.323162    0.780926    0.659012
     24          6           0        2.533387   -0.312100   -0.180268
     25          6           0        3.806304   -0.789537   -0.488530
     26          6           0        4.909375   -0.138638    0.071930
     27          1           0        5.593591    1.460593    1.348887
     28          1           0        3.299282    2.270133    1.864860
     29          1           0        1.313164    1.112674    0.867010
     30          1           0        3.915636   -1.643018   -1.146582
     31          1           0        5.910244   -0.494549   -0.155301
     32          7           0        1.357913   -0.993021   -0.767640
     33          8           0        1.569906   -1.953907   -1.504114
     34          8           0        0.246842   -0.552947   -0.480428
 ---------------------------------------------------------------------

 SCF Done:  E(RHF) =  -669.535615346     A.U. after   15 cycles
 E2 =    -0.2091816857D+01 EUMP2 =    -0.67162743220251D+03

 The electronic state is 1-A.
 Alpha  occ. eigenvalues --  -20.60906 -20.60900 -15.85938 -11.31284 -11.27855
 Alpha  occ. eigenvalues --  -11.27846 -11.27589 -11.26862 -11.26852 -11.20677
 Alpha  occ. eigenvalues --  -11.20504 -11.20459 -11.20375 -11.20001 -11.19881
 Alpha  occ. eigenvalues --   -1.59971  -1.39526  -1.19455  -1.08855  -1.07321
 Alpha  occ. eigenvalues --   -1.04855  -1.02557  -0.95695  -0.95000  -0.86254
 Alpha  occ. eigenvalues --   -0.86019  -0.82533  -0.78609  -0.77620  -0.77009
 Alpha  occ. eigenvalues --   -0.72147  -0.71286  -0.70564  -0.65111  -0.64858
 Alpha  occ. eigenvalues --   -0.63971  -0.62204  -0.59975  -0.58385  -0.56594
 Alpha  occ. eigenvalues --   -0.55357  -0.54300  -0.53185  -0.52948  -0.51757
 Alpha  occ. eigenvalues --   -0.51413  -0.48960  -0.48927  -0.48912  -0.46928
 Alpha  occ. eigenvalues --   -0.45660  -0.44964  -0.44556  -0.44465  -0.42757
 Alpha  occ. eigenvalues --   -0.37434  -0.36457
 Alpha virt. eigenvalues --    0.04937   0.11196   0.16420   0.20887   0.23524
 Alpha virt. eigenvalues --    0.25006   0.25949   0.27519   0.28072   0.28828
 Alpha virt. eigenvalues --    0.29298   0.31008   0.31698   0.32530   0.32557

 Mulliken charges:
               1
     1  C   -0.299362
     2  C   -0.295996
     3  C   -0.475560
     4  H    0.145775
     5  H    0.142937
     6  H    0.157879
     7  H    0.149586
     8  H    0.151096
     9  H    0.154255
    10  H    0.155709
    11  C   -0.296946
    12  C   -0.299889
    13  C   -0.473598
    14  H    0.159588
    15  H    0.159810
    16  H    0.147541
    17  H    0.145665
    18  H    0.155149
    19  H    0.159105
    20  H    0.154226
    21  C   -0.170571
    22  C   -0.218823
    23  C   -0.171343
    24  C    0.157480
    25  C   -0.170582
    26  C   -0.218607
    27  H    0.225963
    28  H    0.223879
    29  H    0.276297
    30  H    0.275834
    31  H    0.223782
    32  N    0.493330
    33  O   -0.459566
    34  O   -0.464043
 Sum of Mulliken charges =  -0.00000

 Dipole moment (field-independent basis, Debye):
    X=              4.4405    Y=              2.2620    Z=              1.9509  Tot=              5.3517
 Quadrupole moment (field-independent basis, Debye-Ang):
   XX=            -73.4708   YY=            -96.5214   ZZ=            -94.3016
   XY=              3.2417   XZ=              3.7654   YZ=              1.3006

 Normal termination of Gaussian 16 at Wed May  5 15:45:12 2021.
