 Gaussian 16, Revision A.03,
 Gaussian 16:  EM64L-G16RevA.03 25-Dec-2016

 -------------
 #p 6-31g* mp2
 -------------

 ------------------------------------------------------
 Input file generated by CHIRIPA (05-May-2021 14:55:20)
 ------------------------------------------------------
 Symbolic Z-matrix:
 Charge =  0 Multiplicity = 1

                         Standard orientation:
 ---------------------------------------------------------------------
 Center     Atomic      Atomic             Coordinates (Angstroms)
 Number     Number       Type             X           Y           Z
 ---------------------------------------------------------------------
      1          6           0       -5.596983   -1.206426   -0.661623
      2          6           0       -4.298878   -1.727366   -0.653527
      3          6           0       -3.210049   -0.915439   -0.322206
      4          6           0       -3.456752    0.418867   -0.002743
      5          6           0       -4.738377    0.967252   -0.001886
      6          6           0       -5.812210    0.136852   -0.336350
      7          1           0       -6.436987   -1.844325   -0.920222
      8          1           0       -4.128746   -2.770200   -0.905711
      9          1           0       -2.194768   -1.292827   -0.308064
     10          1           0       -4.876527    2.010734    0.254001
     11          1           0       -6.819253    0.544137   -0.341813
     12          7           0       -2.311995    1.288196    0.349675
     13          8           0       -2.555889    2.460400    0.627325
     14          8           0       -1.192516    0.780911    0.341578
     15          6           0        5.400455   -0.176481    0.192486
     16          6           0        6.044928    0.538749   -0.995406
     17          6           0        7.514028    0.884821   -0.750924
     18          1           0        5.485421    0.458690    1.084833
     19          1           0        5.963576   -1.095107    0.407927
     20          1           0        5.479932    1.455043   -1.209417
     21          1           0        5.958247   -0.098117   -1.885071
     22          1           0        8.096680   -0.022015   -0.559180
     23          1           0        7.615648    1.539970    0.120314
     24          1           0        7.954970    1.395500   -1.612689
     25          6           0        3.931824   -0.529032   -0.036770
     26          6           0        3.287351   -1.244262    1.151121
     27          6           0        1.818251   -1.590334    0.906639
     28          1           0        3.368703    0.389595   -0.252211
     29          1           0        3.846857   -1.164204   -0.929118
     30          1           0        3.374032   -0.607396    2.040787
     31          1           0        3.852346   -2.160556    1.365131
     32          1           0        1.716632   -2.245483    0.035402
     33          1           0        1.235599   -0.683498    0.714894
     34          1           0        1.377308   -2.101012    1.768403
 ---------------------------------------------------------------------

 SCF Done:  E(RHF) =  -669.536155123     A.U. after   15 cycles
 E2 =    -0.2090659158D+01 EUMP2 =    -0.67162681428036D+03

 The electronic state is 1-A.
 Alpha  occ. eigenvalues --  -20.60882 -20.60874 -15.85931 -11.31240 -11.27809
 Alpha  occ. eigenvalues --  -11.27793 -11.27549 -11.26816 -11.26804 -11.21077
 Alpha  occ. eigenvalues --  -11.20829 -11.20784 -11.20632 -11.20629 -11.20083
 Alpha  occ. eigenvalues --   -1.59950  -1.39505  -1.19411  -1.08818  -1.07765
 Alpha  occ. eigenvalues --   -1.04807  -1.02854  -0.95664  -0.95296  -0.86318
 Alpha  occ. eigenvalues --   -0.86207  -0.82497  -0.78934  -0.77595  -0.77519
 Alpha  occ. eigenvalues --   -0.72160  -0.71266  -0.70521  -0.65070  -0.64811
 Alpha  occ. eigenvalues --   -0.64390  -0.62152  -0.60239  -0.58692  -0.56912
 Alpha  occ. eigenvalues --   -0.55314  -0.54563  -0.53141  -0.52899  -0.52013
 Alpha  occ. eigenvalues --   -0.51718  -0.49245  -0.48910  -0.48869  -0.47236
 Alpha  occ. eigenvalues --   -0.45952  -0.45120  -0.45020  -0.44909  -0.43123
 Alpha  occ. eigenvalues --   -0.37394  -0.36409
 Alpha virt. eigenvalues --    0.04986   0.11246   0.16483   0.21283   0.23530
 Alpha virt. eigenvalues --    0.24946   0.26946   0.27314   0.27683   0.28227
 Alpha virt. eigenvalues --    0.29060   0.30817   0.31910   0.32127   0.32614

 Mulliken charges:
               1
     1  C   -0.170617
     2  C   -0.218719
     3  C   -0.171026
     4  C    0.157487
     5  C   -0.170816
     6  C   -0.218655
     7  H    0.225793
     8  H    0.223869
     9  H    0.277424
    10  H    0.275638
    11  H    0.223584
    12  N    0.496101
    13  O   -0.459643
    14  O   -0.468253
    15  C   -0.297944
    16  C   -0.299449
    17  C   -0.475386
    18  H    0.149991
    19  H    0.147115
    20  H    0.153542
    21  H    0.150349
    22  H    0.153810
    23  H    0.155213
    24  H    0.158933
    25  C   -0.299155
    26  C   -0.298113
    27  C   -0.487701
    28  H    0.156271
    29  H    0.146322
    30  H    0.152919
    31  H    0.146888
    32  H    0.145690
    33  H    0.184442
    34  H    0.154096
 Sum of Mulliken charges =  -0.00000

 Dipole moment (field-independent basis, Debye):
    X=             -4.2510    Y=             -2.9235    Z=             -1.2430  Tot=              5.3069
 Quadrupole moment (field-independent basis, Debye-Ang):
   XX=            -67.0979   YY=            -94.2733   ZZ=            -95.5221
   XY=              6.1310   XZ=              3.8324   YZ=              0.6152

 Normal termination of Gaussian 16 at Thu May  6 19:05:23 2021.
