 Gaussian 16, Revision A.03,
 Gaussian 16:  EM64L-G16RevA.03 25-Dec-2016

 -------------
 #p 6-31g* mp2
 -------------

 ------------------------------------------------------
 Input file generated by CHIRIPA (05-May-2021 14:57:25)
 ------------------------------------------------------
 Symbolic Z-matrix:
 Charge =  0 Multiplicity = 1

                         Standard orientation:
 ---------------------------------------------------------------------
 Center     Atomic      Atomic             Coordinates (Angstroms)
 Number     Number       Type             X           Y           Z
 ---------------------------------------------------------------------
      1          6           0       -4.431759    1.024212   -1.091112
      2          6           0       -4.099407    1.505942    0.179320
      3          6           0       -3.154056    0.840977    0.965884
      4          6           0       -2.557890   -0.307982    0.448420
      5          6           0       -2.867844   -0.812750   -0.813494
      6          6           0       -3.816003   -0.131559   -1.582598
      7          1           0       -5.167221    1.547075   -1.695352
      8          1           0       -4.576008    2.403292    0.563584
      9          1           0       -2.878074    1.192026    1.952807
     10          1           0       -2.375858   -1.709772   -1.169469
     11          1           0       -4.072154   -0.507972   -2.568876
     12          7           0       -1.555603   -1.020539    1.271878
     13          8           0       -1.044636   -2.030664    0.793132
     14          8           0       -1.299956   -0.555425    2.380459
     15          6           0        2.507677   -2.287150   -0.737627
     16          6           0        1.585572   -1.397850   -1.299224
     17          6           0        1.695194   -0.022996   -1.070513
     18          6           0        2.743903    0.430078   -0.271625
     19          6           0        3.678383   -0.430781    0.301926
     20          6           0        3.549303   -1.801633    0.059749
     21          1           0        2.414962   -3.353616   -0.920525
     22          1           0        0.775623   -1.772074   -1.918888
     23          1           0        0.995242    0.687682   -1.492913
     24          1           0        4.475147   -0.027856    0.915308
     25          1           0        4.266879   -2.489946    0.497189
     26          7           0        2.870254    1.883457   -0.022371
     27          8           0        3.803145    2.257390    0.685106
     28          8           0        2.034005    2.621161   -0.539204
 ---------------------------------------------------------------------

 SCF Done:  E(RHF) =  -868.338149619     A.U. after   16 cycles
 E2 =    -0.2600857173D+01 EUMP2 =    -0.87093900679241D+03

 The electronic state is 1-A.
 Alpha  occ. eigenvalues --  -20.61132 -20.61116 -20.60212 -20.60194 -15.86153
 Alpha  occ. eigenvalues --  -15.85253 -11.31502 -11.30433 -11.28135 -11.27983
 Alpha  occ. eigenvalues --  -11.27749 -11.27095 -11.26991 -11.26985 -11.26946
 Alpha  occ. eigenvalues --  -11.26629 -11.25987 -11.25941  -1.60183  -1.59281
 Alpha  occ. eigenvalues --   -1.39744  -1.38843  -1.19654  -1.18562  -1.09047
 Alpha  occ. eigenvalues --   -1.07984  -1.05053  -1.03964  -0.95894  -0.94865
 Alpha  occ. eigenvalues --   -0.86451  -0.85371  -0.82733  -0.81726  -0.77798
 Alpha  occ. eigenvalues --   -0.76806  -0.72395  -0.71506  -0.71482  -0.70755
 Alpha  occ. eigenvalues --   -0.70592  -0.69684  -0.65308  -0.65051  -0.64236
 Alpha  occ. eigenvalues --   -0.63996  -0.62410  -0.61348  -0.55534  -0.54453
 Alpha  occ. eigenvalues --   -0.53377  -0.53144  -0.52251  -0.52089  -0.49166
 Alpha  occ. eigenvalues --   -0.49121  -0.48246  -0.48220  -0.45157  -0.44293
 Alpha  occ. eigenvalues --   -0.37617  -0.36655  -0.36447  -0.35493
 Alpha virt. eigenvalues --    0.04714   0.05742   0.10968   0.12145   0.16263
 Alpha virt. eigenvalues --    0.17324   0.20722   0.22124   0.26072   0.27509
 Alpha virt. eigenvalues --    0.28635   0.29080   0.30420   0.31458   0.32737

 Mulliken charges:
               1
     1  C   -0.170107
     2  C   -0.217016
     3  C   -0.168382
     4  C    0.159029
     5  C   -0.176049
     6  C   -0.217997
     7  H    0.227402
     8  H    0.226635
     9  H    0.278778
    10  H    0.268575
    11  H    0.222832
    12  N    0.488898
    13  O   -0.465417
    14  O   -0.455719
    15  C   -0.163848
    16  C   -0.200461
    17  C   -0.178726
    18  C    0.161080
    19  C   -0.170150
    20  C   -0.216694
    21  H    0.224872
    22  H    0.216019
    23  H    0.269277
    24  H    0.273447
    25  H    0.221789
    26  N    0.488610
    27  O   -0.461250
    28  O   -0.465428
 Sum of Mulliken charges =  -0.00000

 Dipole moment (field-independent basis, Debye):
    X=             -4.1328    Y=             -2.6546    Z=             -3.5900  Tot=              6.0840
 Quadrupole moment (field-independent basis, Debye-Ang):
   XX=            -86.4423   YY=           -109.3284   ZZ=           -103.6557
   XY=            -21.9935   XZ=              5.8284   YZ=              5.4202

 Normal termination of Gaussian 16 at Fri May  7 01:56:41 2021.
