 Gaussian 16, Revision A.03,
 Gaussian 16:  EM64L-G16RevA.03 25-Dec-2016

 -------------
 #p 6-31g* mp2
 -------------

 ------------------------------------------------------
 Input file generated by CHIRIPA (05-May-2021 14:53:18)
 ------------------------------------------------------
 Symbolic Z-matrix:
 Charge =  0 Multiplicity = 1

                         Standard orientation:
 ---------------------------------------------------------------------
 Center     Atomic      Atomic             Coordinates (Angstroms)
 Number     Number       Type             X           Y           Z
 ---------------------------------------------------------------------
      1          6           0       -3.278250   -0.201272    0.689726
      2          6           0       -2.682168   -1.601135    0.841569
      3          6           0       -1.542641   -1.651167    1.859787
      4          1           0       -2.485357    0.497362    0.389431
      5          1           0       -3.643609    0.142128    1.667470
      6          1           0       -2.319293   -1.942353   -0.136443
      7          1           0       -3.476610   -2.296554    1.141351
      8          1           0       -1.894450   -1.336043    2.847476
      9          1           0       -0.730556   -0.979830    1.562421
     10          1           0       -1.131167   -2.661093    1.952517
     11          6           0       -4.418537   -0.135141   -0.324719
     12          6           0       -5.014619    1.264722   -0.476562
     13          6           0       -6.154146    1.314754   -1.494781
     14          1           0       -4.053178   -0.478541   -1.302464
     15          1           0       -5.211430   -0.833775   -0.024424
     16          1           0       -4.220177    1.960141   -0.776344
     17          1           0       -5.377495    1.605940    0.501450
     18          1           0       -6.966231    0.643417   -1.197415
     19          1           0       -5.802337    0.999630   -2.482469
     20          1           0       -6.565620    2.324680   -1.587511
     21          6           0        2.720323   -2.185446   -1.099745
     22          6           0        1.950551   -1.780617   -0.004261
     23          6           0        2.100735   -0.499240    0.534313
     24          6           0        3.034230    0.355396   -0.050046
     25          6           0        3.815933   -0.018608   -1.141994
     26          6           0        3.648920   -1.304702   -1.664121
     27          1           0        2.597120   -3.182683   -1.511735
     28          1           0        1.228623   -2.462500    0.436080
     29          1           0        1.517828   -0.159949    1.381968
     30          1           0        4.527488    0.683415   -1.559450
     31          1           0        4.248100   -1.616384   -2.514934
     32          7           0        3.202130    1.714431    0.511413
     33          8           0        4.031378    2.448548   -0.021557
     34          8           0        2.501304    2.019791    1.473823
 ---------------------------------------------------------------------

 SCF Done:  E(RHF) =  -669.535158314     A.U. after   15 cycles
 E2 =    -0.2091823479D+01 EUMP2 =    -0.67162698179269D+03

 The electronic state is 1-A.
 Alpha  occ. eigenvalues --  -20.60754 -20.60748 -15.85805 -11.31164 -11.27733
 Alpha  occ. eigenvalues --  -11.27703 -11.27464 -11.26754 -11.26695 -11.22198
 Alpha  occ. eigenvalues --  -11.21944 -11.21729 -11.21710 -11.21606 -11.21171
 Alpha  occ. eigenvalues --   -1.59829  -1.39382  -1.19334  -1.08772  -1.08728
 Alpha  occ. eigenvalues --   -1.04741  -1.03926  -0.96400  -0.95567  -0.87428
 Alpha  occ. eigenvalues --   -0.86131  -0.82401  -0.80002  -0.78537  -0.77445
 Alpha  occ. eigenvalues --   -0.72024  -0.71152  -0.70456  -0.65413  -0.64982
 Alpha  occ. eigenvalues --   -0.64740  -0.62210  -0.61228  -0.59794  -0.57983
 Alpha  occ. eigenvalues --   -0.55706  -0.55202  -0.53154  -0.53078  -0.52925
 Alpha  occ. eigenvalues --   -0.52653  -0.50328  -0.48781  -0.48778  -0.48303
 Alpha  occ. eigenvalues --   -0.47008  -0.46089  -0.45984  -0.44788  -0.44162
 Alpha  occ. eigenvalues --   -0.37317  -0.36327
 Alpha virt. eigenvalues --    0.05058   0.11295   0.16504   0.20200   0.22799
 Alpha virt. eigenvalues --    0.23899   0.25550   0.26521   0.26632   0.27914
 Alpha virt. eigenvalues --    0.29087   0.30165   0.31379   0.31615   0.32202

 Mulliken charges:
               1
     1  C   -0.299722
     2  C   -0.299199
     3  C   -0.483781
     4  H    0.153414
     5  H    0.152055
     6  H    0.150038
     7  H    0.154339
     8  H    0.163074
     9  H    0.152821
    10  H    0.154836
    11  C   -0.298677
    12  C   -0.300359
    13  C   -0.475939
    14  H    0.149015
    15  H    0.149537
    16  H    0.154350
    17  H    0.153115
    18  H    0.154862
    19  H    0.154887
    20  H    0.161678
    21  C   -0.171677
    22  C   -0.220755
    23  C   -0.178366
    24  C    0.159895
    25  C   -0.171273
    26  C   -0.218372
    27  H    0.225573
    28  H    0.229392
    29  H    0.279230
    30  H    0.275445
    31  H    0.223296
    32  N    0.488310
    33  O   -0.460523
    34  O   -0.460520
 Sum of Mulliken charges =  -0.00000

 Dipole moment (field-independent basis, Debye):
    X=             -0.7407    Y=             -4.7358    Z=             -1.9685  Tot=              5.1818
 Quadrupole moment (field-independent basis, Debye-Ang):
   XX=            -96.1164   YY=            -98.7096   ZZ=            -92.5029
   XY=            -13.9108   XZ=            -10.0968   YZ=             -1.1662

 Normal termination of Gaussian 16 at Wed May  5 15:47:13 2021.
