 Gaussian 16, Revision A.03,
 Gaussian 16:  EM64L-G16RevA.03 25-Dec-2016

 -------------
 #p 6-31g* mp2
 -------------

 ------------------------------------------------------
 Input file generated by CHIRIPA (05-May-2021 14:57:27)
 ------------------------------------------------------
 Symbolic Z-matrix:
 Charge =  0 Multiplicity = 1

                         Standard orientation:
 ---------------------------------------------------------------------
 Center     Atomic      Atomic             Coordinates (Angstroms)
 Number     Number       Type             X           Y           Z
 ---------------------------------------------------------------------
      1          6           0        2.185269   -2.661359    0.375677
      2          6           0        2.276409   -1.804037    1.477136
      3          6           0        2.601161   -0.455514    1.302292
      4          6           0        2.829445    0.004123    0.006179
      5          6           0        2.746233   -0.825149   -1.111262
      6          6           0        2.420058   -2.170045   -0.912735
      7          1           0        1.932440   -3.707515    0.520698
      8          1           0        2.094591   -2.182835    2.478884
      9          1           0        2.678420    0.230165    2.137332
     10          1           0        2.932978   -0.418434   -2.097734
     11          1           0        2.349979   -2.833550   -1.769996
     12          7           0        3.173999    1.429824   -0.191457
     13          8           0        3.370475    1.810189   -1.343567
     14          8           0        3.241060    2.139928    0.809489
     15          6           0       -2.098954    2.654782    0.152546
     16          6           0       -1.122762    1.668828   -0.024835
     17          6           0       -1.484526    0.322656   -0.132060
     18          6           0       -2.837790   -0.003488   -0.057246
     19          6           0       -3.833784    0.955791    0.119016
     20          6           0       -3.448970    2.295750    0.223779
     21          1           0       -1.808974    3.698108    0.234885
     22          1           0       -0.073562    1.944737   -0.080510
     23          1           0       -0.749429   -0.460976   -0.269794
     24          1           0       -4.871678    0.649986    0.170771
     25          1           0       -4.209257    3.059323    0.361491
     26          7           0       -3.232974   -1.425330   -0.169457
     27          8           0       -4.431956   -1.686690   -0.100381
     28          8           0       -2.336256   -2.251489   -0.324359
 ---------------------------------------------------------------------

 SCF Done:  E(RHF) =  -868.339905439     A.U. after   16 cycles
 E2 =    -0.2600247029D+01 EUMP2 =    -0.87094015246833D+03

 The electronic state is 1-A.
 Alpha  occ. eigenvalues --  -20.61512 -20.61503 -20.60896 -20.60868 -15.86551
 Alpha  occ. eigenvalues --  -15.85932 -11.31720 -11.31095 -11.28241 -11.28232
 Alpha  occ. eigenvalues --  -11.27832 -11.27655 -11.27602 -11.27295 -11.27133
 Alpha  occ. eigenvalues --  -11.27122 -11.26615 -11.26542  -1.60611  -1.59963
 Alpha  occ. eigenvalues --   -1.40156  -1.39523  -1.19862  -1.19243  -1.09259
 Alpha  occ. eigenvalues --   -1.08664  -1.05196  -1.04614  -0.96126  -0.95535
 Alpha  occ. eigenvalues --   -0.86582  -0.86011  -0.82946  -0.82380  -0.78051
 Alpha  occ. eigenvalues --   -0.77463  -0.72746  -0.72160  -0.71974  -0.71282
 Alpha  occ. eigenvalues --   -0.70861  -0.70321  -0.65465  -0.65137  -0.64889
 Alpha  occ. eigenvalues --   -0.64594  -0.62526  -0.61968  -0.55608  -0.55095
 Alpha  occ. eigenvalues --   -0.53572  -0.53239  -0.52959  -0.52664  -0.49526
 Alpha  occ. eigenvalues --   -0.49496  -0.48920  -0.48892  -0.45590  -0.44975
 Alpha  occ. eigenvalues --   -0.37780  -0.37200  -0.36837  -0.36190
 Alpha virt. eigenvalues --    0.04434   0.05058   0.10858   0.11448   0.16006
 Alpha virt. eigenvalues --    0.16610   0.21158   0.21459   0.26760   0.27113
 Alpha virt. eigenvalues --    0.28116   0.28419   0.30461   0.31241   0.32182

 Mulliken charges:
               1
     1  C   -0.165719
     2  C   -0.219041
     3  C   -0.174708
     4  C    0.148461
     5  C   -0.175479
     6  C   -0.218510
     7  H    0.234121
     8  H    0.227769
     9  H    0.275960
    10  H    0.277007
    11  H    0.229495
    12  N    0.486044
    13  O   -0.458699
    14  O   -0.461763
    15  C   -0.170918
    16  C   -0.220622
    17  C   -0.175760
    18  C    0.157434
    19  C   -0.171449
    20  C   -0.219067
    21  H    0.230204
    22  H    0.229158
    23  H    0.276139
    24  H    0.274399
    25  H    0.223434
    26  N    0.488277
    27  O   -0.460390
    28  O   -0.465775
 Sum of Mulliken charges =  -0.00000

 Dipole moment (field-independent basis, Debye):
    X=              0.3306    Y=             -0.1822    Z=              1.1128  Tot=              1.1751
 Quadrupole moment (field-independent basis, Debye-Ang):
   XX=           -115.9466   YY=           -104.5930   ZZ=           -100.6235
   XY=            -31.0282   XZ=             -0.1855   YZ=              0.6185

 Normal termination of Gaussian 16 at Thu May  6 08:25:01 2021.
