 Gaussian 16, Revision A.03,
 Gaussian 16:  EM64L-G16RevA.03 25-Dec-2016

 -------------
 #p 6-31g* mp2
 -------------

 ------------------------------------------------------
 Input file generated by CHIRIPA (05-May-2021 14:51:09)
 ------------------------------------------------------
 Symbolic Z-matrix:
 Charge =  0 Multiplicity = 1

                         Standard orientation:
 ---------------------------------------------------------------------
 Center     Atomic      Atomic             Coordinates (Angstroms)
 Number     Number       Type             X           Y           Z
 ---------------------------------------------------------------------
      1          6           0        2.506592   -0.934035    0.037832
      2          6           0        1.633583   -1.910899   -0.750568
      3          6           0        2.091499   -3.362476   -0.605553
      4          1           0        3.547599   -1.027172   -0.300658
      5          1           0        2.496382   -1.218419    1.099160
      6          1           0        1.644327   -1.623932   -1.809884
      7          1           0        0.594502   -1.815289   -0.410295
      8          1           0        2.063732   -3.672145    0.444178
      9          1           0        3.119522   -3.479700   -0.963363
     10          1           0        1.453548   -4.043709   -1.177217
     11          6           0        2.061382    0.521056   -0.097172
     12          6           0        2.934391    1.497921    0.691229
     13          6           0        2.476475    2.949498    0.546213
     14          1           0        2.071591    0.805441   -1.158500
     15          1           0        1.020375    0.614193    0.241319
     16          1           0        3.973472    1.402311    0.350955
     17          1           0        2.923647    1.210954    1.750545
     18          1           0        1.448452    3.066722    0.904024
     19          1           0        2.504242    3.259167   -0.503518
     20          1           0        3.114426    3.630731    1.117878
     21          6           0       -2.189069    0.933130    0.245111
     22          6           0       -2.178401    1.916319   -0.925877
     23          6           0       -1.987649    3.366003   -0.478862
     24          1           0       -2.991000    1.211877    0.942356
     25          1           0       -1.245636    1.025331    0.800836
     26          1           0       -3.120998    1.821312   -1.480043
     27          1           0       -1.376525    1.635084   -1.620512
     28          1           0       -1.039279    3.482744    0.055524
     29          1           0       -2.793664    3.670029    0.196790
     30          1           0       -1.983114    4.051833   -1.331785
     31          6           0       -2.378905   -0.520152   -0.185771
     32          6           0       -2.389573   -1.503340    0.985216
     33          6           0       -2.580325   -2.953025    0.538202
     34          1           0       -3.322338   -0.612352   -0.741497
     35          1           0       -1.576974   -0.798899   -0.883017
     36          1           0       -3.191450   -1.222106    1.679852
     37          1           0       -1.446975   -1.408334    1.539383
     38          1           0       -1.774309   -3.257051   -0.137451
     39          1           0       -3.528694   -3.069766    0.003816
     40          1           0       -2.584860   -3.638855    1.391125
 ---------------------------------------------------------------------

 SCF Done:  E(RHF) =  -470.732507513     A.U. after   11 cycles
 E2 =    -0.1585917056D+01 EUMP2 =    -0.47231842456902D+03

 The electronic state is 1-A.
 Alpha  occ. eigenvalues --  -11.21671 -11.21660 -11.21642 -11.21571 -11.21474
 Alpha  occ. eigenvalues --  -11.21414 -11.21400 -11.21339 -11.21143 -11.21126
 Alpha  occ. eigenvalues --  -11.21093 -11.21032  -1.08552  -1.08402  -1.03631
 Alpha  occ. eigenvalues --   -1.03508  -0.96069  -0.95963  -0.87100  -0.86965
 Alpha  occ. eigenvalues --   -0.79682  -0.79598  -0.78341  -0.78253  -0.65545
 Alpha  occ. eigenvalues --   -0.64709  -0.61296  -0.60685  -0.59396  -0.59348
 Alpha  occ. eigenvalues --   -0.57701  -0.57577  -0.55537  -0.55083  -0.52739
 Alpha  occ. eigenvalues --   -0.52671  -0.52526  -0.52375  -0.50180  -0.49711
 Alpha  occ. eigenvalues --   -0.48163  -0.47786  -0.46805  -0.46692  -0.46245
 Alpha  occ. eigenvalues --   -0.45850  -0.45543  -0.45226  -0.43853  -0.43783
 Alpha virt. eigenvalues --    0.19162   0.21179   0.23765   0.25117   0.25464
 Alpha virt. eigenvalues --    0.25822   0.26294   0.27844   0.29210   0.29950
 Alpha virt. eigenvalues --    0.30923   0.31102   0.31511   0.32064   0.32450

 Mulliken charges:
               1
     1  C   -0.297262
     2  C   -0.310132
     3  C   -0.475396
     4  H    0.150166
     5  H    0.149316
     6  H    0.151700
     7  H    0.162036
     8  H    0.155558
     9  H    0.155502
    10  H    0.160393
    11  C   -0.307922
    12  C   -0.299255
    13  C   -0.479833
    14  H    0.149561
    15  H    0.158292
    16  H    0.152483
    17  H    0.151938
    18  H    0.158087
    19  H    0.155893
    20  H    0.160965
    21  C   -0.302332
    22  C   -0.300183
    23  C   -0.479955
    24  H    0.150244
    25  H    0.151496
    26  H    0.151892
    27  H    0.153601
    28  H    0.159153
    29  H    0.154827
    30  H    0.160386
    31  C   -0.303736
    32  C   -0.300642
    33  C   -0.477894
    34  H    0.150193
    35  H    0.154304
    36  H    0.152753
    37  H    0.150785
    38  H    0.157085
    39  H    0.155532
    40  H    0.160402
 Sum of Mulliken charges =  -0.00000

 Dipole moment (field-independent basis, Debye):
    X=              0.0218    Y=             -0.0047    Z=             -0.0130  Tot=              0.0258
 Quadrupole moment (field-independent basis, Debye-Ang):
   XX=            -83.4022   YY=            -87.1213   ZZ=            -84.1398
   XY=              0.1022   XZ=             -0.5761   YZ=             -0.2550

 Normal termination of Gaussian 16 at Wed May  5 21:23:22 2021.
