 Gaussian 16, Revision A.03,
 Gaussian 16:  EM64L-G16RevA.03 25-Dec-2016

 -------------
 #p 6-31g* mp2
 -------------

 ------------------------------------------------------
 Input file generated by CHIRIPA (05-May-2021 14:57:25)
 ------------------------------------------------------
 Symbolic Z-matrix:
 Charge =  0 Multiplicity = 1

                         Standard orientation:
 ---------------------------------------------------------------------
 Center     Atomic      Atomic             Coordinates (Angstroms)
 Number     Number       Type             X           Y           Z
 ---------------------------------------------------------------------
      1          6           0       -2.096361    1.057840    1.547837
      2          6           0       -3.190134    1.822658    1.129225
      3          6           0       -4.222370    1.239456    0.388339
      4          6           0       -4.128050   -0.117297    0.082373
      5          6           0       -3.051294   -0.905805    0.485041
      6          6           0       -2.030548   -0.301554    1.224978
      7          1           0       -1.298958    1.519061    2.123006
      8          1           0       -3.243904    2.878599    1.378509
      9          1           0       -5.080600    1.808169    0.051553
     10          1           0       -3.025711   -1.956124    0.221235
     11          1           0       -1.182312   -0.897973    1.548745
     12          7           0       -5.214750   -0.745848   -0.701468
     13          8           0       -5.107999   -1.943087   -0.958101
     14          8           0       -6.152679   -0.029367   -1.044366
     15          6           0        6.284606   -0.786860    0.307793
     16          6           0        6.092809    0.313406   -0.534319
     17          6           0        4.803177    0.765688   -0.829001
     18          6           0        3.723146    0.091100   -0.261768
     19          6           0        3.881724   -1.008031    0.580880
     20          6           0        5.180397   -1.442909    0.861728
     21          1           0        7.289935   -1.131443    0.531336
     22          1           0        6.948491    0.824840   -0.965929
     23          1           0        4.626007    1.614909   -1.477732
     24          1           0        3.009131   -1.497438    0.996187
     25          1           0        5.326342   -2.297659    1.516059
     26          7           0        2.353084    0.560698   -0.566412
     27          8           0        1.418128   -0.050852   -0.054064
     28          8           0        2.240128    1.531427   -1.311773
 ---------------------------------------------------------------------

 SCF Done:  E(RHF) =  -868.338957051     A.U. after   16 cycles
 E2 =    -0.2598751657D+01 EUMP2 =    -0.87093770870804D+03

 The electronic state is 1-A.
 Alpha  occ. eigenvalues --  -20.61581 -20.61525 -20.59888 -20.59883 -15.86604
 Alpha  occ. eigenvalues --  -15.84933 -11.31815 -11.30078 -11.28393 -11.28339
 Alpha  occ. eigenvalues --  -11.28057 -11.27345 -11.27317 -11.26643 -11.26577
 Alpha  occ. eigenvalues --  -11.26266 -11.25626 -11.25489  -1.60623  -1.58967
 Alpha  occ. eigenvalues --   -1.40185  -1.38528  -1.19968  -1.18210  -1.09387
 Alpha  occ. eigenvalues --   -1.07635  -1.05350  -1.03585  -0.96250  -0.94518
 Alpha  occ. eigenvalues --   -0.86754  -0.84989  -0.83092  -0.81366  -0.78163
 Alpha  occ. eigenvalues --   -0.76452  -0.72833  -0.71939  -0.71161  -0.71072
 Alpha  occ. eigenvalues --   -0.70284  -0.69320  -0.65626  -0.65346  -0.63865
 Alpha  occ. eigenvalues --   -0.63579  -0.62703  -0.60952  -0.55843  -0.54077
 Alpha  occ. eigenvalues --   -0.53684  -0.53438  -0.51908  -0.51683  -0.49584
 Alpha  occ. eigenvalues --   -0.49547  -0.47926  -0.47895  -0.45626  -0.43984
 Alpha  occ. eigenvalues --   -0.37932  -0.36946  -0.36130  -0.35158
 Alpha virt. eigenvalues --    0.04363   0.06079   0.10711   0.12497   0.15892
 Alpha virt. eigenvalues --    0.17652   0.20828   0.22539   0.26727   0.27477
 Alpha virt. eigenvalues --    0.28565   0.29398   0.30442   0.31622   0.32484

 Mulliken charges:
               1
     1  C   -0.164966
     2  C   -0.218549
     3  C   -0.172421
     4  C    0.158036
     5  C   -0.173068
     6  C   -0.205156
     7  H    0.224407
     8  H    0.219670
     9  H    0.271797
    10  H    0.271667
    11  H    0.226030
    12  N    0.488309
    13  O   -0.463272
    14  O   -0.463507
    15  C   -0.170173
    16  C   -0.218326
    17  C   -0.170554
    18  C    0.158102
    19  C   -0.170724
    20  C   -0.218201
    21  H    0.227716
    22  H    0.225537
    23  H    0.276834
    24  H    0.271519
    25  H    0.224724
    26  N    0.490714
    27  O   -0.470146
    28  O   -0.455998
 Sum of Mulliken charges =  -0.00000

 Dipole moment (field-independent basis, Debye):
    X=              9.1786    Y=              0.6029    Z=              3.8242  Tot=              9.9617
 Quadrupole moment (field-independent basis, Debye-Ang):
   XX=           -100.1350   YY=            -99.7846   ZZ=           -104.6398
   XY=            -16.2922   XZ=             -9.6228   YZ=             -2.4002

 Normal termination of Gaussian 16 at Fri May  7 00:24:38 2021.
