 Gaussian 16, Revision A.03,
 Gaussian 16:  EM64L-G16RevA.03 25-Dec-2016

 -------------
 #p 6-31g* mp2
 -------------

 ------------------------------------------------------
 Input file generated by CHIRIPA (05-May-2021 14:55:23)
 ------------------------------------------------------
 Symbolic Z-matrix:
 Charge =  0 Multiplicity = 1

                         Standard orientation:
 ---------------------------------------------------------------------
 Center     Atomic      Atomic             Coordinates (Angstroms)
 Number     Number       Type             X           Y           Z
 ---------------------------------------------------------------------
      1          6           0       -3.581102    0.605469    0.585296
      2          6           0       -2.897550   -0.108320    1.575136
      3          6           0       -1.829788   -0.945265    1.237565
      4          6           0       -1.470661   -1.045250   -0.105685
      5          6           0       -2.132051   -0.347020   -1.114807
      6          6           0       -3.196848    0.484055   -0.754155
      7          1           0       -4.409414    1.253348    0.856494
      8          1           0       -3.193773   -0.015969    2.616178
      9          1           0       -1.283267   -1.509270    1.983643
     10          1           0       -1.813650   -0.459529   -2.144069
     11          1           0       -3.725886    1.037197   -1.524997
     12          7           0       -0.341839   -1.928179   -0.475273
     13          8           0       -0.044960   -1.999002   -1.665855
     14          8           0        0.224680   -2.532677    0.432623
     15          6           0        2.859889    0.968245    0.114017
     16          6           0        3.100434   -0.530526    0.297898
     17          6           0        4.584323   -0.881738    0.409775
     18          1           0        3.387984    1.310109   -0.786645
     19          1           0        3.303090    1.510266    0.960883
     20          1           0        2.655706   -1.069665   -0.548365
     21          1           0        2.571549   -0.868899    1.198120
     22          1           0        5.037967   -0.369866    1.264640
     23          1           0        5.122601   -0.571772   -0.491768
     24          1           0        4.733367   -1.958078    0.540686
     25          6           0        1.381275    1.335071    0.000599
     26          6           0        1.140730    2.833840   -0.183282
     27          6           0       -0.343158    3.185053   -0.295158
     28          1           0        0.938074    0.793050   -0.846266
     29          1           0        0.853181    0.993207    0.901261
     30          1           0        1.669615    3.172215   -1.083503
     31          1           0        1.585459    3.372981    0.662982
     32          1           0       -0.881436    2.875088    0.606384
     33          1           0       -0.796802    2.673181   -1.150023
     34          1           0       -0.492202    4.261394   -0.426069
 ---------------------------------------------------------------------

 SCF Done:  E(RHF) =  -669.535287687     A.U. after   15 cycles
 E2 =    -0.2097054580D+01 EUMP2 =    -0.67163234226648D+03

 The electronic state is 1-A.
 Alpha  occ. eigenvalues --  -20.61004 -20.60978 -15.85951 -11.31251 -11.27824
 Alpha  occ. eigenvalues --  -11.27804 -11.27556 -11.26858 -11.26830 -11.21406
 Alpha  occ. eigenvalues --  -11.21038 -11.20988 -11.20665 -11.20325 -11.20078
 Alpha  occ. eigenvalues --   -1.60014  -1.39578  -1.19435  -1.08844  -1.07872
 Alpha  occ. eigenvalues --   -1.04838  -1.02908  -0.95693  -0.95439  -0.86465
 Alpha  occ. eigenvalues --   -0.86235  -0.82541  -0.79052  -0.77696  -0.77563
 Alpha  occ. eigenvalues --   -0.72208  -0.71265  -0.70549  -0.65103  -0.64844
 Alpha  occ. eigenvalues --   -0.64504  -0.62189  -0.60310  -0.58865  -0.57017
 Alpha  occ. eigenvalues --   -0.55340  -0.54758  -0.53211  -0.52931  -0.52140
 Alpha  occ. eigenvalues --   -0.51866  -0.49424  -0.49006  -0.48978  -0.47285
 Alpha  occ. eigenvalues --   -0.46116  -0.45460  -0.45025  -0.44479  -0.43185
 Alpha  occ. eigenvalues --   -0.37339  -0.36376
 Alpha virt. eigenvalues --    0.04866   0.11101   0.16338   0.21206   0.23371
 Alpha virt. eigenvalues --    0.24847   0.26653   0.27381   0.27569   0.28432
 Alpha virt. eigenvalues --    0.28616   0.31005   0.31824   0.32110   0.32477

 Mulliken charges:
               1
     1  C   -0.170326
     2  C   -0.219120
     3  C   -0.172432
     4  C    0.165276
     5  C   -0.172718
     6  C   -0.214782
     7  H    0.226203
     8  H    0.223774
     9  H    0.275285
    10  H    0.275079
    11  H    0.224060
    12  N    0.490410
    13  O   -0.461240
    14  O   -0.456038
    15  C   -0.296698
    16  C   -0.307383
    17  C   -0.475910
    18  H    0.148054
    19  H    0.145038
    20  H    0.170503
    21  H    0.156231
    22  H    0.149087
    23  H    0.151919
    24  H    0.163556
    25  C   -0.305923
    26  C   -0.298451
    27  C   -0.475583
    28  H    0.151059
    29  H    0.146489
    30  H    0.152305
    31  H    0.150832
    32  H    0.153629
    33  H    0.151231
    34  H    0.156585
 Sum of Mulliken charges =  -0.00000

 Dipole moment (field-independent basis, Debye):
    X=             -4.1226    Y=              2.8332    Z=              1.2739  Tot=              5.1620
 Quadrupole moment (field-independent basis, Debye-Ang):
   XX=            -84.9749   YY=           -102.2013   ZZ=            -89.4832
   XY=             -0.6511   XZ=             -1.1957   YZ=             -2.9167

 Normal termination of Gaussian 16 at Thu May  6 06:19:43 2021.
