 Gaussian 16, Revision A.03,
 Gaussian 16:  EM64L-G16RevA.03 25-Dec-2016

 -------------
 #p 6-31g* mp2
 -------------

 ------------------------------------------------------
 Input file generated by CHIRIPA (05-May-2021 14:51:10)
 ------------------------------------------------------
 Symbolic Z-matrix:
 Charge =  0 Multiplicity = 1

                         Standard orientation:
 ---------------------------------------------------------------------
 Center     Atomic      Atomic             Coordinates (Angstroms)
 Number     Number       Type             X           Y           Z
 ---------------------------------------------------------------------
      1          6           0        3.105917   -0.389889   -0.478335
      2          6           0        4.482374    0.074171   -0.000844
      3          6           0        5.207305    0.935922   -1.035086
      4          1           0        3.220596   -0.955325   -1.413255
      5          1           0        2.492952    0.489923   -0.718335
      6          1           0        5.092092   -0.806223    0.239500
      7          1           0        4.364424    0.638405    0.933149
      8          1           0        4.622406    1.831512   -1.268354
      9          1           0        5.354209    0.378675   -1.965944
     10          1           0        6.189125    1.256683   -0.673146
     11          6           0        2.368839   -1.252370    0.544686
     12          6           0        0.992381   -1.716430    0.067195
     13          6           0        0.267451   -2.578180    1.101437
     14          1           0        2.981804   -2.132182    0.784686
     15          1           0        2.254160   -0.686933    1.479606
     16          1           0        1.110331   -2.280663   -0.866798
     17          1           0        0.382663   -0.836035   -0.173150
     18          1           0        0.120547   -2.020934    2.032295
     19          1           0        0.852350   -3.473770    1.334705
     20          1           0       -0.714369   -2.898941    0.739497
     21          6           0       -3.231882    0.514260   -0.527877
     22          6           0       -3.868425   -0.781487   -0.024057
     23          6           0       -4.855367   -1.383352   -1.024806
     24          1           0       -4.023957    1.243184   -0.747496
     25          1           0       -2.717018    0.316309   -1.478206
     26          1           0       -4.380763   -0.581454    0.925739
     27          1           0       -3.074733   -1.507347    0.194570
     28          1           0       -4.353893   -1.611062   -1.970994
     29          1           0       -5.667344   -0.679909   -1.235671
     30          1           0       -5.298590   -2.308941   -0.644412
     31          6           0       -2.242874    1.127998    0.461526
     32          6           0       -1.606330    2.423746   -0.042294
     33          6           0       -0.619388    3.025611    0.958455
     34          1           0       -2.757737    1.325949    1.411855
     35          1           0       -1.450799    0.399075    0.681145
     36          1           0       -2.400023    3.149604   -0.260920
     37          1           0       -1.093993    2.223713   -0.992089
     38          1           0        0.192588    2.322168    1.169321
     39          1           0       -1.120864    3.253320    1.904644
     40          1           0       -0.176166    3.951198    0.578061
 ---------------------------------------------------------------------

 SCF Done:  E(RHF) =  -470.733247085     A.U. after   11 cycles
 E2 =    -0.1583865078D+01 EUMP2 =    -0.47231711216256D+03

 The electronic state is 1-A.
 Alpha  occ. eigenvalues --  -11.21669 -11.21640 -11.21629 -11.21594 -11.21460
 Alpha  occ. eigenvalues --  -11.21404 -11.21399 -11.21343 -11.21147 -11.21136
 Alpha  occ. eigenvalues --  -11.21087 -11.21068  -1.08502  -1.08430  -1.03585
 Alpha  occ. eigenvalues --   -1.03550  -0.96040  -0.95992  -0.87052  -0.87011
 Alpha  occ. eigenvalues --   -0.79672  -0.79588  -0.78333  -0.78225  -0.65337
 Alpha  occ. eigenvalues --   -0.64900  -0.61050  -0.60886  -0.59421  -0.59345
 Alpha  occ. eigenvalues --   -0.57646  -0.57606  -0.55428  -0.55183  -0.52743
 Alpha  occ. eigenvalues --   -0.52684  -0.52478  -0.52400  -0.50016  -0.49909
 Alpha  occ. eigenvalues --   -0.48041  -0.47865  -0.46800  -0.46574  -0.45997
 Alpha  occ. eigenvalues --   -0.45809  -0.45754  -0.45430  -0.43831  -0.43799
 Alpha virt. eigenvalues --    0.19118   0.22226   0.23751   0.24334   0.26223
 Alpha virt. eigenvalues --    0.26649   0.26830   0.27762   0.28228   0.29511
 Alpha virt. eigenvalues --    0.30121   0.31565   0.31699   0.31948   0.32412

 Mulliken charges:
               1
     1  C   -0.299035
     2  C   -0.299667
     3  C   -0.475805
     4  H    0.149790
     5  H    0.149861
     6  H    0.152019
     7  H    0.152209
     8  H    0.155437
     9  H    0.155134
    10  H    0.160416
    11  C   -0.298218
    12  C   -0.306241
    13  C   -0.478637
    14  H    0.150038
    15  H    0.149704
    16  H    0.152435
    17  H    0.156367
    18  H    0.156078
    19  H    0.155821
    20  H    0.162483
    21  C   -0.298045
    22  C   -0.303566
    23  C   -0.475672
    24  H    0.149758
    25  H    0.149627
    26  H    0.152030
    27  H    0.155518
    28  H    0.155193
    29  H    0.155205
    30  H    0.160219
    31  C   -0.306155
    32  C   -0.299940
    33  C   -0.476326
    34  H    0.149783
    35  H    0.157511
    36  H    0.152419
    37  H    0.151765
    38  H    0.154377
    39  H    0.155630
    40  H    0.160482
 Sum of Mulliken charges =  -0.00000

 Dipole moment (field-independent basis, Debye):
    X=              0.0115    Y=             -0.0132    Z=              0.0079  Tot=              0.0192
 Quadrupole moment (field-independent basis, Debye-Ang):
   XX=            -84.9564   YY=            -84.4536   ZZ=            -85.2329
   XY=             -1.6255   XZ=             -0.5509   YZ=              0.6262

 Normal termination of Gaussian 16 at Thu May  6 06:59:56 2021.
