 Gaussian 16, Revision A.03,
 Gaussian 16:  EM64L-G16RevA.03 25-Dec-2016

 -------------
 #p 6-31g* mp2
 -------------

 ------------------------------------------------------
 Input file generated by CHIRIPA (05-May-2021 14:57:26)
 ------------------------------------------------------
 Symbolic Z-matrix:
 Charge =  0 Multiplicity = 1

                         Standard orientation:
 ---------------------------------------------------------------------
 Center     Atomic      Atomic             Coordinates (Angstroms)
 Number     Number       Type             X           Y           Z
 ---------------------------------------------------------------------
      1          6           0       -2.130015    2.697464    0.459119
      2          6           0       -2.272589    2.349987   -0.888268
      3          6           0       -2.461158    1.015894   -1.261345
      4          6           0       -2.502292    0.050636   -0.256421
      5          6           0       -2.363409    0.365268    1.094508
      6          6           0       -2.175799    1.705744    1.444470
      7          1           0       -1.983903    3.736299    0.739957
      8          1           0       -2.237447    3.118060   -1.655650
      9          1           0       -2.574329    0.719034   -2.296954
     10          1           0       -2.402809   -0.422622    1.836866
     11          1           0       -2.065367    1.972680    2.491654
     12          7           0       -2.701414   -1.365087   -0.639145
     13          8           0       -2.733966   -2.196708    0.265280
     14          8           0       -2.821164   -1.616304   -1.836303
     15          6           0        1.018406   -1.259321    2.012409
     16          6           0        1.827485   -0.150478    2.281444
     17          6           0        2.635529    0.398259    1.281193
     18          6           0        2.609759   -0.189670    0.017483
     19          6           0        1.814480   -1.294836   -0.281569
     20          6           0        1.014493   -1.826960    0.734015
     21          1           0        0.393828   -1.679140    2.795384
     22          1           0        1.832547    0.292428    3.273338
     23          1           0        3.271444    1.256337    1.462113
     24          1           0        1.830750   -1.714538   -1.280070
     25          1           0        0.387153   -2.688139    0.522212
     26          7           0        3.460934    0.382459   -1.049555
     27          8           0        3.420235   -0.153918   -2.154670
     28          8           0        4.152667    1.356439   -0.760579
 ---------------------------------------------------------------------

 SCF Done:  E(RHF) =  -868.339157931     A.U. after   16 cycles
 E2 =    -0.2601355686D+01 EUMP2 =    -0.87094051361721D+03

 The electronic state is 1-A.
 Alpha  occ. eigenvalues --  -20.61486 -20.61432 -20.60776 -20.60758 -15.86484
 Alpha  occ. eigenvalues --  -15.85817 -11.31609 -11.31135 -11.28238 -11.28121
 Alpha  occ. eigenvalues --  -11.27858 -11.27739 -11.27601 -11.27415 -11.27172
 Alpha  occ. eigenvalues --  -11.27072 -11.26779 -11.26516  -1.60528  -1.59847
 Alpha  occ. eigenvalues --   -1.40090  -1.39401  -1.19769  -1.19290  -1.09205
 Alpha  occ. eigenvalues --   -1.08700  -1.05147  -1.04671  -0.96083  -0.95545
 Alpha  occ. eigenvalues --   -0.86560  -0.86066  -0.82931  -0.82367  -0.78013
 Alpha  occ. eigenvalues --   -0.77417  -0.72714  -0.72037  -0.71844  -0.71171
 Alpha  occ. eigenvalues --   -0.70899  -0.70402  -0.65435  -0.65161  -0.64935
 Alpha  occ. eigenvalues --   -0.64634  -0.62517  -0.61993  -0.55657  -0.55187
 Alpha  occ. eigenvalues --   -0.53635  -0.53251  -0.52859  -0.52731  -0.49489
 Alpha  occ. eigenvalues --   -0.49444  -0.48797  -0.48789  -0.45542  -0.44817
 Alpha  occ. eigenvalues --   -0.37818  -0.37453  -0.36487  -0.36227
 Alpha virt. eigenvalues --    0.04395   0.05160   0.10697   0.11568   0.16019
 Alpha virt. eigenvalues --    0.16592   0.20534   0.21861   0.26394   0.27224
 Alpha virt. eigenvalues --    0.27838   0.28974   0.30496   0.31205   0.32607

 Mulliken charges:
               1
     1  C   -0.169464
     2  C   -0.217883
     3  C   -0.169923
     4  C    0.159128
     5  C   -0.166568
     6  C   -0.217644
     7  H    0.227501
     8  H    0.227037
     9  H    0.277638
    10  H    0.267756
    11  H    0.220660
    12  N    0.487594
    13  O   -0.468866
    14  O   -0.456150
    15  C   -0.174239
    16  C   -0.218993
    17  C   -0.172082
    18  C    0.159136
    19  C   -0.173169
    20  C   -0.225341
    21  H    0.225325
    22  H    0.219139
    23  H    0.273251
    24  H    0.278986
    25  H    0.241312
    26  N    0.487710
    27  O   -0.459106
    28  O   -0.462747
 Sum of Mulliken charges =  -0.00000

 Dipole moment (field-independent basis, Debye):
    X=             -2.3969    Y=              2.9887    Z=              4.9062  Tot=              6.2249
 Quadrupole moment (field-independent basis, Debye-Ang):
   XX=           -125.3834   YY=           -101.2685   ZZ=            -99.2282
   XY=            -16.4531   XZ=              7.8468   YZ=             -0.9432

 Normal termination of Gaussian 16 at Thu May  6 18:08:51 2021.
