 Gaussian 16, Revision A.03,
 Gaussian 16:  EM64L-G16RevA.03 25-Dec-2016

 -------------
 #p 6-31g* mp2
 -------------

 ------------------------------------------------------
 Input file generated by CHIRIPA (05-May-2021 14:55:25)
 ------------------------------------------------------
 Symbolic Z-matrix:
 Charge =  0 Multiplicity = 1

                         Standard orientation:
 ---------------------------------------------------------------------
 Center     Atomic      Atomic             Coordinates (Angstroms)
 Number     Number       Type             X           Y           Z
 ---------------------------------------------------------------------
      1          6           0       -5.373501    1.873141    0.114153
      2          6           0       -4.284087    1.783916    0.986929
      3          6           0       -3.364462    0.737420    0.869952
      4          6           0       -3.565723   -0.206712   -0.135731
      5          6           0       -4.641147   -0.145118   -1.020581
      6          6           0       -5.548246    0.910037   -0.885055
      7          1           0       -6.083023    2.689447    0.212229
      8          1           0       -4.145866    2.530447    1.763866
      9          1           0       -2.512262    0.644253    1.532141
     10          1           0       -4.752465   -0.904337   -1.785181
     11          1           0       -6.393376    0.976805   -1.564277
     12          7           0       -2.598787   -1.319173   -0.269388
     13          8           0       -2.798445   -2.138257   -1.163746
     14          8           0       -1.659554   -1.350972    0.522740
     15          6           0        4.360936   -0.229866    0.737282
     16          6           0        2.924857   -0.603077    0.367987
     17          6           0        2.122931   -1.121080    1.562300
     18          1           0        4.863092   -1.108629    1.164551
     19          1           0        4.342365    0.534158    1.526787
     20          1           0        2.946120   -1.365167   -0.421559
     21          1           0        2.426120    0.276625   -0.058628
     22          1           0        2.071989   -0.362671    2.350223
     23          1           0        2.594944   -2.013792    1.985231
     24          1           0        1.099341   -1.381952    1.275824
     25          6           0        5.175285    0.289679   -0.446202
     26          6           0        6.611363    0.662890   -0.076908
     27          6           0        7.413288    1.180894   -1.271220
     28          1           0        5.193856   -0.474345   -1.235707
     29          1           0        4.673128    1.168442   -0.873471
     30          1           0        7.110101   -0.216812    0.349708
     31          1           0        6.590099    1.424980    0.712638
     32          1           0        6.941276    2.073605   -1.694151
     33          1           0        7.464231    0.422485   -2.059143
     34          1           0        8.436879    1.441765   -0.984745
 ---------------------------------------------------------------------

 SCF Done:  E(RHF) =  -669.536187647     A.U. after   15 cycles
 E2 =    -0.2090614860D+01 EUMP2 =    -0.67162680250729D+03

 The electronic state is 1-A.
 Alpha  occ. eigenvalues --  -20.60934 -20.60927 -15.85976 -11.31286 -11.27849
 Alpha  occ. eigenvalues --  -11.27844 -11.27587 -11.26856 -11.26846 -11.21172
 Alpha  occ. eigenvalues --  -11.20835 -11.20720 -11.20693 -11.20631 -11.19780
 Alpha  occ. eigenvalues --   -1.59997  -1.39553  -1.19454  -1.08860  -1.07777
 Alpha  occ. eigenvalues --   -1.04850  -1.02803  -0.95706  -0.95239  -0.86266
 Alpha  occ. eigenvalues --   -0.86245  -0.82539  -0.78896  -0.77594  -0.77568
 Alpha  occ. eigenvalues --   -0.72205  -0.71311  -0.70564  -0.65112  -0.64853
 Alpha  occ. eigenvalues --   -0.64421  -0.62197  -0.60219  -0.58623  -0.56814
 Alpha  occ. eigenvalues --   -0.55355  -0.54558  -0.53182  -0.52942  -0.51875
 Alpha  occ. eigenvalues --   -0.51665  -0.49225  -0.48955  -0.48939  -0.47187
 Alpha  occ. eigenvalues --   -0.45962  -0.45113  -0.45042  -0.44963  -0.43026
 Alpha  occ. eigenvalues --   -0.37434  -0.36451
 Alpha virt. eigenvalues --    0.04932   0.11204   0.16422   0.21313   0.23464
 Alpha virt. eigenvalues --    0.25066   0.27236   0.27267   0.28015   0.28132
 Alpha virt. eigenvalues --    0.28907   0.30872   0.32062   0.32247   0.32400

 Mulliken charges:
               1
     1  C   -0.170594
     2  C   -0.218574
     3  C   -0.170727
     4  C    0.157478
     5  C   -0.170542
     6  C   -0.218612
     7  H    0.225962
     8  H    0.223845
     9  H    0.276101
    10  H    0.275852
    11  H    0.223779
    12  N    0.494661
    13  O   -0.458899
    14  O   -0.466486
    15  C   -0.297365
    16  C   -0.297611
    17  C   -0.488347
    18  H    0.148667
    19  H    0.146321
    20  H    0.153669
    21  H    0.148457
    22  H    0.145782
    23  H    0.150894
    24  H    0.190486
    25  C   -0.297560
    26  C   -0.299027
    27  C   -0.475296
    28  H    0.149750
    29  H    0.147836
    30  H    0.151620
    31  H    0.150455
    32  H    0.154106
    33  H    0.155165
    34  H    0.158757
 Sum of Mulliken charges =  -0.00000

 Dipole moment (field-independent basis, Debye):
    X=             -3.7151    Y=              3.8457    Z=              0.4246  Tot=              5.3640
 Quadrupole moment (field-independent basis, Debye-Ang):
   XX=            -70.9532   YY=            -95.5160   ZZ=            -93.0083
   XY=            -13.2658   XZ=              1.4723   YZ=              1.5862

 Normal termination of Gaussian 16 at Thu May  6 11:06:10 2021.
