 Gaussian 16, Revision A.03,
 Gaussian 16:  EM64L-G16RevA.03 25-Dec-2016

 -------------
 #p 6-31g* mp2
 -------------

 ------------------------------------------------------
 Input file generated by CHIRIPA (05-May-2021 14:55:25)
 ------------------------------------------------------
 Symbolic Z-matrix:
 Charge =  0 Multiplicity = 1

                         Standard orientation:
 ---------------------------------------------------------------------
 Center     Atomic      Atomic             Coordinates (Angstroms)
 Number     Number       Type             X           Y           Z
 ---------------------------------------------------------------------
      1          6           0       -1.271813    1.115111    1.492994
      2          6           0       -1.932544    1.740841    0.430724
      3          6           0       -2.925240    1.064859   -0.284923
      4          6           0       -3.233386   -0.241837    0.090421
      5          6           0       -2.593002   -0.892372    1.143987
      6          6           0       -1.603566   -0.197185    1.845613
      7          1           0       -0.501929    1.647690    2.043480
      8          1           0       -1.676972    2.759916    0.154654
      9          1           0       -3.452567    1.525362   -1.111531
     10          1           0       -2.869587   -1.908993    1.395779
     11          1           0       -1.092090   -0.685642    2.670142
     12          7           0       -4.282584   -0.967635   -0.659781
     13          8           0       -4.535641   -2.118196   -0.309339
     14          8           0       -4.832020   -0.372212   -1.584025
     15          6           0        3.212541    0.421625   -0.401618
     16          6           0        3.112716    1.944903   -0.314176
     17          6           0        1.696453    2.460271   -0.571840
     18          1           0        2.877112    0.095001   -1.395474
     19          1           0        2.520471   -0.026510    0.324748
     20          1           0        3.805779    2.390041   -1.039527
     21          1           0        3.448603    2.267954    0.679520
     22          1           0        0.995950    2.043600    0.159104
     23          1           0        1.355154    2.166380   -1.569709
     24          1           0        1.647892    3.551582   -0.504425
     25          6           0        4.622252   -0.108751   -0.146383
     26          6           0        4.722077   -1.632028   -0.233825
     27          6           0        6.138340   -2.147397    0.023838
     28          1           0        5.314323    0.339385   -0.872750
     29          1           0        4.957681    0.217874    0.847472
     30          1           0        4.386190   -1.955080   -1.227522
     31          1           0        4.029015   -2.077166    0.491525
     32          1           0        6.479639   -1.853506    1.021707
     33          1           0        6.838843   -1.730725   -0.707107
     34          1           0        6.186902   -3.238707   -0.043577
 ---------------------------------------------------------------------

 SCF Done:  E(RHF) =  -669.534456775     A.U. after   15 cycles
 E2 =    -0.2092467619D+01 EUMP2 =    -0.67162692439420D+03

 The electronic state is 1-A.
 Alpha  occ. eigenvalues --  -20.60769 -20.60763 -15.85822 -11.31200 -11.27766
 Alpha  occ. eigenvalues --  -11.27744 -11.27502 -11.26798 -11.26756 -11.22270
 Alpha  occ. eigenvalues --  -11.21991 -11.21942 -11.21838 -11.21831 -11.21398
 Alpha  occ. eigenvalues --   -1.59844  -1.39397  -1.19374  -1.08964  -1.08774
 Alpha  occ. eigenvalues --   -1.04774  -1.04074  -0.96542  -0.95606  -0.87568
 Alpha  occ. eigenvalues --   -0.86169  -0.82434  -0.80147  -0.78750  -0.77470
 Alpha  occ. eigenvalues --   -0.72041  -0.71166  -0.70523  -0.65604  -0.65030
 Alpha  occ. eigenvalues --   -0.64777  -0.62124  -0.61477  -0.59908  -0.58136
 Alpha  occ. eigenvalues --   -0.55919  -0.55235  -0.53331  -0.53217  -0.52864
 Alpha  occ. eigenvalues --   -0.52750  -0.50463  -0.48800  -0.48795  -0.48444
 Alpha  occ. eigenvalues --   -0.47172  -0.46295  -0.46215  -0.44800  -0.44324
 Alpha  occ. eigenvalues --   -0.37292  -0.36356
 Alpha virt. eigenvalues --    0.05011   0.11212   0.16397   0.20734   0.22536
 Alpha virt. eigenvalues --    0.23953   0.26069   0.26495   0.26942   0.27747
 Alpha virt. eigenvalues --    0.28866   0.30027   0.31060   0.31606   0.32231

 Mulliken charges:
               1
     1  C   -0.172753
     2  C   -0.213872
     3  C   -0.172179
     4  C    0.158821
     5  C   -0.171068
     6  C   -0.219846
     7  H    0.225973
     8  H    0.226384
     9  H    0.275738
    10  H    0.275641
    11  H    0.223305
    12  N    0.488055
    13  O   -0.460406
    14  O   -0.460302
    15  C   -0.297735
    16  C   -0.299889
    17  C   -0.482220
    18  H    0.152906
    19  H    0.146376
    20  H    0.154886
    21  H    0.149772
    22  H    0.152517
    23  H    0.159794
    24  H    0.157643
    25  C   -0.298696
    26  C   -0.299738
    27  C   -0.475981
    28  H    0.151061
    29  H    0.148652
    30  H    0.153887
    31  H    0.150714
    32  H    0.154785
    33  H    0.156114
    34  H    0.161665
 Sum of Mulliken charges =  -0.00000

 Dipole moment (field-independent basis, Debye):
    X=              3.7488    Y=              2.5107    Z=              2.5784  Tot=              5.1966
 Quadrupole moment (field-independent basis, Debye-Ang):
   XX=           -119.9546   YY=            -93.4486   ZZ=            -92.0434
   XY=             -9.5274   XZ=             -8.3356   YZ=             -3.1496

 Normal termination of Gaussian 16 at Thu May  6 06:24:47 2021.
