 Gaussian 16, Revision A.03,
 Gaussian 16:  EM64L-G16RevA.03 25-Dec-2016

 -------------
 #p 6-31g* mp2
 -------------

 ------------------------------------------------------
 Input file generated by CHIRIPA (05-May-2021 14:51:08)
 ------------------------------------------------------
 Symbolic Z-matrix:
 Charge =  0 Multiplicity = 1

                         Standard orientation:
 ---------------------------------------------------------------------
 Center     Atomic      Atomic             Coordinates (Angstroms)
 Number     Number       Type             X           Y           Z
 ---------------------------------------------------------------------
      1          6           0        2.048541    0.874138   -0.604213
      2          6           0        3.299563    0.150923   -0.104324
      3          6           0        3.983469   -0.671217   -1.197098
      4          1           0        1.341558    0.135373   -1.005893
      5          1           0        2.323105    1.531201   -1.441039
      6          1           0        3.022963   -0.503539    0.732210
      7          1           0        4.003569    0.891477    0.296387
      8          1           0        4.287373   -0.028368   -2.029557
      9          1           0        3.301195   -1.431310   -1.591258
     10          1           0        4.875401   -1.179756   -0.818013
     11          6           0        1.353732    1.700255    0.476758
     12          6           0        0.102710    2.423470   -0.023131
     13          6           0       -0.581195    3.245609    1.069643
     14          1           0        1.079168    1.043192    1.313585
     15          1           0        2.060715    2.439020    0.878438
     16          1           0       -0.601296    1.682915   -0.423842
     17          1           0        0.379310    3.077931   -0.859665
     18          1           0        0.101078    4.005702    1.463803
     19          1           0       -0.885100    2.602760    1.902102
     20          1           0       -1.473128    3.754148    0.690559
     21          6           0       -1.199745   -1.475179    0.608429
     22          6           0       -0.162647   -2.501002    0.150067
     23          6           0        0.833438   -2.866965    1.250831
     24          1           0       -0.682594   -0.569194    0.952948
     25          1           0       -1.741802   -1.874936    1.476624
     26          1           0        0.376348   -2.100000   -0.717862
     27          1           0       -0.682334   -3.404578   -0.193580
     28          1           0        0.313171   -3.291139    2.115701
     29          1           0        1.377867   -1.979149    1.588441
     30          1           0        1.565724   -3.601575    0.901597
     31          6           0       -2.202529   -1.099214   -0.480975
     32          6           0       -3.239626   -0.073389   -0.022612
     33          6           0       -4.235710    0.292572   -1.123376
     34          1           0       -1.660471   -0.699455   -1.349170
     35          1           0       -2.719679   -2.005199   -0.825493
     36          1           0       -2.719939    0.830186    0.321035
     37          1           0       -3.778621   -0.474391    0.845316
     38          1           0       -4.780141   -0.595243   -1.460986
     39          1           0       -3.715443    0.716747   -1.988246
     40          1           0       -4.967998    1.027182   -0.774142
 ---------------------------------------------------------------------

 SCF Done:  E(RHF) =  -470.731124430     A.U. after   11 cycles
 E2 =    -0.1587973619D+01 EUMP2 =    -0.47231909804914D+03

 The electronic state is 1-A.
 Alpha  occ. eigenvalues --  -11.21671 -11.21650 -11.21606 -11.21605 -11.21463
 Alpha  occ. eigenvalues --  -11.21455 -11.21397 -11.21393 -11.21141 -11.21131
 Alpha  occ. eigenvalues --  -11.21091 -11.21087  -1.08638  -1.08365  -1.03668
 Alpha  occ. eigenvalues --   -1.03507  -0.96071  -0.96002  -0.87074  -0.87034
 Alpha  occ. eigenvalues --   -0.79698  -0.79625  -0.78420  -0.78210  -0.66059
 Alpha  occ. eigenvalues --   -0.64308  -0.61518  -0.60513  -0.59410  -0.59390
 Alpha  occ. eigenvalues --   -0.57643  -0.57640  -0.55523  -0.55147  -0.52723
 Alpha  occ. eigenvalues --   -0.52719  -0.52491  -0.52438  -0.50099  -0.49905
 Alpha  occ. eigenvalues --   -0.48104  -0.47831  -0.47009  -0.46593  -0.46203
 Alpha  occ. eigenvalues --   -0.45985  -0.45417  -0.45209  -0.43839  -0.43827
 Alpha virt. eigenvalues --    0.18689   0.21260   0.22976   0.25084   0.25426
 Alpha virt. eigenvalues --    0.25855   0.26707   0.28169   0.29709   0.29878
 Alpha virt. eigenvalues --    0.30541   0.31339   0.31634   0.32188   0.32438

 Mulliken charges:
               1
     1  C   -0.304218
     2  C   -0.304658
     3  C   -0.476529
     4  H    0.154827
     5  H    0.150156
     6  H    0.157562
     7  H    0.152204
     8  H    0.155184
     9  H    0.155724
    10  H    0.160573
    11  C   -0.301986
    12  C   -0.308406
    13  C   -0.476719
    14  H    0.150539
    15  H    0.151232
    16  H    0.159212
    17  H    0.152899
    18  H    0.155921
    19  H    0.155662
    20  H    0.160643
    21  C   -0.306705
    22  C   -0.303473
    23  C   -0.480392
    24  H    0.157778
    25  H    0.150280
    26  H    0.154467
    27  H    0.152911
    28  H    0.155704
    29  H    0.158976
    30  H    0.160822
    31  C   -0.300446
    32  C   -0.306451
    33  C   -0.475710
    34  H    0.149521
    35  H    0.150832
    36  H    0.158822
    37  H    0.152281
    38  H    0.155304
    39  H    0.155229
    40  H    0.160429
 Sum of Mulliken charges =  -0.00000

 Dipole moment (field-independent basis, Debye):
    X=              0.0008    Y=              0.0062    Z=              0.0119  Tot=              0.0134
 Quadrupole moment (field-independent basis, Debye-Ang):
   XX=            -85.0534   YY=            -84.0502   ZZ=            -85.5686
   XY=              1.5607   XZ=             -0.4571   YZ=             -0.6114

 Normal termination of Gaussian 16 at Thu May  6 03:42:29 2021.
