 Gaussian 16, Revision A.03,
 Gaussian 16:  EM64L-G16RevA.03 25-Dec-2016

 -------------
 #p 6-31g* mp2
 -------------

 ------------------------------------------------------
 Input file generated by CHIRIPA (05-May-2021 14:51:13)
 ------------------------------------------------------
 Symbolic Z-matrix:
 Charge =  0 Multiplicity = 1

                         Standard orientation:
 ---------------------------------------------------------------------
 Center     Atomic      Atomic             Coordinates (Angstroms)
 Number     Number       Type             X           Y           Z
 ---------------------------------------------------------------------
      1          6           0        3.809699   -0.544543   -0.282026
      2          6           0        4.765787    0.600848    0.052580
      3          6           0        6.036957    0.577047   -0.796746
      4          1           0        4.329953   -1.501560   -0.139201
      5          1           0        3.541777   -0.490208   -1.346291
      6          1           0        5.030737    0.545185    1.116215
      7          1           0        4.243137    1.555245   -0.090874
      8          1           0        5.790965    0.655895   -1.860641
      9          1           0        6.583039   -0.359905   -0.646693
     10          1           0        6.706184    1.404460   -0.541044
     11          6           0        2.534276   -0.534267    0.558758
     12          6           0        1.578188   -1.679658    0.224151
     13          6           0        0.307018   -1.655857    1.073477
     14          1           0        2.802198   -0.588602    1.623023
     15          1           0        2.014022    0.422750    0.415932
     16          1           0        2.100837   -2.634055    0.367605
     17          1           0        1.313238   -1.623994   -0.839484
     18          1           0       -0.239065   -0.718905    0.923424
     19          1           0        0.553009   -1.734705    2.137372
     20          1           0       -0.362209   -2.483270    0.817775
     21          6           0       -3.762075    0.070731   -0.263158
     22          6           0       -3.367269   -1.406125   -0.294921
     23          6           0       -4.558555   -2.331244   -0.545500
     24          1           0       -4.518537    0.224758    0.518498
     25          1           0       -4.239367    0.336080   -1.216666
     26          1           0       -2.889616   -1.668264    0.657836
     27          1           0       -2.611519   -1.556620   -1.076464
     28          1           0       -5.032298   -2.098119   -1.504573
     29          1           0       -5.311976   -2.210398    0.239582
     30          1           0       -4.253709   -3.382232   -0.564274
     31          6           0       -2.581900    1.008079   -0.013574
     32          6           0       -2.976705    2.484935    0.018191
     33          6           0       -1.785420    3.410053    0.268769
     34          1           0       -2.104608    0.742730    0.939934
     35          1           0       -1.825438    0.854052   -0.795229
     36          1           0       -3.732456    2.635429    0.799733
     37          1           0       -3.454358    2.747074   -0.934567
     38          1           0       -1.031998    3.289208   -0.516312
     39          1           0       -1.311676    3.176928    1.227842
     40          1           0       -2.090266    4.461041    0.287543
 ---------------------------------------------------------------------

 SCF Done:  E(RHF) =  -470.732426142     A.U. after   11 cycles
 E2 =    -0.1583752768D+01 EUMP2 =    -0.47231617891057D+03

 The electronic state is 1-A.
 Alpha  occ. eigenvalues --  -11.21634 -11.21574 -11.21534 -11.21529 -11.21429
 Alpha  occ. eigenvalues --  -11.21363 -11.21362 -11.21301 -11.21117 -11.21051
 Alpha  occ. eigenvalues --  -11.21045 -11.20881  -1.08460  -1.08373  -1.03541
 Alpha  occ. eigenvalues --   -1.03466  -0.96003  -0.95915  -0.87012  -0.86945
 Alpha  occ. eigenvalues --   -0.79632  -0.79542  -0.78319  -0.78133  -0.65090
 Alpha  occ. eigenvalues --   -0.65005  -0.60934  -0.60878  -0.59457  -0.59207
 Alpha  occ. eigenvalues --   -0.57721  -0.57432  -0.55316  -0.55191  -0.52743
 Alpha  occ. eigenvalues --   -0.52611  -0.52469  -0.52262  -0.49962  -0.49872
 Alpha  occ. eigenvalues --   -0.48024  -0.47757  -0.46710  -0.46628  -0.45887
 Alpha  occ. eigenvalues --   -0.45752  -0.45693  -0.45329  -0.43806  -0.43678
 Alpha virt. eigenvalues --    0.21839   0.23170   0.23898   0.24156   0.25596
 Alpha virt. eigenvalues --    0.26479   0.27326   0.27579   0.27625   0.29578
 Alpha virt. eigenvalues --    0.30276   0.31327   0.31654   0.31865   0.32230

 Mulliken charges:
               1
     1  C   -0.298177
     2  C   -0.299633
     3  C   -0.475662
     4  H    0.149557
     5  H    0.149208
     6  H    0.151868
     7  H    0.152007
     8  H    0.155061
     9  H    0.155118
    10  H    0.160185
    11  C   -0.298650
    12  C   -0.299307
    13  C   -0.484516
    14  H    0.149292
    15  H    0.149934
    16  H    0.151314
    17  H    0.151012
    18  H    0.165037
    19  H    0.152986
    20  H    0.161948
    21  C   -0.297948
    22  C   -0.302673
    23  C   -0.475764
    24  H    0.149525
    25  H    0.149271
    26  H    0.157426
    27  H    0.151931
    28  H    0.154829
    29  H    0.154999
    30  H    0.159913
    31  C   -0.302995
    32  C   -0.298673
    33  C   -0.476067
    34  H    0.153523
    35  H    0.149349
    36  H    0.152170
    37  H    0.152021
    38  H    0.154608
    39  H    0.155304
    40  H    0.160667
 Sum of Mulliken charges =  -0.00000

 Dipole moment (field-independent basis, Debye):
    X=             -0.0452    Y=              0.0205    Z=              0.0129  Tot=              0.0513
 Quadrupole moment (field-independent basis, Debye-Ang):
   XX=            -86.1691   YY=            -85.1520   ZZ=            -83.6083
   XY=             -0.9739   XZ=              0.4713   YZ=             -0.5427

 Normal termination of Gaussian 16 at Thu May  6 07:07:30 2021.
