 Gaussian 16, Revision A.03,
 Gaussian 16:  EM64L-G16RevA.03 25-Dec-2016

 -------------
 #p 6-31g* mp2
 -------------

 ------------------------------------------------------
 Input file generated by CHIRIPA (05-May-2021 14:55:21)
 ------------------------------------------------------
 Symbolic Z-matrix:
 Charge =  0 Multiplicity = 1

                         Standard orientation:
 ---------------------------------------------------------------------
 Center     Atomic      Atomic             Coordinates (Angstroms)
 Number     Number       Type             X           Y           Z
 ---------------------------------------------------------------------
      1          6           0       -1.811066   -0.032121    0.360412
      2          6           0       -2.535039   -1.219615    0.211276
      3          6           0       -3.916956   -1.187151    0.001988
      4          6           0       -4.545602    0.055860   -0.052947
      5          6           0       -3.851946    1.256327    0.092000
      6          6           0       -2.470667    1.199889    0.300404
      7          1           0       -0.737808   -0.066651    0.522649
      8          1           0       -2.025423   -2.177846    0.257430
      9          1           0       -4.501834   -2.091171   -0.116681
     10          1           0       -4.387762    2.196404    0.041263
     11          1           0       -1.910979    2.123716    0.415889
     12          7           0       -6.008237    0.102918   -0.274042
     13          8           0       -6.538600    1.210790   -0.318448
     14          8           0       -6.596593   -0.968960   -0.398745
     15          6           0        4.887276    0.041710    0.451493
     16          6           0        3.633596   -0.613995   -0.128439
     17          6           0        2.396441   -0.398586    0.743823
     18          1           0        5.071567   -0.359965    1.457295
     19          1           0        4.706384    1.118665    0.573318
     20          1           0        3.817280   -1.689167   -0.250427
     21          1           0        3.452376   -0.210852   -1.133055
     22          1           0        2.185337    0.669818    0.855841
     23          1           0        2.552314   -0.816895    1.743483
     24          1           0        1.511776   -0.875607    0.310606
     25          6           0        6.132351   -0.164856   -0.409233
     26          6           0        7.386030    0.490848    0.170699
     27          6           0        8.623185    0.275440   -0.701564
     28          1           0        6.313242   -1.241811   -0.531058
     29          1           0        5.948059    0.236819   -1.415036
     30          1           0        7.567250    0.087707    1.175314
     31          1           0        7.202346    1.566021    0.292687
     32          1           0        8.467312    0.693749   -1.701224
     33          1           0        8.834289   -0.792965   -0.813581
     34          1           0        9.507851    0.752461   -0.268346
 ---------------------------------------------------------------------

 SCF Done:  E(RHF) =  -669.535580067     A.U. after   15 cycles
 E2 =    -0.2090692767D+01 EUMP2 =    -0.67162627283313D+03

 The electronic state is 1-A.
 Alpha  occ. eigenvalues --  -20.60705 -20.60700 -15.85759 -11.31106 -11.27682
 Alpha  occ. eigenvalues --  -11.27678 -11.27356 -11.26682 -11.26671 -11.22574
 Alpha  occ. eigenvalues --  -11.22417 -11.22152 -11.22108 -11.21977 -11.21491
 Alpha  occ. eigenvalues --   -1.59781  -1.39335  -1.19277  -1.09164  -1.08669
 Alpha  occ. eigenvalues --   -1.04683  -1.04313  -0.96793  -0.95508  -0.87820
 Alpha  occ. eigenvalues --   -0.86078  -0.82347  -0.80387  -0.78926  -0.77399
 Alpha  occ. eigenvalues --   -0.71977  -0.71105  -0.70390  -0.65786  -0.64928
 Alpha  occ. eigenvalues --   -0.64692  -0.62035  -0.61700  -0.60234  -0.58375
 Alpha  occ. eigenvalues --   -0.56077  -0.55227  -0.53428  -0.53202  -0.53008
 Alpha  occ. eigenvalues --   -0.52773  -0.50714  -0.48736  -0.48733  -0.48692
 Alpha  occ. eigenvalues --   -0.47389  -0.46481  -0.46373  -0.44745  -0.44555
 Alpha  occ. eigenvalues --   -0.37247  -0.36293
 Alpha virt. eigenvalues --    0.05139   0.11362   0.16625   0.20233   0.22335
 Alpha virt. eigenvalues --    0.23771   0.25913   0.26055   0.26668   0.27296
 Alpha virt. eigenvalues --    0.28715   0.30517   0.30574   0.31085   0.32039

 Mulliken charges:
               1
     1  C   -0.178415
     2  C   -0.221414
     3  C   -0.170768
     4  C    0.158039
     5  C   -0.170663
     6  C   -0.220959
     7  H    0.238651
     8  H    0.222722
     9  H    0.275278
    10  H    0.275206
    11  H    0.223457
    12  N    0.488052
    13  O   -0.460691
    14  O   -0.460706
    15  C   -0.299438
    16  C   -0.299079
    17  C   -0.481547
    18  H    0.151084
    19  H    0.150125
    20  H    0.154737
    21  H    0.154190
    22  H    0.154405
    23  H    0.160510
    24  H    0.152715
    25  C   -0.298948
    26  C   -0.300141
    27  C   -0.476092
    28  H    0.150648
    29  H    0.150636
    30  H    0.152640
    31  H    0.152405
    32  H    0.155812
    33  H    0.155851
    34  H    0.161699
 Sum of Mulliken charges =  -0.00000

 Dipole moment (field-independent basis, Debye):
    X=              5.4635    Y=             -0.1700    Z=              0.7835  Tot=              5.5220
 Quadrupole moment (field-independent basis, Debye-Ang):
   XX=           -142.2382   YY=            -89.0232   ZZ=            -95.7197
   XY=              1.0322   XZ=             -3.2102   YZ=             -0.2330

 Normal termination of Gaussian 16 at Thu May  6 02:59:39 2021.
