 Gaussian 16, Revision A.03,
 Gaussian 16:  EM64L-G16RevA.03 25-Dec-2016

 -------------
 #p 6-31g* mp2
 -------------

 ------------------------------------------------------
 Input file generated by CHIRIPA (05-May-2021 14:57:24)
 ------------------------------------------------------
 Symbolic Z-matrix:
 Charge =  0 Multiplicity = 1

                         Standard orientation:
 ---------------------------------------------------------------------
 Center     Atomic      Atomic             Coordinates (Angstroms)
 Number     Number       Type             X           Y           Z
 ---------------------------------------------------------------------
      1          6           0        4.342556    2.236111   -0.663790
      2          6           0        3.495709    2.198361    0.448840
      3          6           0        2.944823    0.988307    0.881092
      4          6           0        3.263467   -0.170095    0.174082
      5          6           0        4.103910   -0.164960   -0.938086
      6          6           0        4.643424    1.056410   -1.352488
      7          1           0        4.766080    3.180505   -0.992640
      8          1           0        3.260305    3.112963    0.985620
      9          1           0        2.286319    0.930425    1.739253
     10          1           0        4.320171   -1.093214   -1.452861
     11          1           0        5.300792    1.082723   -2.216906
     12          7           0        2.686288   -1.457115    0.622239
     13          8           0        2.982549   -2.463709   -0.017787
     14          8           0        1.948564   -1.434916    1.605045
     15          6           0       -5.242215    1.627487    0.074787
     16          6           0       -5.481442    0.355223   -0.454963
     17          6           0       -4.445304   -0.577844   -0.556701
     18          6           0       -3.176490   -0.203424   -0.117140
     19          6           0       -2.906572    1.056345    0.415229
     20          6           0       -3.957808    1.973379    0.507430
     21          1           0       -6.052977    2.346089    0.150114
     22          1           0       -6.477923    0.083843   -0.791747
     23          1           0       -4.602647   -1.569688   -0.962789
     24          1           0       -1.902633    1.297827    0.742658
     25          1           0       -3.769102    2.960712    0.919262
     26          7           0       -2.071586   -1.182732   -0.219796
     27          8           0       -0.962707   -0.828348    0.174459
     28          8           0       -2.335361   -2.286158   -0.692569
 ---------------------------------------------------------------------

 SCF Done:  E(RHF) =  -868.335841964     A.U. after   16 cycles
 E2 =    -0.2600620727D+01 EUMP2 =    -0.87093646269143D+03

 The electronic state is 1-A.
 Alpha  occ. eigenvalues --  -20.60224 -20.60194 -20.59552 -20.59461 -15.85274
 Alpha  occ. eigenvalues --  -15.84572 -11.30899 -11.30349 -11.27524 -11.27482
 Alpha  occ. eigenvalues --  -11.27289 -11.26987 -11.26968 -11.26831 -11.26591
 Alpha  occ. eigenvalues --  -11.26554 -11.26128 -11.26092  -1.59279  -1.58544
 Alpha  occ. eigenvalues --   -1.38830  -1.38099  -1.19096  -1.18567  -1.08441
 Alpha  occ. eigenvalues --   -1.07887  -1.04541  -1.04048  -0.95233  -0.94656
 Alpha  occ. eigenvalues --   -0.85926  -0.85424  -0.82069  -0.81502  -0.77077
 Alpha  occ. eigenvalues --   -0.76464  -0.71527  -0.70808  -0.70612  -0.70210
 Alpha  occ. eigenvalues --   -0.69796  -0.69695  -0.64744  -0.64550  -0.64224
 Alpha  occ. eigenvalues --   -0.64074  -0.61891  -0.61397  -0.55033  -0.54554
 Alpha  occ. eigenvalues --   -0.52851  -0.52642  -0.52339  -0.52159  -0.48259
 Alpha  occ. eigenvalues --   -0.48231  -0.47578  -0.47528  -0.44191  -0.43368
 Alpha  occ. eigenvalues --   -0.37088  -0.36566  -0.36156  -0.35670
 Alpha virt. eigenvalues --    0.05461   0.06132   0.11496   0.11980   0.16913
 Alpha virt. eigenvalues --    0.17524   0.21548   0.22013   0.27382   0.27839
 Alpha virt. eigenvalues --    0.28419   0.29017   0.30999   0.31557   0.32583

 Mulliken charges:
               1
     1  C   -0.172394
     2  C   -0.219623
     3  C   -0.169140
     4  C    0.163720
     5  C   -0.170956
     6  C   -0.218740
     7  H    0.221600
     8  H    0.218006
     9  H    0.274149
    10  H    0.275445
    11  H    0.220674
    12  N    0.492174
    13  O   -0.462644
    14  O   -0.451837
    15  C   -0.171577
    16  C   -0.218412
    17  C   -0.171034
    18  C    0.159553
    19  C   -0.170464
    20  C   -0.218322
    21  H    0.224154
    22  H    0.222746
    23  H    0.276269
    24  H    0.272477
    25  H    0.220696
    26  N    0.488415
    27  O   -0.456193
    28  O   -0.458741
 Sum of Mulliken charges =  -0.00000

 Dipole moment (field-independent basis, Debye):
    X=             -1.9717    Y=              7.6893    Z=             -1.1540  Tot=              8.0215
 Quadrupole moment (field-independent basis, Debye-Ang):
   XX=            -66.0828   YY=           -105.6976   ZZ=           -103.0866
   XY=              5.1122   XZ=             -6.0577   YZ=              4.0962

 Normal termination of Gaussian 16 at Fri May  7 03:23:55 2021.
