 Gaussian 16, Revision A.03,
 Gaussian 16:  EM64L-G16RevA.03 25-Dec-2016

 -------------
 #p 6-31g* mp2
 -------------

 ------------------------------------------------------
 Input file generated by CHIRIPA (05-May-2021 14:51:11)
 ------------------------------------------------------
 Symbolic Z-matrix:
 Charge =  0 Multiplicity = 1

                         Standard orientation:
 ---------------------------------------------------------------------
 Center     Atomic      Atomic             Coordinates (Angstroms)
 Number     Number       Type             X           Y           Z
 ---------------------------------------------------------------------
      1          6           0       -4.516561    0.345447    0.255036
      2          6           0       -3.182371   -0.095675   -0.347736
      3          6           0       -2.000801    0.728132    0.165128
      4          1           0       -4.681541    1.407346    0.026788
      5          1           0       -4.460591    0.266027    1.349548
      6          1           0       -3.241309   -0.016761   -1.440857
      7          1           0       -3.020638   -1.156696   -0.118189
      8          1           0       -1.913603    0.640830    1.252959
      9          1           0       -2.135527    1.787242   -0.077224
     10          1           0       -1.057082    0.395945   -0.278613
     11          6           0       -5.707295   -0.468710   -0.247982
     12          6           0       -7.041484   -0.027588    0.354790
     13          6           0       -8.223054   -0.851394   -0.158074
     14          1           0       -5.763264   -0.389290   -1.342494
     15          1           0       -5.542314   -1.530609   -0.019734
     16          1           0       -7.203217    1.033434    0.125243
     17          1           0       -6.982546   -0.106502    1.447911
     18          1           0       -8.088328   -1.910505    0.084278
     19          1           0       -8.310253   -0.764092   -1.245905
     20          1           0       -9.166773   -0.519208    0.285667
     21          6           0        5.626397   -0.463383    0.204112
     22          6           0        7.042570   -0.148980   -0.279199
     23          6           0        8.060494   -1.208459    0.144038
     24          1           0        5.630897   -0.552860    1.299064
     25          1           0        5.321649   -1.443438   -0.188337
     26          1           0        7.344029    0.830810    0.112909
     27          1           0        7.034662   -0.060052   -1.373110
     28          1           0        7.786712   -2.188662   -0.259506
     29          1           0        8.097837   -1.292737    1.234957
     30          1           0        9.066125   -0.963857   -0.211959
     31          6           0        4.597459    0.586646   -0.211166
     32          6           0        3.181285    0.272243    0.272145
     33          6           0        2.163361    1.331722   -0.151092
     34          1           0        4.902206    1.566701    0.181282
     35          1           0        4.592959    0.676122   -1.306117
     36          1           0        3.189194    0.183315    1.366057
     37          1           0        2.879826   -0.707548   -0.119963
     38          1           0        2.126017    1.416000   -1.242011
     39          1           0        2.437143    2.311924    0.252452
     40          1           0        1.157729    1.087120    0.204904
 ---------------------------------------------------------------------

 SCF Done:  E(RHF) =  -470.733211319     A.U. after   11 cycles
 E2 =    -0.1582097565D+01 EUMP2 =    -0.47231530888370D+03

 The electronic state is 1-A.
 Alpha  occ. eigenvalues --  -11.21603 -11.21600 -11.21584 -11.21560 -11.21404
 Alpha  occ. eigenvalues --  -11.21378 -11.21345 -11.21317 -11.21070 -11.21063
 Alpha  occ. eigenvalues --  -11.21058 -11.20973  -1.08430  -1.08400  -1.03538
 Alpha  occ. eigenvalues --   -1.03489  -0.96012  -0.95917  -0.87059  -0.86907
 Alpha  occ. eigenvalues --   -0.79628  -0.79527  -0.78242  -0.78214  -0.65059
 Alpha  occ. eigenvalues --   -0.65031  -0.60926  -0.60893  -0.59612  -0.59122
 Alpha  occ. eigenvalues --   -0.57678  -0.57461  -0.55267  -0.55229  -0.53027
 Alpha  occ. eigenvalues --   -0.52452  -0.52415  -0.52177  -0.49922  -0.49883
 Alpha  occ. eigenvalues --   -0.47937  -0.47846  -0.46626  -0.46594  -0.45784
 Alpha  occ. eigenvalues --   -0.45755  -0.45708  -0.45682  -0.43978  -0.43523
 Alpha virt. eigenvalues --    0.22455   0.22966   0.23591   0.24795   0.26655
 Alpha virt. eigenvalues --    0.26672   0.26920   0.27500   0.27549   0.28709
 Alpha virt. eigenvalues --    0.30410   0.31403   0.31449   0.31859   0.31957

 Mulliken charges:
               1
     1  C   -0.298626
     2  C   -0.299656
     3  C   -0.479963
     4  H    0.149724
     5  H    0.149503
     6  H    0.152044
     7  H    0.151880
     8  H    0.154860
     9  H    0.155926
    10  H    0.164586
    11  C   -0.298255
    12  C   -0.299617
    13  C   -0.475699
    14  H    0.149534
    15  H    0.149623
    16  H    0.151966
    17  H    0.151924
    18  H    0.155167
    19  H    0.155183
    20  H    0.160255
    21  C   -0.298207
    22  C   -0.299615
    23  C   -0.475683
    24  H    0.149585
    25  H    0.149410
    26  H    0.151910
    27  H    0.151895
    28  H    0.155135
    29  H    0.155148
    30  H    0.160192
    31  C   -0.298307
    32  C   -0.299169
    33  C   -0.483503
    34  H    0.149518
    35  H    0.149508
    36  H    0.151811
    37  H    0.151396
    38  H    0.154339
    39  H    0.155021
    40  H    0.169259
 Sum of Mulliken charges =  -0.00000

 Dipole moment (field-independent basis, Debye):
    X=             -0.0252    Y=              0.0063    Z=              0.0029  Tot=              0.0261
 Quadrupole moment (field-independent basis, Debye-Ang):
   XX=            -86.5315   YY=            -84.7977   ZZ=            -83.5627
   XY=              0.0910   XZ=             -0.1700   YZ=             -0.0412

 Normal termination of Gaussian 16 at Wed May  5 15:14:53 2021.
