 Gaussian 16, Revision A.03,
 Gaussian 16:  EM64L-G16RevA.03 25-Dec-2016

 -------------
 #p 6-31g* mp2
 -------------

 ------------------------------------------------------
 Input file generated by CHIRIPA (05-May-2021 14:57:26)
 ------------------------------------------------------
 Symbolic Z-matrix:
 Charge =  0 Multiplicity = 1

                         Standard orientation:
 ---------------------------------------------------------------------
 Center     Atomic      Atomic             Coordinates (Angstroms)
 Number     Number       Type             X           Y           Z
 ---------------------------------------------------------------------
      1          6           0        1.038001   -1.431188    0.152284
      2          6           0        2.059185   -1.764557    1.048146
      3          6           0        3.290636   -1.104538    0.998610
      4          6           0        3.467382   -0.111758    0.036094
      5          6           0        2.469386    0.243003   -0.870239
      6          6           0        1.245993   -0.430237   -0.802366
      7          1           0        0.084510   -1.949042    0.197887
      8          1           0        1.900475   -2.541493    1.790592
      9          1           0        4.098352   -1.342663    1.680013
     10          1           0        2.657303    1.021870   -1.599259
     11          1           0        0.454726   -0.169247   -1.499377
     12          7           0        4.766798    0.593973   -0.026054
     13          8           0        4.897431    1.464917   -0.883392
     14          8           0        5.630042    0.262817    0.783750
     15          6           0       -3.067917    2.683194    0.504988
     16          6           0       -3.807564    1.833462    1.334084
     17          6           0       -3.917058    0.471444    1.038335
     18          6           0       -3.271137   -0.009281   -0.099637
     19          6           0       -2.526948    0.811956   -0.945238
     20          6           0       -2.431093    2.170632   -0.630027
     21          1           0       -2.988158    3.739944    0.742292
     22          1           0       -4.303188    2.228754    2.216209
     23          1           0       -4.483260   -0.208776    1.662941
     24          1           0       -2.044031    0.388719   -1.817636
     25          1           0       -1.856002    2.828198   -1.275721
     26          7           0       -3.379834   -1.449419   -0.423035
     27          8           0       -2.801366   -1.848296   -1.431454
     28          8           0       -4.041440   -2.152054    0.338029
 ---------------------------------------------------------------------

 SCF Done:  E(RHF) =  -868.338478511     A.U. after   16 cycles
 E2 =    -0.2600282584D+01 EUMP2 =    -0.87093876109551D+03

 The electronic state is 1-A.
 Alpha  occ. eigenvalues --  -20.61934 -20.61906 -20.60740 -20.60731 -15.86946
 Alpha  occ. eigenvalues --  -15.85791 -11.32151 -11.31081 -11.28754 -11.28632
 Alpha  occ. eigenvalues --  -11.28312 -11.27687 -11.27651 -11.27634 -11.27590
 Alpha  occ. eigenvalues --  -11.27263 -11.26652 -11.26577  -1.60995  -1.59816
 Alpha  occ. eigenvalues --   -1.40551  -1.39372  -1.20286  -1.19242  -1.09696
 Alpha  occ. eigenvalues --   -1.08624  -1.05665  -1.04649  -0.96567  -0.95474
 Alpha  occ. eigenvalues --   -0.87068  -0.86033  -0.83401  -0.82326  -0.78498
 Alpha  occ. eigenvalues --   -0.77407  -0.73152  -0.72339  -0.72008  -0.71379
 Alpha  occ. eigenvalues --   -0.71140  -0.70268  -0.65931  -0.65670  -0.64884
 Alpha  occ. eigenvalues --   -0.64661  -0.63029  -0.61990  -0.56121  -0.55053
 Alpha  occ. eigenvalues --   -0.53999  -0.53756  -0.52957  -0.52712  -0.49940
 Alpha  occ. eigenvalues --   -0.49894  -0.48770  -0.48759  -0.45975  -0.44795
 Alpha  occ. eigenvalues --   -0.38228  -0.37359  -0.37071  -0.36239
 Alpha virt. eigenvalues --    0.03989   0.05149   0.10289   0.11443   0.15558
 Alpha virt. eigenvalues --    0.16679   0.19490   0.21870   0.25102   0.27047
 Alpha virt. eigenvalues --    0.28195   0.28697   0.30272   0.30755   0.32068

 Mulliken charges:
               1
     1  C   -0.173180
     2  C   -0.219336
     3  C   -0.171085
     4  C    0.158141
     5  C   -0.173029
     6  C   -0.217595
     7  H    0.235541
     8  H    0.225152
     9  H    0.275131
    10  H    0.272286
    11  H    0.218794
    12  N    0.488166
    13  O   -0.462398
    14  O   -0.460479
    15  C   -0.169338
    16  C   -0.217398
    17  C   -0.170681
    18  C    0.157355
    19  C   -0.176626
    20  C   -0.216388
    21  H    0.230229
    22  H    0.227188
    23  H    0.277344
    24  H    0.270916
    25  H    0.225995
    26  N    0.485864
    27  O   -0.465224
    28  O   -0.455347
 Sum of Mulliken charges =  -0.00000

 Dipole moment (field-independent basis, Debye):
    X=             -4.5048    Y=              2.6527    Z=              1.5551  Tot=              5.4542
 Quadrupole moment (field-independent basis, Debye-Ang):
   XX=           -137.6958   YY=           -103.1948   ZZ=            -99.4689
   XY=            -26.0800   XZ=             -4.7382   YZ=             -3.6692

 Normal termination of Gaussian 16 at Thu May  6 16:27:09 2021.
