 Gaussian 16, Revision A.03,
 Gaussian 16:  EM64L-G16RevA.03 25-Dec-2016

 -------------
 #p 6-31g* mp2
 -------------

 ------------------------------------------------------
 Input file generated by CHIRIPA (05-May-2021 14:55:22)
 ------------------------------------------------------
 Symbolic Z-matrix:
 Charge =  0 Multiplicity = 1

                         Standard orientation:
 ---------------------------------------------------------------------
 Center     Atomic      Atomic             Coordinates (Angstroms)
 Number     Number       Type             X           Y           Z
 ---------------------------------------------------------------------
      1          6           0        3.555835    1.399092    1.528453
      2          6           0        2.172911    1.411201    1.318941
      3          6           0        1.573479    0.466363    0.480781
      4          6           0        2.390748   -0.480548   -0.134622
      5          6           0        3.771402   -0.518547    0.054165
      6          6           0        4.349268    0.435954    0.896510
      7          1           0        4.013112    2.136818    2.181181
      8          1           0        1.554247    2.158013    1.808401
      9          1           0        0.505348    0.452854    0.300977
     10          1           0        4.362046   -1.275370   -0.447608
     11          1           0        5.423526    0.424151    1.057374
     12          7           0        1.767572   -1.485920   -1.024160
     13          8           0        2.509598   -2.309711   -1.554633
     14          8           0        0.548900   -1.431103   -1.174062
     15          6           0       -3.012851    0.773810   -0.658752
     16          6           0       -2.302244    2.105354   -0.413780
     17          6           0       -1.951097    2.835364   -1.710536
     18          1           0       -2.372762    0.132786   -1.280297
     19          1           0       -3.928873    0.956082   -1.237610
     20          1           0       -1.388551    1.920788    0.165632
     21          1           0       -2.944017    2.743210    0.207414
     22          1           0       -2.855403    3.048371   -2.289725
     23          1           0       -1.291098    2.221275   -2.331744
     24          1           0       -1.443840    3.784671   -1.512125
     25          6           0       -3.370395    0.032206    0.628072
     26          6           0       -4.081003   -1.299338    0.383100
     27          6           0       -4.432149   -2.029348    1.679855
     28          1           0       -2.454373   -0.150066    1.206929
     29          1           0       -4.010485    0.673230    1.249616
     30          1           0       -3.439228   -1.937194   -0.238094
     31          1           0       -4.994695   -1.114772   -0.196313
     32          1           0       -5.092147   -1.415260    2.301063
     33          1           0       -3.527843   -2.242355    2.259044
     34          1           0       -4.939405   -2.978655    1.481444
 ---------------------------------------------------------------------

 SCF Done:  E(RHF) =  -669.535847087     A.U. after   15 cycles
 E2 =    -0.2092075342D+01 EUMP2 =    -0.67162792242888D+03

 The electronic state is 1-A.
 Alpha  occ. eigenvalues --  -20.60886 -20.60877 -15.85930 -11.31236 -11.27803
 Alpha  occ. eigenvalues --  -11.27781 -11.27539 -11.26812 -11.26796 -11.21815
 Alpha  occ. eigenvalues --  -11.21215 -11.21156 -11.21110 -11.21085 -11.20739
 Alpha  occ. eigenvalues --   -1.59952  -1.39508  -1.19407  -1.08813  -1.08256
 Alpha  occ. eigenvalues --   -1.04804  -1.03387  -0.95809  -0.95657  -0.86836
 Alpha  occ. eigenvalues --   -0.86205  -0.82493  -0.79474  -0.78047  -0.77546
 Alpha  occ. eigenvalues --   -0.72153  -0.71269  -0.70529  -0.65063  -0.65024
 Alpha  occ. eigenvalues --   -0.64689  -0.62173  -0.60752  -0.59201  -0.57425
 Alpha  occ. eigenvalues --   -0.55310  -0.55076  -0.53134  -0.52905  -0.52541
 Alpha  occ. eigenvalues --   -0.52232  -0.49755  -0.48911  -0.48900  -0.47779
 Alpha  occ. eigenvalues --   -0.46498  -0.45607  -0.45448  -0.44920  -0.43619
 Alpha  occ. eigenvalues --   -0.37387  -0.36401
 Alpha virt. eigenvalues --    0.04973   0.11236   0.16478   0.19230   0.22910
 Alpha virt. eigenvalues --    0.24328   0.25597   0.27079   0.27752   0.28186
 Alpha virt. eigenvalues --    0.29361   0.31158   0.31635   0.31849   0.32331

 Mulliken charges:
               1
     1  C   -0.170505
     2  C   -0.221275
     3  C   -0.180368
     4  C    0.159353
     5  C   -0.170145
     6  C   -0.218939
     7  H    0.225900
     8  H    0.224237
     9  H    0.287263
    10  H    0.275621
    11  H    0.223688
    12  N    0.488913
    13  O   -0.459375
    14  O   -0.463609
    15  C   -0.306236
    16  C   -0.298901
    17  C   -0.476936
    18  H    0.169379
    19  H    0.149804
    20  H    0.135274
    21  H    0.152033
    22  H    0.157682
    23  H    0.161520
    24  H    0.156536
    25  C   -0.296434
    26  C   -0.301989
    27  C   -0.475679
    28  H    0.144513
    29  H    0.146415
    30  H    0.163317
    31  H    0.150697
    32  H    0.152300
    33  H    0.155008
    34  H    0.160937
 Sum of Mulliken charges =  -0.00000

 Dipole moment (field-independent basis, Debye):
    X=              2.2002    Y=              3.4148    Z=              2.9752  Tot=              5.0352
 Quadrupole moment (field-independent basis, Debye-Ang):
   XX=            -79.4083   YY=            -98.3147   ZZ=            -96.8630
   XY=              5.0606   XZ=              7.1993   YZ=             -0.9379

 Normal termination of Gaussian 16 at Thu May  6 09:24:05 2021.
