 Gaussian 16, Revision A.03,
 Gaussian 16:  EM64L-G16RevA.03 25-Dec-2016

 -------------
 #p 6-31g* mp2
 -------------

 ------------------------------------------------------
 Input file generated by CHIRIPA (05-May-2021 14:53:13)
 ------------------------------------------------------
 Symbolic Z-matrix:
 Charge =  0 Multiplicity = 1

                         Standard orientation:
 ---------------------------------------------------------------------
 Center     Atomic      Atomic             Coordinates (Angstroms)
 Number     Number       Type             X           Y           Z
 ---------------------------------------------------------------------
      1          6           0        4.150935   -0.070190   -0.313884
      2          6           0        5.555605    0.505738   -0.131691
      3          6           0        6.327871    0.607878   -1.447352
      4          1           0        4.226205   -1.064649   -0.774678
      5          1           0        3.592554    0.559996   -1.019910
      6          1           0        6.110710   -0.124564    0.574845
      7          1           0        5.476991    1.498861    0.328898
      8          1           0        5.798510    1.253382   -2.155662
      9          1           0        6.435829   -0.379268   -1.908318
     10          1           0        7.329276    1.022025   -1.293956
     11          6           0        3.366449   -0.178508    0.992476
     12          6           0        1.961779   -0.754436    0.810282
     13          6           0        1.189513   -0.856576    2.125944
     14          1           0        3.924830   -0.808694    1.698502
     15          1           0        3.291179    0.815951    1.453269
     16          1           0        2.040392   -1.747559    0.349693
     17          1           0        1.406674   -0.124134    0.103746
     18          1           0        1.081555    0.130570    2.586909
     19          1           0        1.718874   -1.502080    2.834254
     20          1           0        0.188108   -1.270723    1.972547
     21          6           0       -2.688148   -2.379340   -0.678912
     22          6           0       -3.951000   -1.835844   -0.421347
     23          6           0       -4.100427   -0.465083   -0.190632
     24          6           0       -2.960486    0.336565   -0.225066
     25          6           0       -1.688854   -0.175080   -0.478962
     26          6           0       -1.563089   -1.548688   -0.706848
     27          1           0       -2.581261   -3.445287   -0.857039
     28          1           0       -4.826494   -2.478540   -0.399042
     29          1           0       -5.066241   -0.017985    0.011170
     30          1           0       -0.834652    0.490882   -0.494764
     31          1           0       -0.581101   -1.968013   -0.906625
     32          7           0       -3.106152    1.789236    0.017684
     33          8           0       -2.086215    2.474136   -0.018085
     34          8           0       -4.237504    2.215434    0.239126
 ---------------------------------------------------------------------

 SCF Done:  E(RHF) =  -669.535224011     A.U. after   15 cycles
 E2 =    -0.2092675206D+01 EUMP2 =    -0.67162789921716D+03

 The electronic state is 1-A.
 Alpha  occ. eigenvalues --  -20.60762 -20.60757 -15.85814 -11.31164 -11.27743
 Alpha  occ. eigenvalues --  -11.27718 -11.27482 -11.26756 -11.26716 -11.22343
 Alpha  occ. eigenvalues --  -11.21837 -11.21806 -11.21712 -11.21454 -11.21253
 Alpha  occ. eigenvalues --   -1.59836  -1.39390  -1.19346  -1.08846  -1.08739
 Alpha  occ. eigenvalues --   -1.04758  -1.03923  -0.96333  -0.95576  -0.87345
 Alpha  occ. eigenvalues --   -0.86141  -0.82416  -0.80044  -0.78668  -0.77441
 Alpha  occ. eigenvalues --   -0.72034  -0.71158  -0.70465  -0.65498  -0.64995
 Alpha  occ. eigenvalues --   -0.64733  -0.62189  -0.61273  -0.59696  -0.57956
 Alpha  occ. eigenvalues --   -0.55599  -0.55239  -0.53241  -0.52956  -0.52836
 Alpha  occ. eigenvalues --   -0.52639  -0.50262  -0.48792  -0.48790  -0.48326
 Alpha  occ. eigenvalues --   -0.47066  -0.46187  -0.46096  -0.44798  -0.44171
 Alpha  occ. eigenvalues --   -0.37329  -0.36312
 Alpha virt. eigenvalues --    0.05055   0.11275   0.16465   0.20113   0.22756
 Alpha virt. eigenvalues --    0.23987   0.25317   0.25947   0.27539   0.28043
 Alpha virt. eigenvalues --    0.29112   0.29717   0.31340   0.31512   0.32257

 Mulliken charges:
               1
     1  C   -0.299115
     2  C   -0.300194
     3  C   -0.476100
     4  H    0.147560
     5  H    0.150349
     6  H    0.152176
     7  H    0.154509
     8  H    0.156328
     9  H    0.154343
    10  H    0.161584
    11  C   -0.297918
    12  C   -0.305057
    13  C   -0.480772
    14  H    0.151288
    15  H    0.155267
    16  H    0.146437
    17  H    0.145889
    18  H    0.162634
    19  H    0.156561
    20  H    0.162082
    21  C   -0.171770
    22  C   -0.218682
    23  C   -0.170726
    24  C    0.159772
    25  C   -0.175378
    26  C   -0.221756
    27  H    0.225697
    28  H    0.223401
    29  H    0.275556
    30  H    0.280653
    31  H    0.228393
    32  N    0.488210
    33  O   -0.460800
    34  O   -0.460418
 Sum of Mulliken charges =  -0.00000

 Dipole moment (field-independent basis, Debye):
    X=              0.6094    Y=             -5.0621    Z=             -0.7853  Tot=              5.1587
 Quadrupole moment (field-independent basis, Debye-Ang):
   XX=            -92.7544   YY=            -97.9414   ZZ=            -95.7129
   XY=             15.9790   XZ=              2.5857   YZ=              0.8551

 Normal termination of Gaussian 16 at Thu May  6 05:47:25 2021.
