 Gaussian 16, Revision A.03,
 Gaussian 16:  EM64L-G16RevA.03 25-Dec-2016

 -------------
 #p 6-31g* mp2
 -------------

 ------------------------------------------------------
 Input file generated by CHIRIPA (05-May-2021 14:57:24)
 ------------------------------------------------------
 Symbolic Z-matrix:
 Charge =  0 Multiplicity = 1

                         Standard orientation:
 ---------------------------------------------------------------------
 Center     Atomic      Atomic             Coordinates (Angstroms)
 Number     Number       Type             X           Y           Z
 ---------------------------------------------------------------------
      1          6           0       -1.854562   -1.320031    0.465418
      2          6           0       -2.436218   -0.617217    1.525724
      3          6           0       -3.625313    0.093863    1.338731
      4          6           0       -4.208356    0.080543    0.072566
      5          6           0       -3.653208   -0.610034   -1.003633
      6          6           0       -2.463839   -1.314207   -0.793657
      7          1           0       -0.930738   -1.869733    0.619606
      8          1           0       -1.965265   -0.619971    2.504621
      9          1           0       -4.097115    0.646478    2.142122
     10          1           0       -4.146062   -0.588651   -1.968027
     11          1           0       -2.014371   -1.859129   -1.618934
     12          7           0       -5.467343    0.829676   -0.137561
     13          8           0       -5.961262    0.802206   -1.262695
     14          8           0       -5.936378    1.430131    0.826854
     15          6           0        5.429248    2.116495    0.053842
     16          6           0        5.933597    0.884076    0.481977
     17          6           0        5.151073   -0.271370    0.397432
     18          6           0        3.862769   -0.157542   -0.122766
     19          6           0        3.331946    1.055910   -0.557564
     20          6           0        4.132319    2.198334   -0.463649
     21          1           0        6.044064    3.009014    0.123158
     22          1           0        6.940452    0.817532    0.884293
     23          1           0        5.516527   -1.238205    0.721611
     24          1           0        2.324502    1.090777   -0.954122
     25          1           0        3.738015    3.154111   -0.796905
     26          7           0        3.024898   -1.373868   -0.217229
     27          8           0        1.893076   -1.247018   -0.679316
     28          8           0        3.515862   -2.431044    0.172606
 ---------------------------------------------------------------------

 SCF Done:  E(RHF) =  -868.340343486     A.U. after   16 cycles
 E2 =    -0.2598079564D+01 EUMP2 =    -0.87093842305022D+03

 The electronic state is 1-A.
 Alpha  occ. eigenvalues --  -20.61788 -20.61747 -20.60238 -20.60231 -15.86795
 Alpha  occ. eigenvalues --  -15.85286 -11.31874 -11.30450 -11.28405 -11.28401
 Alpha  occ. eigenvalues --  -11.28089 -11.27353 -11.27340 -11.27045 -11.26996
 Alpha  occ. eigenvalues --  -11.26495 -11.25944 -11.25840  -1.60837  -1.59319
 Alpha  occ. eigenvalues --   -1.40396  -1.38878  -1.20019  -1.18592  -1.09467
 Alpha  occ. eigenvalues --   -1.07975  -1.05375  -1.03977  -0.96349  -0.94849
 Alpha  occ. eigenvalues --   -0.86786  -0.85353  -0.83191  -0.81705  -0.78269
 Alpha  occ. eigenvalues --   -0.76821  -0.73035  -0.72142  -0.71505  -0.71117
 Alpha  occ. eigenvalues --   -0.70644  -0.69562  -0.65672  -0.65369  -0.64218
 Alpha  occ. eigenvalues --   -0.63947  -0.62722  -0.61338  -0.55882  -0.54303
 Alpha  occ. eigenvalues --   -0.53722  -0.53458  -0.52311  -0.52043  -0.49795
 Alpha  occ. eigenvalues --   -0.49756  -0.48274  -0.48242  -0.45859  -0.44330
 Alpha  occ. eigenvalues --   -0.37982  -0.36967  -0.36488  -0.35612
 Alpha virt. eigenvalues --    0.04219   0.05727   0.10692   0.12065   0.15764
 Alpha virt. eigenvalues --    0.17296   0.20879   0.22421   0.26815   0.27729
 Alpha virt. eigenvalues --    0.28133   0.29428   0.30493   0.31890   0.32226

 Mulliken charges:
               1
     1  C   -0.171747
     2  C   -0.221751
     3  C   -0.172465
     4  C    0.156643
     5  C   -0.173023
     6  C   -0.220750
     7  H    0.244443
     8  H    0.220734
     9  H    0.272097
    10  H    0.272879
    11  H    0.228409
    12  N    0.488251
    13  O   -0.462576
    14  O   -0.463288
    15  C   -0.169780
    16  C   -0.218608
    17  C   -0.170675
    18  C    0.157093
    19  C   -0.171145
    20  C   -0.218605
    21  H    0.228196
    22  H    0.225486
    23  H    0.276165
    24  H    0.276063
    25  H    0.226263
    26  N    0.489014
    27  O   -0.469621
    28  O   -0.457704
 Sum of Mulliken charges =  -0.00000

 Dipole moment (field-independent basis, Debye):
    X=              7.9251    Y=              1.5941    Z=              1.0446  Tot=              8.1510
 Quadrupole moment (field-independent basis, Debye-Ang):
   XX=           -118.0092   YY=           -105.4372   ZZ=           -100.3901
   XY=             26.1630   XZ=              0.1239   YZ=             -0.4135

 Normal termination of Gaussian 16 at Thu May  6 08:16:00 2021.
