 Gaussian 16, Revision A.03,
 Gaussian 16:  EM64L-G16RevA.03 25-Dec-2016

 -------------
 #p 6-31g* mp2
 -------------

 ------------------------------------------------------
 Input file generated by CHIRIPA (05-May-2021 14:55:22)
 ------------------------------------------------------
 Symbolic Z-matrix:
 Charge =  0 Multiplicity = 1

                         Standard orientation:
 ---------------------------------------------------------------------
 Center     Atomic      Atomic             Coordinates (Angstroms)
 Number     Number       Type             X           Y           Z
 ---------------------------------------------------------------------
      1          6           0        1.428506    0.837812    0.745739
      2          6           0        2.499332    1.716367    0.940655
      3          6           0        3.785181    1.374820    0.511136
      4          6           0        3.965113    0.141114   -0.112471
      5          6           0        2.918453   -0.755698   -0.321085
      6          6           0        1.641109   -0.393246    0.116600
      7          1           0        0.432931    1.111254    1.082571
      8          1           0        2.337171    2.673087    1.428955
      9          1           0        4.632030    2.036008    0.649315
     10          1           0        3.111182   -1.702415   -0.810985
     11          1           0        0.811362   -1.077531   -0.036108
     12          7           0        5.321882   -0.231532   -0.571506
     13          8           0        5.454164   -1.324329   -1.118255
     14          8           0        6.227344    0.576240   -0.375857
     15          6           0       -4.410663   -0.851306    0.346556
     16          6           0       -2.923264   -0.572277    0.565115
     17          6           0       -2.179689   -1.766180    1.164688
     18          1           0       -4.870208   -1.127335    1.305499
     19          1           0       -4.519946   -1.722144   -0.314576
     20          1           0       -2.816814    0.298622    1.224525
     21          1           0       -2.467246   -0.296694   -0.394425
     22          1           0       -2.256221   -2.637720    0.506539
     23          1           0       -2.607776   -2.039023    2.134689
     24          1           0       -1.118074   -1.544885    1.312542
     25          6           0       -5.167580    0.332827   -0.252306
     26          6           0       -6.654980    0.053797   -0.470865
     27          6           0       -7.398553    1.247701   -1.070438
     28          1           0       -5.058297    1.203664    0.408826
     29          1           0       -4.708036    0.608856   -1.211248
     30          1           0       -7.110996   -0.221787    0.488676
     31          1           0       -6.761428   -0.817101   -1.130275
     32          1           0       -6.970467    1.520544   -2.040437
     33          1           0       -7.322022    2.119241   -0.412289
     34          1           0       -8.460169    1.026406   -1.218291
 ---------------------------------------------------------------------

 SCF Done:  E(RHF) =  -669.535549263     A.U. after   15 cycles
 E2 =    -0.2091168238D+01 EUMP2 =    -0.67162671750163D+03

 The electronic state is 1-A.
 Alpha  occ. eigenvalues --  -20.60732 -20.60727 -15.85785 -11.31146 -11.27719
 Alpha  occ. eigenvalues --  -11.27710 -11.27447 -11.26729 -11.26691 -11.22747
 Alpha  occ. eigenvalues --  -11.22284 -11.22240 -11.22170 -11.22069 -11.21549
 Alpha  occ. eigenvalues --   -1.59808  -1.39361  -1.19318  -1.09253  -1.08713
 Alpha  occ. eigenvalues --   -1.04723  -1.04375  -0.96817  -0.95547  -0.87834
 Alpha  occ. eigenvalues --   -0.86119  -0.82380  -0.80457  -0.79023  -0.77433
 Alpha  occ. eigenvalues --   -0.72004  -0.71131  -0.70423  -0.65877  -0.64972
 Alpha  occ. eigenvalues --   -0.64772  -0.62128  -0.61750  -0.60191  -0.58410
 Alpha  occ. eigenvalues --   -0.56076  -0.55213  -0.53588  -0.53278  -0.53040
 Alpha  occ. eigenvalues --   -0.52706  -0.50737  -0.48804  -0.48759  -0.48719
 Alpha  occ. eigenvalues --   -0.47483  -0.46570  -0.46464  -0.44768  -0.44615
 Alpha  occ. eigenvalues --   -0.37295  -0.36323
 Alpha virt. eigenvalues --    0.05105   0.11261   0.16600   0.19159   0.22444
 Alpha virt. eigenvalues --    0.23884   0.25552   0.25997   0.26483   0.27623
 Alpha virt. eigenvalues --    0.29070   0.29840   0.30671   0.31292   0.31595

 Mulliken charges:
               1
     1  C   -0.173405
     2  C   -0.218686
     3  C   -0.171040
     4  C    0.158646
     5  C   -0.171292
     6  C   -0.223937
     7  H    0.227930
     8  H    0.223298
     9  H    0.275463
    10  H    0.275740
    11  H    0.229961
    12  N    0.488012
    13  O   -0.460477
    14  O   -0.460547
    15  C   -0.298508
    16  C   -0.302984
    17  C   -0.481371
    18  H    0.152238
    19  H    0.152178
    20  H    0.149484
    21  H    0.150883
    22  H    0.159281
    23  H    0.161921
    24  H    0.153317
    25  C   -0.298993
    26  C   -0.300328
    27  C   -0.476154
    28  H    0.149348
    29  H    0.150417
    30  H    0.152935
    31  H    0.153209
    32  H    0.155895
    33  H    0.155417
    34  H    0.162149
 Sum of Mulliken charges =  -0.00000

 Dipole moment (field-independent basis, Debye):
    X=             -5.0345    Y=              1.2813    Z=              1.6123  Tot=              5.4395
 Quadrupole moment (field-independent basis, Debye-Ang):
   XX=           -132.0190   YY=            -91.1173   ZZ=            -94.5608
   XY=              6.9726   XZ=              7.1834   YZ=              2.4657

 Normal termination of Gaussian 16 at Thu May  6 12:33:03 2021.
