 Gaussian 16, Revision A.03,
 Gaussian 16:  EM64L-G16RevA.03 25-Dec-2016

 -------------
 #p 6-31g* mp2
 -------------

 ------------------------------------------------------
 Input file generated by CHIRIPA (05-May-2021 14:55:23)
 ------------------------------------------------------
 Symbolic Z-matrix:
 Charge =  0 Multiplicity = 1

                         Standard orientation:
 ---------------------------------------------------------------------
 Center     Atomic      Atomic             Coordinates (Angstroms)
 Number     Number       Type             X           Y           Z
 ---------------------------------------------------------------------
      1          6           0       -4.233571    2.178379    0.671444
      2          6           0       -4.933921    1.219453   -0.067807
      3          6           0       -4.291821    0.062219   -0.518432
      4          6           0       -2.942549   -0.104605   -0.210335
      5          6           0       -2.217558    0.832522    0.524152
      6          6           0       -2.880011    1.982199    0.964547
      7          1           0       -4.740275    3.074411    1.017527
      8          1           0       -5.985177    1.369161   -0.296921
      9          1           0       -4.809996   -0.696274   -1.092541
     10          1           0       -1.170284    0.655379    0.736882
     11          1           0       -2.333592    2.725223    1.538470
     12          7           0       -2.252013   -1.325717   -0.681976
     13          8           0       -1.062737   -1.449128   -0.397319
     14          8           0       -2.913122   -2.136292   -1.327376
     15          6           0        4.044034    0.611556    0.010298
     16          6           0        5.422781    0.861433   -0.601748
     17          6           0        5.671805    2.337085   -0.915166
     18          1           0        3.271643    0.976587   -0.680434
     19          1           0        3.946054    1.204364    0.930283
     20          1           0        5.518652    0.267265   -1.519566
     21          1           0        6.191974    0.495592    0.090436
     22          1           0        5.603213    2.941196   -0.004700
     23          1           0        4.926066    2.711573   -1.623850
     24          1           0        6.663182    2.493005   -1.351883
     25          6           0        3.780242   -0.858976    0.329165
     26          6           0        2.401494   -1.108853    0.941211
     27          6           0        2.152470   -2.584506    1.254628
     28          1           0        3.878222   -1.451785   -0.590820
     29          1           0        4.552633   -1.224008    1.019897
     30          1           0        1.632302   -0.743011    0.249026
     31          1           0        2.305623   -0.514685    1.859028
     32          1           0        2.898209   -2.958994    1.963313
     33          1           0        2.221062   -3.188617    0.344163
     34          1           0        1.161094   -2.740426    1.691346
 ---------------------------------------------------------------------

 SCF Done:  E(RHF) =  -669.536085087     A.U. after   15 cycles
 E2 =    -0.2091280042D+01 EUMP2 =    -0.67162736512923D+03

 The electronic state is 1-A.
 Alpha  occ. eigenvalues --  -20.60915 -20.60903 -15.85952 -11.31267 -11.27833
 Alpha  occ. eigenvalues --  -11.27823 -11.27571 -11.26840 -11.26829 -11.21267
 Alpha  occ. eigenvalues --  -11.20967 -11.20852 -11.20722 -11.20644 -11.19947
 Alpha  occ. eigenvalues --   -1.59978  -1.39534  -1.19437  -1.08843  -1.07856
 Alpha  occ. eigenvalues --   -1.04833  -1.02881  -0.95689  -0.95335  -0.86361
 Alpha  occ. eigenvalues --   -0.86233  -0.82521  -0.78996  -0.77711  -0.77512
 Alpha  occ. eigenvalues --   -0.72181  -0.71293  -0.70546  -0.65099  -0.64836
 Alpha  occ. eigenvalues --   -0.64477  -0.62180  -0.60259  -0.58745  -0.56930
 Alpha  occ. eigenvalues --   -0.55338  -0.54628  -0.53167  -0.52924  -0.52014
 Alpha  occ. eigenvalues --   -0.51773  -0.49310  -0.48934  -0.48918  -0.47297
 Alpha  occ. eigenvalues --   -0.46029  -0.45202  -0.45101  -0.44896  -0.43148
 Alpha  occ. eigenvalues --   -0.37419  -0.36435
 Alpha virt. eigenvalues --    0.04945   0.11219   0.16437   0.21056   0.23364
 Alpha virt. eigenvalues --    0.24574   0.26393   0.27299   0.27615   0.28567
 Alpha virt. eigenvalues --    0.28945   0.30574   0.31651   0.32063   0.32744

 Mulliken charges:
               1
     1  C   -0.170519
     2  C   -0.218659
     3  C   -0.170838
     4  C    0.157415
     5  C   -0.171630
     6  C   -0.219092
     7  H    0.225920
     8  H    0.223703
     9  H    0.275705
    10  H    0.278201
    11  H    0.224128
    12  N    0.494148
    13  O   -0.466649
    14  O   -0.459244
    15  C   -0.297692
    16  C   -0.299108
    17  C   -0.475342
    18  H    0.148517
    19  H    0.145339
    20  H    0.152925
    21  H    0.151403
    22  H    0.153222
    23  H    0.154245
    24  H    0.159515
    25  C   -0.297634
    26  C   -0.307600
    27  C   -0.471045
    28  H    0.151570
    29  H    0.146846
    30  H    0.169590
    31  H    0.140957
    32  H    0.146520
    33  H    0.159536
    34  H    0.165649
 Sum of Mulliken charges =  -0.00000

 Dipole moment (field-independent basis, Debye):
    X=             -2.6711    Y=              4.2122    Z=              1.5595  Tot=              5.2258
 Quadrupole moment (field-independent basis, Debye-Ang):
   XX=            -77.6758   YY=            -96.7731   ZZ=            -94.7187
   XY=            -11.5772   XZ=             -2.2257   YZ=              0.3791

 Normal termination of Gaussian 16 at Wed May  5 20:42:21 2021.
