 Gaussian 16, Revision A.03,
 Gaussian 16:  EM64L-G16RevA.03 25-Dec-2016

 -------------
 #p 6-31g* mp2
 -------------

 ------------------------------------------------------
 Input file generated by CHIRIPA (05-May-2021 14:55:23)
 ------------------------------------------------------
 Symbolic Z-matrix:
 Charge =  0 Multiplicity = 1

                         Standard orientation:
 ---------------------------------------------------------------------
 Center     Atomic      Atomic             Coordinates (Angstroms)
 Number     Number       Type             X           Y           Z
 ---------------------------------------------------------------------
      1          6           0       -1.034743    0.145489    0.270742
      2          6           0       -1.678385    0.637330   -0.869581
      3          6           0       -3.055994    0.467200   -1.036308
      4          6           0       -3.762293   -0.202617   -0.038421
      5          6           0       -3.149668   -0.704105    1.108963
      6          6           0       -1.771140   -0.522482    1.254640
      7          1           0        0.035774    0.282114    0.392083
      8          1           0       -1.109023    1.156483   -1.635318
      9          1           0       -3.579562    0.837861   -1.909179
     10          1           0       -3.743932   -1.217430    1.855130
     11          1           0       -1.273929   -0.905512    2.141271
     12          7           0       -5.221192   -0.388810   -0.203785
     13          8           0       -5.820904   -0.982459    0.689839
     14          8           0       -5.737341    0.062426   -1.223890
     15          6           0        5.087554   -0.119703   -0.349111
     16          6           0        5.332406   -1.557201    0.110925
     17          6           0        6.495055   -2.223569   -0.625277
     18          1           0        4.889505   -0.115982   -1.429717
     19          1           0        6.003748    0.467593   -0.197228
     20          1           0        4.415591   -2.141272   -0.040494
     21          1           0        5.529706   -1.557522    1.190597
     22          1           0        7.423211   -1.665622   -0.464586
     23          1           0        6.302767   -2.252689   -1.702671
     24          1           0        6.652543   -3.250435   -0.280889
     25          6           0        3.928378    0.559845    0.377699
     26          6           0        3.683527    1.997342   -0.082338
     27          6           0        2.520878    2.663710    0.653866
     28          1           0        3.012185   -0.027450    0.225817
     29          1           0        4.126427    0.556124    1.458304
     30          1           0        3.486226    1.997663   -1.162008
     31          1           0        4.600341    2.581413    0.069083
     32          1           0        2.713166    2.692830    1.731259
     33          1           0        1.592721    2.105763    0.493174
     34          1           0        2.363390    3.690577    0.309476
 ---------------------------------------------------------------------

 SCF Done:  E(RHF) =  -669.535438173     A.U. after   15 cycles
 E2 =    -0.2091138295D+01 EUMP2 =    -0.67162657646853D+03

 The electronic state is 1-A.
 Alpha  occ. eigenvalues --  -20.60746 -20.60741 -15.85800 -11.31168 -11.27735
 Alpha  occ. eigenvalues --  -11.27730 -11.27460 -11.26754 -11.26742 -11.22594
 Alpha  occ. eigenvalues --  -11.22410 -11.22285 -11.22212 -11.22158 -11.21622
 Alpha  occ. eigenvalues --   -1.59822  -1.39375  -1.19339  -1.09316  -1.08734
 Alpha  occ. eigenvalues --   -1.04742  -1.04384  -0.96842  -0.95570  -0.87854
 Alpha  occ. eigenvalues --   -0.86139  -0.82404  -0.80451  -0.79116  -0.77447
 Alpha  occ. eigenvalues --   -0.72018  -0.71145  -0.70476  -0.65949  -0.64991
 Alpha  occ. eigenvalues --   -0.64746  -0.62090  -0.61785  -0.60215  -0.58446
 Alpha  occ. eigenvalues --   -0.56194  -0.55230  -0.53507  -0.53260  -0.53058
 Alpha  occ. eigenvalues --   -0.52833  -0.50784  -0.48798  -0.48773  -0.48736
 Alpha  occ. eigenvalues --   -0.47485  -0.46651  -0.46567  -0.44780  -0.44635
 Alpha  occ. eigenvalues --   -0.37313  -0.36346
 Alpha virt. eigenvalues --    0.05067   0.11301   0.16502   0.18814   0.22516
 Alpha virt. eigenvalues --    0.23707   0.25004   0.26353   0.26814   0.27501
 Alpha virt. eigenvalues --    0.29041   0.30309   0.30983   0.31254   0.31783

 Mulliken charges:
               1
     1  C   -0.176993
     2  C   -0.220572
     3  C   -0.170812
     4  C    0.158475
     5  C   -0.170750
     6  C   -0.219914
     7  H    0.234702
     8  H    0.223279
     9  H    0.275544
    10  H    0.275525
    11  H    0.224082
    12  N    0.488021
    13  O   -0.460425
    14  O   -0.460480
    15  C   -0.298637
    16  C   -0.300219
    17  C   -0.476181
    18  H    0.150691
    19  H    0.152422
    20  H    0.151070
    21  H    0.152713
    22  H    0.156470
    23  H    0.156105
    24  H    0.162127
    25  C   -0.299533
    26  C   -0.300780
    27  C   -0.478570
    28  H    0.141801
    29  H    0.151903
    30  H    0.152063
    31  H    0.156891
    32  H    0.159115
    33  H    0.145231
    34  H    0.165636
 Sum of Mulliken charges =  -0.00000

 Dipole moment (field-independent basis, Debye):
    X=              5.3776    Y=              0.6932    Z=              0.5916  Tot=              5.4542
 Quadrupole moment (field-independent basis, Debye-Ang):
   XX=           -133.2353   YY=            -94.4913   ZZ=            -90.7645
   XY=             -2.5318   XZ=             -1.7553   YZ=             -2.5993

 Normal termination of Gaussian 16 at Wed May  5 19:05:18 2021.
