 Gaussian 16, Revision A.03,
 Gaussian 16:  EM64L-G16RevA.03 25-Dec-2016

 -------------
 #p 6-31g* mp2
 -------------

 ------------------------------------------------------
 Input file generated by CHIRIPA (05-May-2021 14:55:25)
 ------------------------------------------------------
 Symbolic Z-matrix:
 Charge =  0 Multiplicity = 1

                         Standard orientation:
 ---------------------------------------------------------------------
 Center     Atomic      Atomic             Coordinates (Angstroms)
 Number     Number       Type             X           Y           Z
 ---------------------------------------------------------------------
      1          6           0       -0.418913   -0.507913    1.455146
      2          6           0       -1.002669   -1.652224    0.901699
      3          6           0       -2.215020   -1.567414    0.210641
      4          6           0       -2.818925   -0.316661    0.091454
      5          6           0       -2.262289    0.841611    0.631689
      6          6           0       -1.049475    0.733164    1.318615
      7          1           0        0.523051   -0.582976    1.990371
      8          1           0       -0.515217   -2.617377    1.006173
      9          1           0       -2.688981   -2.437271   -0.227682
     10          1           0       -2.771925    1.789849    0.511130
     11          1           0       -0.598432    1.623531    1.747395
     12          7           0       -4.102632   -0.214365   -0.637951
     13          8           0       -4.614647    0.899264   -0.729097
     14          8           0       -4.572479   -1.249752   -1.104700
     15          6           0        2.715830    0.805967   -0.039898
     16          6           0        2.683698    2.260968   -0.508856
     17          6           0        1.434095    3.006133   -0.038733
     18          1           0        1.818863    0.289005   -0.407522
     19          1           0        2.663652    0.780446    1.057381
     20          1           0        2.737315    2.283788   -1.604858
     21          1           0        3.580941    2.774477   -0.140234
     22          1           0        1.378200    3.013059    1.054624
     23          1           0        0.529782    2.519583   -0.418322
     24          1           0        1.431644    4.044330   -0.385145
     25          6           0        3.958998    0.047846   -0.501974
     26          6           0        3.991129   -1.407155   -0.033017
     27          6           0        5.240732   -2.152320   -0.503139
     28          1           0        4.011175    0.073367   -1.599253
     29          1           0        4.855964    0.564808   -0.134351
     30          1           0        3.093887   -1.920664   -0.401639
     31          1           0        3.937512   -1.429975    1.062985
     32          1           0        6.145046   -1.665770   -0.123551
     33          1           0        5.296627   -2.159246   -1.596496
     34          1           0        5.243184   -3.190517   -0.156728
 ---------------------------------------------------------------------

 SCF Done:  E(RHF) =  -669.533968589     A.U. after   15 cycles
 E2 =    -0.2094100896D+01 EUMP2 =    -0.67162806948509D+03

 The electronic state is 1-A.
 Alpha  occ. eigenvalues --  -20.60736 -20.60730 -15.85789 -11.31143 -11.27715
 Alpha  occ. eigenvalues --  -11.27693 -11.27392 -11.26723 -11.26632 -11.22428
 Alpha  occ. eigenvalues --  -11.22358 -11.22213 -11.22105 -11.21897 -11.21721
 Alpha  occ. eigenvalues --   -1.59812  -1.39366  -1.19319  -1.09240  -1.08699
 Alpha  occ. eigenvalues --   -1.04730  -1.04299  -0.96764  -0.95544  -0.87793
 Alpha  occ. eigenvalues --   -0.86109  -0.82375  -0.80398  -0.79093  -0.77419
 Alpha  occ. eigenvalues --   -0.72006  -0.71137  -0.70400  -0.65852  -0.64958
 Alpha  occ. eigenvalues --   -0.64731  -0.62093  -0.61702  -0.60109  -0.58398
 Alpha  occ. eigenvalues --   -0.56051  -0.55210  -0.53443  -0.53344  -0.53084
 Alpha  occ. eigenvalues --   -0.52618  -0.50703  -0.48792  -0.48763  -0.48636
 Alpha  occ. eigenvalues --   -0.47412  -0.46591  -0.46503  -0.44774  -0.44556
 Alpha  occ. eigenvalues --   -0.37203  -0.36283
 Alpha virt. eigenvalues --    0.05071   0.11267   0.16478   0.20051   0.22524
 Alpha virt. eigenvalues --    0.23460   0.24886   0.25633   0.26670   0.28606
 Alpha virt. eigenvalues --    0.29069   0.30238   0.31176   0.31374   0.31571

 Mulliken charges:
               1
     1  C   -0.170528
     2  C   -0.221198
     3  C   -0.171218
     4  C    0.158523
     5  C   -0.174560
     6  C   -0.218122
     7  H    0.228901
     8  H    0.223552
     9  H    0.275291
    10  H    0.275819
    11  H    0.229351
    12  N    0.488075
    13  O   -0.460511
    14  O   -0.460722
    15  C   -0.304703
    16  C   -0.298626
    17  C   -0.482302
    18  H    0.158375
    19  H    0.138743
    20  H    0.156610
    21  H    0.153569
    22  H    0.145261
    23  H    0.161908
    24  H    0.165059
    25  C   -0.297804
    26  C   -0.300723
    27  C   -0.475823
    28  H    0.153264
    29  H    0.151369
    30  H    0.150236
    31  H    0.147184
    32  H    0.157006
    33  H    0.157900
    34  H    0.160845
 Sum of Mulliken charges =  -0.00000

 Dipole moment (field-independent basis, Debye):
    X=              4.6525    Y=             -0.3369    Z=              2.4446  Tot=              5.2665
 Quadrupole moment (field-independent basis, Debye-Ang):
   XX=           -121.2353   YY=            -90.0094   ZZ=            -94.2192
   XY=              0.1140   XZ=             -6.6871   YZ=              0.0330

 Normal termination of Gaussian 16 at Thu May  6 04:50:22 2021.
