 Gaussian 16, Revision A.03,
 Gaussian 16:  EM64L-G16RevA.03 25-Dec-2016

 -------------
 #p 6-31g* mp2
 -------------

 ------------------------------------------------------
 Input file generated by CHIRIPA (05-May-2021 14:55:22)
 ------------------------------------------------------
 Symbolic Z-matrix:
 Charge =  0 Multiplicity = 1

                         Standard orientation:
 ---------------------------------------------------------------------
 Center     Atomic      Atomic             Coordinates (Angstroms)
 Number     Number       Type             X           Y           Z
 ---------------------------------------------------------------------
      1          6           0       -3.160127    1.718456   -1.550415
      2          6           0       -4.066235    0.733516   -1.143743
      3          6           0       -3.689667   -0.235121   -0.208603
      4          6           0       -2.393225   -0.188870    0.301681
      5          6           0       -1.467624    0.779680   -0.083627
      6          6           0       -1.865995    1.738360   -1.019994
      7          1           0       -3.461123    2.467048   -2.277331
      8          1           0       -5.071929    0.715614   -1.553993
      9          1           0       -4.371007   -1.008896    0.123760
     10          1           0       -0.471984    0.771777    0.343055
     11          1           0       -1.160188    2.502096   -1.333983
     12          7           0       -1.983028   -1.209051    1.292322
     13          8           0       -0.835048   -1.146565    1.726918
     14          8           0       -2.817263   -2.051837    1.615432
     15          6           0        2.819218   -0.480001   -0.643564
     16          6           0        3.549054   -1.822606   -0.695872
     17          6           0        2.875557   -2.825443   -1.633162
     18          1           0        1.782138   -0.645945   -0.321271
     19          1           0        2.767941   -0.058712   -1.657112
     20          1           0        3.600157   -2.240583    0.317686
     21          1           0        4.584571   -1.653424   -1.017892
     22          1           0        2.838036   -2.432994   -2.654522
     23          1           0        1.848028   -3.023489   -1.311354
     24          1           0        3.413712   -3.778206   -1.655367
     25          6           0        3.480509    0.533073    0.289230
     26          6           0        2.750671    1.875678    0.341537
     27          6           0        3.424168    2.878515    1.278828
     28          1           0        3.531786    0.111784    1.302779
     29          1           0        4.517588    0.699017   -0.033062
     30          1           0        1.715155    1.706495    0.663559
     31          1           0        2.699570    2.293656   -0.672021
     32          1           0        4.451699    3.076562    0.957021
     33          1           0        3.461691    2.486066    2.300188
     34          1           0        2.886015    3.831278    1.301033
 ---------------------------------------------------------------------

 SCF Done:  E(RHF) =  -669.535885571     A.U. after   15 cycles
 E2 =    -0.2092123671D+01 EUMP2 =    -0.67162800924191D+03

 The electronic state is 1-A.
 Alpha  occ. eigenvalues --  -20.60855 -20.60845 -15.85890 -11.31193 -11.27763
 Alpha  occ. eigenvalues --  -11.27729 -11.27498 -11.26773 -11.26747 -11.21987
 Alpha  occ. eigenvalues --  -11.21381 -11.21340 -11.21282 -11.21241 -11.20764
 Alpha  occ. eigenvalues --   -1.59918  -1.39474  -1.19365  -1.08773  -1.08416
 Alpha  occ. eigenvalues --   -1.04758  -1.03517  -0.95935  -0.95617  -0.86961
 Alpha  occ. eigenvalues --   -0.86164  -0.82449  -0.79636  -0.78245  -0.77486
 Alpha  occ. eigenvalues --   -0.72112  -0.71233  -0.70487  -0.65099  -0.65018
 Alpha  occ. eigenvalues --   -0.64705  -0.62119  -0.60892  -0.59340  -0.57562
 Alpha  occ. eigenvalues --   -0.55274  -0.55192  -0.53092  -0.52881  -0.52651
 Alpha  occ. eigenvalues --   -0.52366  -0.49878  -0.48872  -0.48865  -0.47934
 Alpha  occ. eigenvalues --   -0.46658  -0.45754  -0.45630  -0.44863  -0.43759
 Alpha  occ. eigenvalues --   -0.37347  -0.36354
 Alpha virt. eigenvalues --    0.04994   0.11250   0.16518   0.19927   0.23086
 Alpha virt. eigenvalues --    0.24222   0.24935   0.26758   0.27795   0.28110
 Alpha virt. eigenvalues --    0.29634   0.30961   0.31451   0.31846   0.32138

 Mulliken charges:
               1
     1  C   -0.170468
     2  C   -0.219024
     3  C   -0.169860
     4  C    0.158442
     5  C   -0.182216
     6  C   -0.223060
     7  H    0.225677
     8  H    0.223487
     9  H    0.275508
    10  H    0.292173
    11  H    0.224595
    12  N    0.487080
    13  O   -0.462609
    14  O   -0.459383
    15  C   -0.305008
    16  C   -0.299290
    17  C   -0.476862
    18  H    0.157978
    19  H    0.144396
    20  H    0.157865
    21  H    0.149811
    22  H    0.151577
    23  H    0.160281
    24  H    0.160492
    25  C   -0.297550
    26  C   -0.305385
    27  C   -0.474914
    28  H    0.156832
    29  H    0.149657
    30  H    0.147304
    31  H    0.147841
    32  H    0.156730
    33  H    0.160185
    34  H    0.157719
 Sum of Mulliken charges =  -0.00000

 Dipole moment (field-independent basis, Debye):
    X=             -1.4022    Y=              3.5010    Z=             -3.3933  Tot=              5.0732
 Quadrupole moment (field-independent basis, Debye-Ang):
   XX=            -83.2483   YY=            -96.4096   ZZ=            -97.4869
   XY=             -6.5065   XZ=              8.1213   YZ=              0.9361

 Normal termination of Gaussian 16 at Thu May  6 14:13:34 2021.
