 Gaussian 16, Revision A.03,
 Gaussian 16:  EM64L-G16RevA.03 25-Dec-2016

 -------------
 #p 6-31g* mp2
 -------------

 ------------------------------------------------------
 Input file generated by CHIRIPA (05-May-2021 14:51:08)
 ------------------------------------------------------
 Symbolic Z-matrix:
 Charge =  0 Multiplicity = 1

                         Standard orientation:
 ---------------------------------------------------------------------
 Center     Atomic      Atomic             Coordinates (Angstroms)
 Number     Number       Type             X           Y           Z
 ---------------------------------------------------------------------
      1          6           0       -2.652157    0.147918   -0.431813
      2          6           0       -3.742021    1.185663   -0.161132
      3          6           0       -3.784913    2.287828   -1.219993
      4          1           0       -1.677406    0.652615   -0.477478
      5          1           0       -2.819196   -0.299403   -1.421458
      6          1           0       -3.573772    1.629903    0.828291
      7          1           0       -4.714269    0.678410   -0.115916
      8          1           0       -3.975948    1.862979   -2.210756
      9          1           0       -2.828971    2.819878   -1.261184
     10          1           0       -4.571126    3.018820   -1.006969
     11          6           0       -2.596752   -0.960377    0.618111
     12          6           0       -1.506889   -1.998121    0.347430
     13          6           0       -1.463996   -3.100286    1.406291
     14          1           0       -2.429713   -0.513056    1.607756
     15          1           0       -3.571504   -1.465074    0.663776
     16          1           0       -0.534641   -1.490868    0.302214
     17          1           0       -1.675137   -2.442362   -0.641993
     18          1           0       -2.419939   -3.632337    1.447481
     19          1           0       -1.272962   -2.675437    2.397054
     20          1           0       -0.677783   -3.831279    1.193267
     21          6           0        2.937433    1.063243    0.138823
     22          6           0        1.905585    2.120535    0.533042
     23          6           0        2.547106    3.429330    0.994891
     24          1           0        3.597838    0.867534    0.994689
     25          1           0        3.574267    1.463236   -0.662328
     26          1           0        1.270003    1.718158    1.332255
     27          1           0        1.247440    2.313610   -0.323802
     28          1           0        3.166359    3.856520    0.199508
     29          1           0        3.189050    3.257685    1.864975
     30          1           0        1.791419    4.171006    1.271864
     31          6           0        2.311477   -0.250784   -0.325121
     32          6           0        3.343323   -1.308077   -0.719339
     33          6           0        2.701804   -2.616871   -1.181189
     34          1           0        1.674643   -0.650778    0.476030
     35          1           0        1.651071   -0.055075   -1.180986
     36          1           0        4.001470   -1.501151    0.137504
     37          1           0        3.978906   -0.905698   -1.518553
     38          1           0        2.059859   -2.445225   -2.051273
     39          1           0        2.082551   -3.044062   -0.385806
     40          1           0        3.457491   -3.358547   -1.458162
 ---------------------------------------------------------------------

 SCF Done:  E(RHF) =  -470.733256696     A.U. after   11 cycles
 E2 =    -0.1583751371D+01 EUMP2 =    -0.47231700806707D+03

 The electronic state is 1-A.
 Alpha  occ. eigenvalues --  -11.21693 -11.21643 -11.21565 -11.21473 -11.21467
 Alpha  occ. eigenvalues --  -11.21407 -11.21346 -11.21287 -11.21136 -11.21086
 Alpha  occ. eigenvalues --  -11.21051 -11.21046  -1.08504  -1.08368  -1.03590
 Alpha  occ. eigenvalues --   -1.03477  -0.96032  -0.95939  -0.87051  -0.86951
 Alpha  occ. eigenvalues --   -0.79686  -0.79520  -0.78421  -0.78081  -0.65167
 Alpha  occ. eigenvalues --   -0.64975  -0.61010  -0.60866  -0.59438  -0.59269
 Alpha  occ. eigenvalues --   -0.57654  -0.57536  -0.55324  -0.55224  -0.52726
 Alpha  occ. eigenvalues --   -0.52634  -0.52493  -0.52334  -0.49991  -0.49871
 Alpha  occ. eigenvalues --   -0.48077  -0.47792  -0.46795  -0.46609  -0.46165
 Alpha  occ. eigenvalues --   -0.45759  -0.45686  -0.45147  -0.43842  -0.43732
 Alpha virt. eigenvalues --    0.20768   0.22406   0.23570   0.24874   0.25028
 Alpha virt. eigenvalues --    0.26478   0.26644   0.27264   0.28640   0.30271
 Alpha virt. eigenvalues --    0.30369   0.30883   0.31599   0.31817   0.32066

 Mulliken charges:
               1
     1  C   -0.300121
     2  C   -0.299459
     3  C   -0.475669
     4  H    0.151701
     5  H    0.149101
     6  H    0.151856
     7  H    0.151827
     8  H    0.155000
     9  H    0.154983
    10  H    0.160135
    11  C   -0.297493
    12  C   -0.309060
    13  C   -0.476420
    14  H    0.148697
    15  H    0.149263
    16  H    0.162272
    17  H    0.151649
    18  H    0.155353
    19  H    0.154259
    20  H    0.160111
    21  C   -0.297509
    22  C   -0.300774
    23  C   -0.475725
    24  H    0.149835
    25  H    0.149911
    26  H    0.151465
    27  H    0.152246
    28  H    0.155565
    29  H    0.155474
    30  H    0.160419
    31  C   -0.304230
    32  C   -0.299419
    33  C   -0.477290
    34  H    0.154174
    35  H    0.150980
    36  H    0.151887
    37  H    0.152114
    38  H    0.155858
    39  H    0.156752
    40  H    0.160280
 Sum of Mulliken charges =  -0.00000

 Dipole moment (field-independent basis, Debye):
    X=              0.0612    Y=              0.0138    Z=             -0.0159  Tot=              0.0647
 Quadrupole moment (field-independent basis, Debye-Ang):
   XX=            -84.4850   YY=            -86.1703   ZZ=            -84.1564
   XY=              0.1788   XZ=              0.1729   YZ=              0.2546

 Normal termination of Gaussian 16 at Thu May  6 13:12:25 2021.
