 Gaussian 16, Revision A.03,
 Gaussian 16:  EM64L-G16RevA.03 25-Dec-2016

 -------------
 #p 6-31g* mp2
 -------------

 ------------------------------------------------------
 Input file generated by CHIRIPA (05-May-2021 14:51:07)
 ------------------------------------------------------
 Symbolic Z-matrix:
 Charge =  0 Multiplicity = 1

                         Standard orientation:
 ---------------------------------------------------------------------
 Center     Atomic      Atomic             Coordinates (Angstroms)
 Number     Number       Type             X           Y           Z
 ---------------------------------------------------------------------
      1          6           0        3.188667    0.620983   -0.577386
      2          6           0        3.273208    1.920861    0.223335
      3          6           0        2.823247    3.140910   -0.580910
      4          1           0        3.805837    0.713916   -1.481493
      5          1           0        2.154379    0.475287   -0.918586
      6          1           0        4.306742    2.063357    0.564095
      7          1           0        2.655916    1.824753    1.125738
      8          1           0        1.785051    3.024885   -0.908458
      9          1           0        3.445256    3.264845   -1.473291
     10          1           0        2.891760    4.059216    0.010597
     11          6           0        3.635186   -0.607619    0.213110
     12          6           0        3.550645   -1.907497   -0.587611
     13          6           0        4.000605   -3.127547    0.216633
     14          1           0        4.669473   -0.461923    0.554310
     15          1           0        3.018015   -0.700552    1.117217
     16          1           0        4.167936   -1.811389   -1.490014
     17          1           0        2.517110   -2.049994   -0.928372
     18          1           0        3.378596   -3.251481    1.109015
     19          1           0        5.038802   -3.011521    0.544182
     20          1           0        3.932092   -4.045853   -0.374873
     21          6           0       -3.942847   -0.391677   -0.209439
     22          6           0       -5.368083    0.086337    0.070188
     23          6           0       -6.418984   -0.693496   -0.720545
     24          1           0       -3.736758   -0.300797   -1.284713
     25          1           0       -3.867658   -1.460550    0.033985
     26          1           0       -5.440196    1.154315   -0.172382
     27          1           0       -5.570738   -0.005512    1.144950
     28          1           0       -6.376068   -1.758817   -0.471850
     29          1           0       -6.244784   -0.592400   -1.796666
     30          1           0       -7.430612   -0.335401   -0.505514
     31          6           0       -2.881005    0.378315    0.573716
     32          6           0       -1.455770   -0.099701    0.294087
     33          6           0       -0.404868    0.680132    1.084822
     34          1           0       -2.956195    1.447186    0.330291
     35          1           0       -3.087095    0.287434    1.648989
     36          1           0       -1.253115   -0.007852   -0.780674
     37          1           0       -1.383658   -1.167678    0.536657
     38          1           0       -0.579069    0.579036    2.160942
     39          1           0       -0.447784    1.745453    0.836126
     40          1           0        0.606760    0.322037    0.869790
 ---------------------------------------------------------------------

 SCF Done:  E(RHF) =  -470.732564130     A.U. after   11 cycles
 E2 =    -0.1583954975D+01 EUMP2 =    -0.47231651910480D+03

 The electronic state is 1-A.
 Alpha  occ. eigenvalues --  -11.21675 -11.21627 -11.21604 -11.21527 -11.21447
 Alpha  occ. eigenvalues --  -11.21397 -11.21386 -11.21322 -11.21103 -11.21090
 Alpha  occ. eigenvalues --  -11.21072 -11.21028  -1.08492  -1.08411  -1.03595
 Alpha  occ. eigenvalues --   -1.03490  -0.96043  -0.95953  -0.87076  -0.86955
 Alpha  occ. eigenvalues --   -0.79649  -0.79568  -0.78292  -0.78228  -0.65208
 Alpha  occ. eigenvalues --   -0.65073  -0.61084  -0.60844  -0.59349  -0.59317
 Alpha  occ. eigenvalues --   -0.57650  -0.57568  -0.55347  -0.55222  -0.52737
 Alpha  occ. eigenvalues --   -0.52620  -0.52475  -0.52340  -0.49964  -0.49892
 Alpha  occ. eigenvalues --   -0.47951  -0.47885  -0.46672  -0.46603  -0.45830
 Alpha  occ. eigenvalues --   -0.45763  -0.45752  -0.45701  -0.43802  -0.43747
 Alpha virt. eigenvalues --    0.20419   0.23061   0.23753   0.24901   0.26301
 Alpha virt. eigenvalues --    0.26400   0.26809   0.27214   0.27932   0.29491
 Alpha virt. eigenvalues --    0.30795   0.31335   0.31617   0.32044   0.32274

 Mulliken charges:
               1
     1  C   -0.303721
     2  C   -0.301346
     3  C   -0.476430
     4  H    0.151066
     5  H    0.151802
     6  H    0.151712
     7  H    0.155725
     8  H    0.155777
     9  H    0.154802
    10  H    0.160045
    11  C   -0.301115
    12  C   -0.299656
    13  C   -0.475714
    14  H    0.150264
    15  H    0.150517
    16  H    0.152141
    17  H    0.152029
    18  H    0.155193
    19  H    0.155219
    20  H    0.160280
    21  C   -0.298304
    22  C   -0.299682
    23  C   -0.475734
    24  H    0.149724
    25  H    0.149574
    26  H    0.152020
    27  H    0.151991
    28  H    0.155216
    29  H    0.155240
    30  H    0.160356
    31  C   -0.298540
    32  C   -0.300379
    33  C   -0.485816
    34  H    0.149720
    35  H    0.149897
    36  H    0.151830
    37  H    0.151922
    38  H    0.155177
    39  H    0.156251
    40  H    0.170946
 Sum of Mulliken charges =  -0.00000

 Dipole moment (field-independent basis, Debye):
    X=             -0.0103    Y=             -0.0016    Z=              0.0093  Tot=              0.0139
 Quadrupole moment (field-independent basis, Debye-Ang):
   XX=            -84.7102   YY=            -85.5162   ZZ=            -84.5457
   XY=              0.0370   XZ=             -0.9208   YZ=             -0.3546

 Normal termination of Gaussian 16 at Thu May  6 02:02:48 2021.
