 Gaussian 16, Revision A.03,
 Gaussian 16:  EM64L-G16RevA.03 25-Dec-2016

 -------------
 #p 6-31g* mp2
 -------------

 ------------------------------------------------------
 Input file generated by CHIRIPA (05-May-2021 14:51:13)
 ------------------------------------------------------
 Symbolic Z-matrix:
 Charge =  0 Multiplicity = 1

                         Standard orientation:
 ---------------------------------------------------------------------
 Center     Atomic      Atomic             Coordinates (Angstroms)
 Number     Number       Type             X           Y           Z
 ---------------------------------------------------------------------
      1          6           0        4.014573   -0.348738    0.387606
      2          6           0        4.484574   -0.965254   -0.930344
      3          6           0        5.848541   -1.645868   -0.811389
      4          1           0        4.761158    0.380507    0.730764
      5          1           0        3.968132   -1.133391    1.155433
      6          1           0        4.528787   -0.179932   -1.695806
      7          1           0        3.736691   -1.692976   -1.270502
      8          1           0        5.814924   -2.448699   -0.067794
      9          1           0        6.611520   -0.927058   -0.495514
     10          1           0        6.165253   -2.079716   -1.764977
     11          6           0        2.652542    0.335378    0.284713
     12          6           0        2.182541    0.951893    1.602663
     13          6           0        0.818574    1.632508    1.483708
     14          1           0        2.698983    1.120031   -0.483113
     15          1           0        1.905957   -0.393867   -0.058445
     16          1           0        2.930424    1.679616    1.942821
     17          1           0        2.138328    0.166572    2.368125
     18          1           0        0.055595    0.913698    1.167833
     19          1           0        0.852191    2.435339    0.740113
     20          1           0        0.501862    2.066356    2.437296
     21          6           0       -3.879725   -0.342560    0.067777
     22          6           0       -3.929509   -1.853797   -0.159530
     23          6           0       -5.027243   -2.538335    0.655443
     24          1           0       -3.722609   -0.143954    1.136803
     25          1           0       -4.855044    0.092442   -0.190915
     26          1           0       -2.953953   -2.285634    0.098197
     27          1           0       -4.086332   -2.048831   -1.228167
     28          1           0       -6.010506   -2.134979    0.392576
     29          1           0       -4.871693   -2.373129    1.726476
     30          1           0       -5.044962   -3.618142    0.477787
     31          6           0       -2.787390    0.355920   -0.740096
     32          6           0       -2.737606    1.867157   -0.512790
     33          6           0       -1.639872    2.551695   -1.327762
     34          1           0       -1.812071   -0.079081   -0.481405
     35          1           0       -2.944505    0.157314   -1.809122
     36          1           0       -2.580783    2.062192    0.555847
     37          1           0       -3.713161    2.298995   -0.770517
     38          1           0       -1.795422    2.386489   -2.398795
     39          1           0       -0.656609    2.148339   -1.064895
     40          1           0       -1.622152    3.631502   -1.150106
 ---------------------------------------------------------------------

 SCF Done:  E(RHF) =  -470.732488230     A.U. after   11 cycles
 E2 =    -0.1583650947D+01 EUMP2 =    -0.47231613917689D+03

 The electronic state is 1-A.
 Alpha  occ. eigenvalues --  -11.21653 -11.21623 -11.21597 -11.21505 -11.21456
 Alpha  occ. eigenvalues --  -11.21392 -11.21378 -11.21317 -11.21113 -11.21088
 Alpha  occ. eigenvalues --  -11.21067 -11.20883  -1.08481  -1.08387  -1.03600
 Alpha  occ. eigenvalues --   -1.03451  -0.96060  -0.95895  -0.87074  -0.86920
 Alpha  occ. eigenvalues --   -0.79674  -0.79515  -0.78304  -0.78193  -0.65131
 Alpha  occ. eigenvalues --   -0.65017  -0.60986  -0.60915  -0.59408  -0.59281
 Alpha  occ. eigenvalues --   -0.57678  -0.57498  -0.55431  -0.55131  -0.52714
 Alpha  occ. eigenvalues --   -0.52615  -0.52510  -0.52272  -0.50143  -0.49699
 Alpha  occ. eigenvalues --   -0.48095  -0.47718  -0.46700  -0.46517  -0.45928
 Alpha  occ. eigenvalues --   -0.45740  -0.45710  -0.45521  -0.43826  -0.43736
 Alpha virt. eigenvalues --    0.20715   0.23028   0.23718   0.24842   0.25625
 Alpha virt. eigenvalues --    0.26533   0.27024   0.27829   0.27948   0.29416
 Alpha virt. eigenvalues --    0.30951   0.31305   0.31596   0.31814   0.32027

 Mulliken charges:
               1
     1  C   -0.298173
     2  C   -0.299742
     3  C   -0.475756
     4  H    0.149876
     5  H    0.149624
     6  H    0.152155
     7  H    0.152072
     8  H    0.155184
     9  H    0.155223
    10  H    0.160401
    11  C   -0.299120
    12  C   -0.299949
    13  C   -0.482474
    14  H    0.149849
    15  H    0.149222
    16  H    0.152266
    17  H    0.151817
    18  H    0.158995
    19  H    0.159911
    20  H    0.160376
    21  C   -0.298301
    22  C   -0.299502
    23  C   -0.475681
    24  H    0.149634
    25  H    0.149689
    26  H    0.151298
    27  H    0.151993
    28  H    0.155268
    29  H    0.155154
    30  H    0.160145
    31  C   -0.301225
    32  C   -0.300258
    33  C   -0.479926
    34  H    0.150420
    35  H    0.149833
    36  H    0.153769
    37  H    0.151661
    38  H    0.153664
    39  H    0.161926
    40  H    0.158681
 Sum of Mulliken charges =  -0.00000

 Dipole moment (field-independent basis, Debye):
    X=              0.0437    Y=              0.0102    Z=              0.0223  Tot=              0.0501
 Quadrupole moment (field-independent basis, Debye-Ang):
   XX=            -85.6580   YY=            -84.7064   ZZ=            -84.4708
   XY=              0.4253   XZ=              0.8011   YZ=              0.0497

 Normal termination of Gaussian 16 at Thu May  6 03:57:10 2021.
