 Gaussian 16, Revision A.03,
 Gaussian 16:  EM64L-G16RevA.03 25-Dec-2016

 -------------
 #p 6-31g* mp2
 -------------

 ------------------------------------------------------
 Input file generated by CHIRIPA (05-May-2021 14:51:11)
 ------------------------------------------------------
 Symbolic Z-matrix:
 Charge =  0 Multiplicity = 1

                         Standard orientation:
 ---------------------------------------------------------------------
 Center     Atomic      Atomic             Coordinates (Angstroms)
 Number     Number       Type             X           Y           Z
 ---------------------------------------------------------------------
      1          6           0       -3.170262   -0.746423    0.177084
      2          6           0       -3.486828    0.656822   -0.341253
      3          6           0       -4.865804    1.151522    0.096344
      4          1           0       -3.941242   -1.444037   -0.177697
      5          1           0       -3.229689   -0.746510    1.274292
      6          1           0       -3.425466    0.654593   -1.437084
      7          1           0       -2.714899    1.351141    0.014645
      8          1           0       -4.935311    1.182337    1.188507
      9          1           0       -5.649915    0.481832   -0.271470
     10          1           0       -5.071480    2.156507   -0.285182
     11          6           0       -1.795099   -1.254838   -0.252066
     12          6           0       -1.478533   -2.658083    0.266272
     13          6           0       -0.099557   -3.152783   -0.171325
     14          1           0       -1.735672   -1.254752   -1.349273
     15          1           0       -1.024119   -0.557225    0.102716
     16          1           0       -2.250462   -3.352402   -0.089626
     17          1           0       -1.539895   -2.655855    1.362103
     18          1           0        0.684553   -2.483094    0.196489
     19          1           0       -0.030051   -3.183599   -1.263488
     20          1           0        0.106119   -4.157768    0.210201
     21          6           0        1.869758    1.329777    0.352803
     22          6           0        1.396620    2.575006   -0.397884
     23          6           0        0.169623    3.222262    0.245024
     24          1           0        1.048814    0.600943    0.395185
     25          1           0        2.099938    1.602098    1.392155
     26          1           0        1.168722    2.300696   -1.435878
     27          1           0        2.218848    3.300882   -0.438652
     28          1           0        0.388053    3.523709    1.274596
     29          1           0       -0.668039    2.517840    0.271702
     30          1           0       -0.151628    4.110620   -0.307678
     31          6           0        3.095603    0.671484   -0.277822
     32          6           0        3.568741   -0.573744    0.472865
     33          6           0        4.795738   -1.221001   -0.170043
     34          1           0        2.865423    0.399163   -1.317175
     35          1           0        3.916547    1.400318   -0.320204
     36          1           0        2.746513   -1.299620    0.513632
     37          1           0        3.796640   -0.299434    1.510860
     38          1           0        5.633401   -0.516578   -0.196721
     39          1           0        4.577308   -1.522447   -1.199615
     40          1           0        5.116989   -2.109358    0.382658
 ---------------------------------------------------------------------

 SCF Done:  E(RHF) =  -470.732383642     A.U. after   11 cycles
 E2 =    -0.1585313493D+01 EUMP2 =    -0.47231769713434D+03

 The electronic state is 1-A.
 Alpha  occ. eigenvalues --  -11.21656 -11.21624 -11.21603 -11.21590 -11.21456
 Alpha  occ. eigenvalues --  -11.21405 -11.21393 -11.21344 -11.21126 -11.21082
 Alpha  occ. eigenvalues --  -11.21071 -11.21052  -1.08501  -1.08419  -1.03585
 Alpha  occ. eigenvalues --   -1.03521  -0.96030  -0.95976  -0.87076  -0.86968
 Alpha  occ. eigenvalues --   -0.79703  -0.79548  -0.78431  -0.78138  -0.65337
 Alpha  occ. eigenvalues --   -0.64870  -0.61136  -0.60802  -0.59400  -0.59347
 Alpha  occ. eigenvalues --   -0.57677  -0.57559  -0.55426  -0.55182  -0.52714
 Alpha  occ. eigenvalues --   -0.52672  -0.52551  -0.52328  -0.50186  -0.49717
 Alpha  occ. eigenvalues --   -0.48125  -0.47818  -0.46867  -0.46742  -0.46126
 Alpha  occ. eigenvalues --   -0.45788  -0.45745  -0.44962  -0.43825  -0.43781
 Alpha virt. eigenvalues --    0.19907   0.22097   0.23707   0.24380   0.25122
 Alpha virt. eigenvalues --    0.26879   0.27067   0.27213   0.28015   0.29436
 Alpha virt. eigenvalues --    0.30934   0.31604   0.31683   0.31761   0.31920

 Mulliken charges:
               1
     1  C   -0.297055
     2  C   -0.308957
     3  C   -0.475060
     4  H    0.149993
     5  H    0.149604
     6  H    0.151912
     7  H    0.160369
     8  H    0.155304
     9  H    0.155180
    10  H    0.160599
    11  C   -0.308598
    12  C   -0.298662
    13  C   -0.484218
    14  H    0.149421
    15  H    0.157966
    16  H    0.152411
    17  H    0.152176
    18  H    0.162058
    19  H    0.155235
    20  H    0.160972
    21  C   -0.308210
    22  C   -0.298526
    23  C   -0.484350
    24  H    0.157411
    25  H    0.149393
    26  H    0.152423
    27  H    0.152099
    28  H    0.155078
    29  H    0.162183
    30  H    0.160607
    31  C   -0.297137
    32  C   -0.308353
    33  C   -0.475117
    34  H    0.149905
    35  H    0.149769
    36  H    0.159475
    37  H    0.151817
    38  H    0.155060
    39  H    0.155516
    40  H    0.160307
 Sum of Mulliken charges =  -0.00000

 Dipole moment (field-independent basis, Debye):
    X=             -0.0155    Y=             -0.0103    Z=             -0.0054  Tot=              0.0194
 Quadrupole moment (field-independent basis, Debye-Ang):
   XX=            -85.9265   YY=            -84.8540   ZZ=            -83.9007
   XY=              1.4855   XZ=              1.2041   YZ=              0.3415

 Normal termination of Gaussian 16 at Wed May  5 21:27:39 2021.
