 Gaussian 16, Revision A.03,
 Gaussian 16:  EM64L-G16RevA.03 25-Dec-2016

 -------------
 #p 6-31g* mp2
 -------------

 ------------------------------------------------------
 Input file generated by CHIRIPA (05-May-2021 14:53:17)
 ------------------------------------------------------
 Symbolic Z-matrix:
 Charge =  0 Multiplicity = 1

                         Standard orientation:
 ---------------------------------------------------------------------
 Center     Atomic      Atomic             Coordinates (Angstroms)
 Number     Number       Type             X           Y           Z
 ---------------------------------------------------------------------
      1          6           0       -4.653665   -0.168901    0.446862
      2          6           0       -5.528208   -1.219803   -0.237800
      3          6           0       -6.559781   -1.837017    0.707027
      4          1           0       -4.140415   -0.629061    1.302299
      5          1           0       -5.296497    0.622382    0.856781
      6          1           0       -4.883818   -2.008166   -0.647510
      7          1           0       -6.039288   -0.757135   -1.091821
      8          1           0       -7.226411   -1.065838    1.106386
      9          1           0       -6.064376   -2.323976    1.553222
     10          1           0       -7.174108   -2.585563    0.196985
     11          6           0       -3.617486    0.457240   -0.484808
     12          6           0       -2.742943    1.508143    0.199854
     13          6           0       -1.711370    2.125357   -0.744973
     14          1           0       -2.974654   -0.334043   -0.894728
     15          1           0       -4.130736    0.917401   -1.340245
     16          1           0       -2.231864    1.045475    1.053875
     17          1           0       -3.387333    2.296505    0.609564
     18          1           0       -2.206775    2.612316   -1.591168
     19          1           0       -1.044740    1.354177   -1.144332
     20          1           0       -1.097044    2.873902   -0.234932
     21          6           0        2.276595    2.213787    0.222092
     22          6           0        1.937523    1.413141   -0.873590
     23          6           0        2.460316    0.122568   -0.998722
     24          6           0        3.323179   -0.337542   -0.005215
     25          6           0        3.679960    0.436058    1.098207
     26          6           0        3.145199    1.723555    1.202763
     27          1           0        1.865829    3.215141    0.311305
     28          1           0        1.263188    1.791242   -1.636713
     29          1           0        2.214542   -0.518533   -1.836577
     30          1           0        4.354655    0.031548    1.842906
     31          1           0        3.410281    2.343119    2.054773
     32          7           0        3.882971   -1.702186   -0.126795
     33          8           0        4.641057   -2.084242    0.762010
     34          8           0        3.553051   -2.363896   -1.108594
 ---------------------------------------------------------------------

 SCF Done:  E(RHF) =  -669.534854709     A.U. after   15 cycles
 E2 =    -0.2091732543D+01 EUMP2 =    -0.67162658725235D+03

 The electronic state is 1-A.
 Alpha  occ. eigenvalues --  -20.60757 -20.60752 -15.85809 -11.31171 -11.27729
 Alpha  occ. eigenvalues --  -11.27716 -11.27458 -11.26755 -11.26688 -11.22217
 Alpha  occ. eigenvalues --  -11.21977 -11.21840 -11.21828 -11.21689 -11.21242
 Alpha  occ. eigenvalues --   -1.59833  -1.39386  -1.19337  -1.08854  -1.08728
 Alpha  occ. eigenvalues --   -1.04743  -1.03990  -0.96472  -0.95567  -0.87515
 Alpha  occ. eigenvalues --   -0.86123  -0.82404  -0.80075  -0.78631  -0.77449
 Alpha  occ. eigenvalues --   -0.72027  -0.71156  -0.70444  -0.65492  -0.64987
 Alpha  occ. eigenvalues --   -0.64751  -0.62136  -0.61343  -0.59863  -0.58061
 Alpha  occ. eigenvalues --   -0.55783  -0.55224  -0.53313  -0.53010  -0.52981
 Alpha  occ. eigenvalues --   -0.52669  -0.50365  -0.48787  -0.48783  -0.48373
 Alpha  occ. eigenvalues --   -0.47065  -0.46182  -0.46077  -0.44793  -0.44243
 Alpha  occ. eigenvalues --   -0.37296  -0.36316
 Alpha virt. eigenvalues --    0.05058   0.11266   0.16473   0.20653   0.22566
 Alpha virt. eigenvalues --    0.24010   0.25959   0.26335   0.26571   0.27597
 Alpha virt. eigenvalues --    0.28733   0.29849   0.31175   0.31716   0.32247

 Mulliken charges:
               1
     1  C   -0.298838
     2  C   -0.300205
     3  C   -0.476024
     4  H    0.151140
     5  H    0.149607
     6  H    0.153485
     7  H    0.151902
     8  H    0.155011
     9  H    0.156146
    10  H    0.161419
    11  C   -0.299318
    12  C   -0.299511
    13  C   -0.478165
    14  H    0.151078
    15  H    0.149890
    16  H    0.154992
    17  H    0.153080
    18  H    0.156557
    19  H    0.153881
    20  H    0.152546
    21  C   -0.172331
    22  C   -0.215807
    23  C   -0.173848
    24  C    0.158861
    25  C   -0.171256
    26  C   -0.218685
    27  H    0.225565
    28  H    0.227955
    29  H    0.275178
    30  H    0.275421
    31  H    0.223286
    32  N    0.488062
    33  O   -0.460495
    34  O   -0.460578
 Sum of Mulliken charges =  -0.00000

 Dipole moment (field-independent basis, Debye):
    X=             -2.1004    Y=              4.7696    Z=              0.4577  Tot=              5.2316
 Quadrupole moment (field-independent basis, Debye-Ang):
   XX=           -107.0831   YY=            -98.4971   ZZ=            -91.5733
   XY=             16.3872   XZ=              4.5094   YZ=              0.6297

 Normal termination of Gaussian 16 at Thu May  6 04:21:37 2021.
