 Gaussian 16, Revision A.03,
 Gaussian 16:  EM64L-G16RevA.03 25-Dec-2016

 -------------
 #p 6-31g* mp2
 -------------

 ------------------------------------------------------
 Input file generated by CHIRIPA (05-May-2021 14:57:22)
 ------------------------------------------------------
 Symbolic Z-matrix:
 Charge =  0 Multiplicity = 1

                         Standard orientation:
 ---------------------------------------------------------------------
 Center     Atomic      Atomic             Coordinates (Angstroms)
 Number     Number       Type             X           Y           Z
 ---------------------------------------------------------------------
      1          6           0        4.150314    2.232040    0.996731
      2          6           0        2.990432    1.560087    1.396322
      3          6           0        2.647687    0.332310    0.822182
      4          6           0        3.491413   -0.196919   -0.153181
      5          6           0        4.653755    0.448391   -0.572498
      6          6           0        4.976817    1.675030    0.015326
      7          1           0        4.408922    3.185365    1.448051
      8          1           0        2.346686    1.990288    2.158268
      9          1           0        1.755677   -0.209224    1.112832
     10          1           0        5.275727   -0.005535   -1.334416
     11          1           0        5.878218    2.194642   -0.296962
     12          7           0        3.138982   -1.496109   -0.768241
     13          8           0        3.898977   -1.941185   -1.625535
     14          8           0        2.109427   -2.044737   -0.381384
     15          6           0       -5.080591    1.637082   -1.081773
     16          6           0       -5.618330    0.575292   -0.346954
     17          6           0       -4.779512   -0.347296    0.285314
     18          6           0       -3.401477   -0.177134    0.161403
     19          6           0       -2.835387    0.870304   -0.563654
     20          6           0       -3.693281    1.780945   -1.187592
     21          1           0       -5.739614    2.349130   -1.569698
     22          1           0       -6.695346    0.461084   -0.263065
     23          1           0       -5.169053   -1.178519    0.860418
     24          1           0       -1.757695    0.958006   -0.629267
     25          1           0       -3.272861    2.604579   -1.757608
     26          7           0       -2.503360   -1.147513    0.826347
     27          8           0       -1.292746   -0.975527    0.701975
     28          8           0       -3.027038   -2.061709    1.459312
 ---------------------------------------------------------------------

 SCF Done:  E(RHF) =  -868.337440394     A.U. after   16 cycles
 E2 =    -0.2599544956D+01 EUMP2 =    -0.87093698535041D+03

 The electronic state is 1-A.
 Alpha  occ. eigenvalues --  -20.60685 -20.60678 -20.59965 -20.59883 -15.85739
 Alpha  occ. eigenvalues --  -15.84978 -11.31162 -11.30510 -11.27752 -11.27727
 Alpha  occ. eigenvalues --  -11.27494 -11.27179 -11.26977 -11.26964 -11.26777
 Alpha  occ. eigenvalues --  -11.26757 -11.26232 -11.26155  -1.59745  -1.59013
 Alpha  occ. eigenvalues --   -1.39301  -1.38550  -1.19340  -1.18727  -1.08722
 Alpha  occ. eigenvalues --   -1.08107  -1.04755  -1.04144  -0.95547  -0.94896
 Alpha  occ. eigenvalues --   -0.86150  -0.85535  -0.82381  -0.81712  -0.77424
 Alpha  occ. eigenvalues --   -0.76708  -0.71957  -0.71178  -0.71066  -0.70452
 Alpha  occ. eigenvalues --   -0.70353  -0.69824  -0.64996  -0.64760  -0.64370
 Alpha  occ. eigenvalues --   -0.64149  -0.62104  -0.61450  -0.55254  -0.54674
 Alpha  occ. eigenvalues --   -0.53078  -0.52850  -0.52495  -0.52223  -0.48706
 Alpha  occ. eigenvalues --   -0.48700  -0.47993  -0.47915  -0.44689  -0.43917
 Alpha  occ. eigenvalues --   -0.37323  -0.36760  -0.36361  -0.35769
 Alpha virt. eigenvalues --    0.05118   0.05793   0.11292   0.11875   0.16590
 Alpha virt. eigenvalues --    0.17231   0.21342   0.22033   0.27256   0.27713
 Alpha virt. eigenvalues --    0.28241   0.29079   0.30891   0.31533   0.32348

 Mulliken charges:
               1
     1  C   -0.171657
     2  C   -0.222100
     3  C   -0.178560
     4  C    0.155434
     5  C   -0.171681
     6  C   -0.219748
     7  H    0.222336
     8  H    0.222280
     9  H    0.297115
    10  H    0.273719
    11  H    0.220480
    12  N    0.485731
    13  O   -0.466763
    14  O   -0.448191
    15  C   -0.170976
    16  C   -0.218467
    17  C   -0.170742
    18  C    0.158712
    19  C   -0.170740
    20  C   -0.218469
    21  H    0.225335
    22  H    0.223533
    23  H    0.276176
    24  H    0.273920
    25  H    0.222704
    26  N    0.492345
    27  O   -0.463330
    28  O   -0.458398
 Sum of Mulliken charges =  -0.00000

 Dipole moment (field-independent basis, Debye):
    X=             -2.2136    Y=              7.7967    Z=             -0.1103  Tot=              8.1056
 Quadrupole moment (field-independent basis, Debye-Ang):
   XX=            -69.7461   YY=           -107.9708   ZZ=           -105.4305
   XY=              6.9731   XZ=             10.9369   YZ=             -1.5448

 Normal termination of Gaussian 16 at Fri May  7 03:16:25 2021.
