 Gaussian 16, Revision A.03,
 Gaussian 16:  EM64L-G16RevA.03 25-Dec-2016

 -------------
 #p 6-31g* mp2
 -------------

 ------------------------------------------------------
 Input file generated by CHIRIPA (05-May-2021 14:55:20)
 ------------------------------------------------------
 Symbolic Z-matrix:
 Charge =  0 Multiplicity = 1

                         Standard orientation:
 ---------------------------------------------------------------------
 Center     Atomic      Atomic             Coordinates (Angstroms)
 Number     Number       Type             X           Y           Z
 ---------------------------------------------------------------------
      1          6           0        1.434084    1.670927    1.112537
      2          6           0        2.802193    1.762035    1.389118
      3          6           0        3.699942    0.839962    0.842880
      4          6           0        3.192853   -0.164989    0.020552
      5          6           0        1.835300   -0.282171   -0.273741
      6          6           0        0.955847    0.650913    0.283452
      7          1           0        0.743797    2.391492    1.541123
      8          1           0        3.176430    2.553145    2.032653
      9          1           0        4.763965    0.887193    1.040474
     10          1           0        1.492074   -1.081816   -0.918863
     11          1           0       -0.106134    0.577714    0.066924
     12          7           0        4.133575   -1.146975   -0.563525
     13          8           0        3.661644   -2.023028   -1.284946
     14          8           0        5.325033   -1.022008   -0.288843
     15          6           0       -3.349699    0.472219   -0.421609
     16          6           0       -3.841174    1.904785   -0.631830
     17          6           0       -2.752092    2.829456   -1.176513
     18          1           0       -2.495663    0.482019    0.269385
     19          1           0       -2.975126    0.076737   -1.375907
     20          1           0       -4.215985    2.296964    0.322281
     21          1           0       -4.694259    1.891554   -1.322254
     22          1           0       -2.383814    2.464666   -2.140828
     23          1           0       -1.902822    2.872379   -0.486948
     24          1           0       -3.125040    3.848472   -1.319258
     25          6           0       -4.427097   -0.464167    0.122564
     26          6           0       -3.935622   -1.896732    0.332785
     27          6           0       -5.024704   -2.821402    0.877468
     28          1           0       -4.801669   -0.068684    1.076862
     29          1           0       -5.281132   -0.473965   -0.568430
     30          1           0       -3.082536   -1.883501    1.023209
     31          1           0       -3.560811   -2.288911   -0.621326
     32          1           0       -5.873973   -2.864326    0.187903
     33          1           0       -5.392982   -2.456613    1.841782
     34          1           0       -4.651756   -3.840419    1.020212
 ---------------------------------------------------------------------

 SCF Done:  E(RHF) =  -669.535577823     A.U. after   15 cycles
 E2 =    -0.2091521978D+01 EUMP2 =    -0.67162709980040D+03

 The electronic state is 1-A.
 Alpha  occ. eigenvalues --  -20.60713 -20.60708 -15.85765 -11.31120 -11.27688
 Alpha  occ. eigenvalues --  -11.27668 -11.27429 -11.26709 -11.26638 -11.22528
 Alpha  occ. eigenvalues --  -11.22449 -11.22241 -11.22134 -11.22064 -11.21547
 Alpha  occ. eigenvalues --   -1.59789  -1.39343  -1.19287  -1.09292  -1.08687
 Alpha  occ. eigenvalues --   -1.04685  -1.04310  -0.96773  -0.95525  -0.87784
 Alpha  occ. eigenvalues --   -0.86090  -0.82356  -0.80388  -0.79125  -0.77397
 Alpha  occ. eigenvalues --   -0.71984  -0.71111  -0.70406  -0.65949  -0.64939
 Alpha  occ. eigenvalues --   -0.64679  -0.62059  -0.61677  -0.60140  -0.58381
 Alpha  occ. eigenvalues --   -0.56080  -0.55196  -0.53428  -0.53220  -0.53012
 Alpha  occ. eigenvalues --   -0.52780  -0.50715  -0.48778  -0.48740  -0.48656
 Alpha  occ. eigenvalues --   -0.47421  -0.46620  -0.46544  -0.44750  -0.44587
 Alpha  occ. eigenvalues --   -0.37273  -0.36285
 Alpha virt. eigenvalues --    0.05124   0.11323   0.16612   0.19136   0.22578
 Alpha virt. eigenvalues --    0.23754   0.25082   0.26015   0.26548   0.28127
 Alpha virt. eigenvalues --    0.28999   0.30238   0.31013   0.31498   0.31567

 Mulliken charges:
               1
     1  C   -0.173881
     2  C   -0.218420
     3  C   -0.171449
     4  C    0.159044
     5  C   -0.173477
     6  C   -0.227375
     7  H    0.224954
     8  H    0.223088
     9  H    0.275314
    10  H    0.276073
    11  H    0.237384
    12  N    0.488004
    13  O   -0.460520
    14  O   -0.460709
    15  C   -0.304665
    16  C   -0.300134
    17  C   -0.476401
    18  H    0.142850
    19  H    0.151405
    20  H    0.153304
    21  H    0.156867
    22  H    0.158795
    23  H    0.145852
    24  H    0.165019
    25  C   -0.297618
    26  C   -0.300921
    27  C   -0.476243
    28  H    0.151000
    29  H    0.153234
    30  H    0.150672
    31  H    0.153271
    32  H    0.156669
    33  H    0.155853
    34  H    0.163161
 Sum of Mulliken charges =  -0.00000

 Dipole moment (field-independent basis, Debye):
    X=             -3.5820    Y=              3.4344    Z=              2.0003  Tot=              5.3504
 Quadrupole moment (field-independent basis, Debye-Ang):
   XX=           -112.6313   YY=            -95.7126   ZZ=            -93.4261
   XY=             13.2498   XZ=              9.2840   YZ=              1.3877

 Normal termination of Gaussian 16 at Thu May  6 04:33:47 2021.
