 Gaussian 16, Revision A.03,
 Gaussian 16:  EM64L-G16RevA.03 25-Dec-2016

 -------------
 #p 6-31g* mp2
 -------------

 ------------------------------------------------------
 Input file generated by CHIRIPA (05-May-2021 14:51:10)
 ------------------------------------------------------
 Symbolic Z-matrix:
 Charge =  0 Multiplicity = 1

                         Standard orientation:
 ---------------------------------------------------------------------
 Center     Atomic      Atomic             Coordinates (Angstroms)
 Number     Number       Type             X           Y           Z
 ---------------------------------------------------------------------
      1          6           0       -3.387539    1.180961   -0.333607
      2          6           0       -2.307729    1.804560    0.551333
      3          6           0       -1.741255    3.099778   -0.031172
      4          1           0       -2.967789    0.983981   -1.329576
      5          1           0       -4.200294    1.906809   -0.474916
      6          1           0       -1.497895    1.077251    0.692067
      7          1           0       -2.730044    1.999902    1.545370
      8          1           0       -2.533505    3.845063   -0.155638
      9          1           0       -1.294355    2.917171   -1.013789
     10          1           0       -0.970995    3.528536    0.617462
     11          6           0       -3.963554   -0.114491    0.235374
     12          6           0       -5.043363   -0.738091   -0.649567
     13          6           0       -5.609837   -2.033309   -0.067061
     14          1           0       -3.150798   -0.840339    0.376683
     15          1           0       -4.383303    0.082488    1.231343
     16          1           0       -4.621049   -0.933432   -1.643603
     17          1           0       -5.853198   -0.010782   -0.790300
     18          1           0       -6.056737   -1.850701    0.915555
     19          1           0       -4.817587   -2.778594    0.057404
     20          1           0       -6.380097   -2.462067   -0.715696
     21          6           0        4.301108   -0.467391   -0.384207
     22          6           0        5.451317    0.255717    0.317305
     23          6           0        6.695772    0.379624   -0.562340
     24          1           0        4.637199   -1.467797   -0.689454
     25          1           0        4.046688    0.071985   -1.307104
     26          1           0        5.702571   -0.284087    1.239314
     27          1           0        5.112389    1.254446    0.621088
     28          1           0        6.467405    0.937079   -1.476503
     29          1           0        7.060940   -0.610195   -0.854765
     30          1           0        7.505605    0.899679   -0.041215
     31          6           0        3.049985   -0.599079    0.482440
     32          6           0        1.899775   -1.322187   -0.219072
     33          6           0        0.655321   -1.446093    0.660574
     34          1           0        3.304405   -1.138454    1.405337
     35          1           0        2.713893    0.401327    0.787688
     36          1           0        2.238703   -2.320915   -0.522854
     37          1           0        1.648521   -0.782383   -1.141080
     38          1           0        0.290153   -0.456274    0.952998
     39          1           0        0.883687   -2.003548    1.574736
     40          1           0       -0.154512   -1.966149    0.139449
 ---------------------------------------------------------------------

 SCF Done:  E(RHF) =  -470.733314760     A.U. after   11 cycles
 E2 =    -0.1582734507D+01 EUMP2 =    -0.47231604926744D+03

 The electronic state is 1-A.
 Alpha  occ. eigenvalues --  -11.21659 -11.21620 -11.21576 -11.21560 -11.21438
 Alpha  occ. eigenvalues --  -11.21378 -11.21371 -11.21310 -11.21141 -11.21085
 Alpha  occ. eigenvalues --  -11.21078 -11.21049  -1.08467  -1.08400  -1.03575
 Alpha  occ. eigenvalues --   -1.03507  -0.96023  -0.95960  -0.87046  -0.86972
 Alpha  occ. eigenvalues --   -0.79663  -0.79549  -0.78287  -0.78202  -0.65142
 Alpha  occ. eigenvalues --   -0.64998  -0.61079  -0.60815  -0.59391  -0.59330
 Alpha  occ. eigenvalues --   -0.57649  -0.57554  -0.55341  -0.55227  -0.52729
 Alpha  occ. eigenvalues --   -0.52651  -0.52468  -0.52368  -0.50070  -0.49835
 Alpha  occ. eigenvalues --   -0.48029  -0.47825  -0.46812  -0.46469  -0.45868
 Alpha  occ. eigenvalues --   -0.45766  -0.45733  -0.45523  -0.43820  -0.43759
 Alpha virt. eigenvalues --    0.21138   0.23081   0.23801   0.24622   0.25846
 Alpha virt. eigenvalues --    0.26717   0.27069   0.27375   0.27959   0.29173
 Alpha virt. eigenvalues --    0.29784   0.31584   0.31723   0.31931   0.31965

 Mulliken charges:
               1
     1  C   -0.297348
     2  C   -0.308594
     3  C   -0.475292
     4  H    0.149300
     5  H    0.149344
     6  H    0.160300
     7  H    0.151913
     8  H    0.155390
     9  H    0.154723
    10  H    0.159616
    11  C   -0.300090
    12  C   -0.299646
    13  C   -0.475637
    14  H    0.151705
    15  H    0.149572
    16  H    0.151734
    17  H    0.151828
    18  H    0.155205
    19  H    0.155131
    20  H    0.160114
    21  C   -0.298343
    22  C   -0.299712
    23  C   -0.475736
    24  H    0.149696
    25  H    0.149611
    26  H    0.151971
    27  H    0.152079
    28  H    0.155243
    29  H    0.155186
    30  H    0.160346
    31  C   -0.298546
    32  C   -0.299455
    33  C   -0.483181
    34  H    0.149705
    35  H    0.149941
    36  H    0.152211
    37  H    0.151836
    38  H    0.161645
    39  H    0.156101
    40  H    0.160135
 Sum of Mulliken charges =  -0.00000

 Dipole moment (field-independent basis, Debye):
    X=              0.0290    Y=             -0.0138    Z=              0.0127  Tot=              0.0345
 Quadrupole moment (field-independent basis, Debye-Ang):
   XX=            -85.3789   YY=            -84.6661   ZZ=            -84.7622
   XY=             -1.3396   XZ=              0.3973   YZ=              0.2951

 Normal termination of Gaussian 16 at Wed May  5 16:40:15 2021.
