 Gaussian 16, Revision A.03,
 Gaussian 16:  EM64L-G16RevA.03 25-Dec-2016

 -------------
 #p 6-31g* mp2
 -------------

 ------------------------------------------------------
 Input file generated by CHIRIPA (05-May-2021 14:51:11)
 ------------------------------------------------------
 Symbolic Z-matrix:
 Charge =  0 Multiplicity = 1

                         Standard orientation:
 ---------------------------------------------------------------------
 Center     Atomic      Atomic             Coordinates (Angstroms)
 Number     Number       Type             X           Y           Z
 ---------------------------------------------------------------------
      1          6           0        2.424542   -0.980475    0.210849
      2          6           0        1.643599   -1.317677    1.481442
      3          6           0        0.881018   -2.638523    1.373598
      4          1           0        1.729017   -0.935674   -0.638376
      5          1           0        3.129401   -1.795306   -0.005067
      6          1           0        0.941398   -0.501810    1.695665
      7          1           0        2.341036   -1.361491    2.327773
      8          1           0        1.570787   -3.467172    1.183439
      9          1           0        0.163196   -2.602606    0.547739
     10          1           0        0.329807   -2.860065    2.292808
     11          6           0        3.192100    0.337116    0.303244
     12          6           0        3.973044    0.674318   -0.967349
     13          6           0        4.735624    1.995164   -0.859505
     14          1           0        2.487241    1.151947    0.519160
     15          1           0        3.887625    0.292316    1.152469
     16          1           0        3.275606    0.718132   -1.813680
     17          1           0        4.675244   -0.141549   -1.181572
     18          1           0        5.453446    1.959247   -0.033646
     19          1           0        4.045855    2.823813   -0.669346
     20          1           0        5.286835    2.216706   -1.778715
     21          6           0       -2.566043    1.046001   -0.266590
     22          6           0       -3.364607    1.964743    0.658716
     23          6           0       -2.868004    3.410521    0.628641
     24          1           0       -1.506335    1.077273    0.021482
     25          1           0       -2.622323    1.432715   -1.293566
     26          1           0       -3.307983    1.575641    1.683416
     27          1           0       -4.422567    1.931132    0.368528
     28          1           0       -2.940384    3.821737   -0.383418
     29          1           0       -1.819467    3.464226    0.938940
     30          1           0       -3.452846    4.049884    1.297248
     31          6           0       -3.050600   -0.402642   -0.247503
     32          6           0       -2.252034   -1.321385   -1.172808
     33          6           0       -2.748638   -2.767162   -1.142734
     34          1           0       -2.994319   -0.789357    0.779474
     35          1           0       -4.110308   -0.433914   -0.535575
     36          1           0       -1.194075   -1.287774   -0.882621
     37          1           0       -2.308659   -0.932282   -2.197508
     38          1           0       -3.797175   -2.820866   -1.453033
     39          1           0       -2.676258   -3.178378   -0.130675
     40          1           0       -2.163796   -3.406525   -1.811341
 ---------------------------------------------------------------------

 SCF Done:  E(RHF) =  -470.733248559     A.U. after   11 cycles
 E2 =    -0.1583507615D+01 EUMP2 =    -0.47231675617421D+03

 The electronic state is 1-A.
 Alpha  occ. eigenvalues --  -11.21654 -11.21642 -11.21639 -11.21614 -11.21451
 Alpha  occ. eigenvalues --  -11.21441 -11.21389 -11.21380 -11.21107 -11.21093
 Alpha  occ. eigenvalues --  -11.21079 -11.21078  -1.08491  -1.08448  -1.03602
 Alpha  occ. eigenvalues --   -1.03529  -0.96038  -0.95984  -0.87032  -0.87020
 Alpha  occ. eigenvalues --   -0.79666  -0.79591  -0.78312  -0.78254  -0.65294
 Alpha  occ. eigenvalues --   -0.64939  -0.61222  -0.60729  -0.59413  -0.59343
 Alpha  occ. eigenvalues --   -0.57659  -0.57583  -0.55440  -0.55153  -0.52708
 Alpha  occ. eigenvalues --   -0.52697  -0.52441  -0.52422  -0.49972  -0.49931
 Alpha  occ. eigenvalues --   -0.48042  -0.47874  -0.46824  -0.46513  -0.45980
 Alpha  occ. eigenvalues --   -0.45784  -0.45746  -0.45539  -0.43824  -0.43812
 Alpha virt. eigenvalues --    0.19366   0.23059   0.23538   0.24610   0.25819
 Alpha virt. eigenvalues --    0.26733   0.26863   0.27811   0.28633   0.29355
 Alpha virt. eigenvalues --    0.30778   0.31390   0.31635   0.31815   0.32036

 Mulliken charges:
               1
     1  C   -0.300912
     2  C   -0.300033
     3  C   -0.482938
     4  H    0.151354
     5  H    0.149949
     6  H    0.151404
     7  H    0.152440
     8  H    0.155614
     9  H    0.163011
    10  H    0.159850
    11  C   -0.298132
    12  C   -0.299768
    13  C   -0.475758
    14  H    0.149197
    15  H    0.149809
    16  H    0.152323
    17  H    0.151965
    18  H    0.155146
    19  H    0.155311
    20  H    0.160357
    21  C   -0.299097
    22  C   -0.299706
    23  C   -0.475686
    24  H    0.149339
    25  H    0.149652
    26  H    0.152131
    27  H    0.152187
    28  H    0.155236
    29  H    0.154903
    30  H    0.160501
    31  C   -0.298106
    32  C   -0.306644
    33  C   -0.476796
    34  H    0.150172
    35  H    0.150028
    36  H    0.156521
    37  H    0.152367
    38  H    0.155538
    39  H    0.156800
    40  H    0.160471
 Sum of Mulliken charges =  -0.00000

 Dipole moment (field-independent basis, Debye):
    X=             -0.0116    Y=             -0.0120    Z=             -0.0091  Tot=              0.0190
 Quadrupole moment (field-independent basis, Debye-Ang):
   XX=            -83.9914   YY=            -86.4917   ZZ=            -84.0999
   XY=             -1.3617   XZ=              0.8120   YZ=             -0.3575

 Normal termination of Gaussian 16 at Thu May  6 05:28:43 2021.
