 Gaussian 16, Revision A.03,
 Gaussian 16:  EM64L-G16RevA.03 25-Dec-2016

 -------------
 #p 6-31g* mp2
 -------------

 ------------------------------------------------------
 Input file generated by CHIRIPA (05-May-2021 14:51:12)
 ------------------------------------------------------
 Symbolic Z-matrix:
 Charge =  0 Multiplicity = 1

                         Standard orientation:
 ---------------------------------------------------------------------
 Center     Atomic      Atomic             Coordinates (Angstroms)
 Number     Number       Type             X           Y           Z
 ---------------------------------------------------------------------
      1          6           0        4.048315    0.700633   -0.348917
      2          6           0        5.029167    1.144124    0.737007
      3          6           0        5.627007    2.524938    0.465467
      4          1           0        4.563628    0.694311   -1.319153
      5          1           0        3.240839    1.441588   -0.428688
      6          1           0        5.833814    0.401848    0.815660
      7          1           0        4.511510    1.149206    1.704799
      8          1           0        4.838029    3.281766    0.407783
      9          1           0        6.167846    2.530161   -0.486408
     10          1           0        6.325294    2.822229    1.254056
     11          6           0        3.442262   -0.677842   -0.091558
     12          6           0        2.461410   -1.121333   -1.177482
     13          6           0        1.863570   -2.502147   -0.905942
     14          1           0        4.249738   -1.418797   -0.011787
     15          1           0        2.926949   -0.671520    0.878678
     16          1           0        2.979067   -1.126415   -2.145274
     17          1           0        1.656763   -0.379057   -1.256135
     18          1           0        1.322731   -2.507370    0.045933
     19          1           0        2.652548   -3.258975   -0.848258
     20          1           0        1.165283   -2.799438   -1.694531
     21          6           0       -4.034645    0.473581   -0.294061
     22          6           0       -5.204303    1.299529    0.242312
     23          6           0       -5.772433    2.265084   -0.798229
     24          1           0       -3.242087    1.152210   -0.637946
     25          1           0       -4.367432   -0.090776   -1.176189
     26          1           0       -4.869782    1.861094    1.123990
     27          1           0       -5.994090    0.618852    0.585137
     28          1           0       -6.132838    1.717865   -1.675305
     29          1           0       -5.002141    2.967166   -1.133389
     30          1           0       -6.607539    2.845420   -0.393669
     31          6           0       -3.455931   -0.496371    0.734536
     32          6           0       -2.286275   -1.322320    0.198163
     33          6           0       -1.718144   -2.287876    1.238704
     34          1           0       -3.123145    0.067984    1.616664
     35          1           0       -4.248491   -1.175001    1.078420
     36          1           0       -1.496487   -0.641643   -0.144662
     37          1           0       -2.620795   -1.883886   -0.683515
     38          1           0       -2.488436   -2.989957    1.573864
     39          1           0       -1.357739   -1.740657    2.115780
     40          1           0       -0.883038   -2.868211    0.834144
 ---------------------------------------------------------------------

 SCF Done:  E(RHF) =  -470.733228182     A.U. after   11 cycles
 E2 =    -0.1582555702D+01 EUMP2 =    -0.47231578388480D+03

 The electronic state is 1-A.
 Alpha  occ. eigenvalues --  -11.21612 -11.21611 -11.21610 -11.21605 -11.21414
 Alpha  occ. eigenvalues --  -11.21413 -11.21355 -11.21353 -11.21081 -11.21078
 Alpha  occ. eigenvalues --  -11.21052 -11.21038  -1.08446  -1.08429  -1.03563
 Alpha  occ. eigenvalues --   -1.03506  -0.96033  -0.95937  -0.87060  -0.86947
 Alpha  occ. eigenvalues --   -0.79632  -0.79565  -0.78255  -0.78243  -0.65105
 Alpha  occ. eigenvalues --   -0.65037  -0.61038  -0.60870  -0.59387  -0.59322
 Alpha  occ. eigenvalues --   -0.57656  -0.57556  -0.55337  -0.55197  -0.52797
 Alpha  occ. eigenvalues --   -0.52636  -0.52460  -0.52287  -0.49954  -0.49865
 Alpha  occ. eigenvalues --   -0.47974  -0.47854  -0.46668  -0.46579  -0.45803
 Alpha  occ. eigenvalues --   -0.45789  -0.45730  -0.45686  -0.43807  -0.43751
 Alpha virt. eigenvalues --    0.21111   0.23142   0.23487   0.25128   0.26201
 Alpha virt. eigenvalues --    0.26632   0.26976   0.27302   0.27961   0.29077
 Alpha virt. eigenvalues --    0.30571   0.30756   0.31571   0.31687   0.32243

 Mulliken charges:
               1
     1  C   -0.298274
     2  C   -0.299662
     3  C   -0.475701
     4  H    0.149723
     5  H    0.149275
     6  H    0.152012
     7  H    0.151909
     8  H    0.155099
     9  H    0.155223
    10  H    0.160293
    11  C   -0.298585
    12  C   -0.299961
    13  C   -0.481191
    14  H    0.149636
    15  H    0.149892
    16  H    0.152025
    17  H    0.152138
    18  H    0.160991
    19  H    0.155090
    20  H    0.160419
    21  C   -0.298226
    22  C   -0.299650
    23  C   -0.475705
    24  H    0.149409
    25  H    0.149610
    26  H    0.151864
    27  H    0.152004
    28  H    0.155226
    29  H    0.155135
    30  H    0.160278
    31  C   -0.298278
    32  C   -0.299975
    33  C   -0.481336
    34  H    0.149309
    35  H    0.149829
    36  H    0.152229
    37  H    0.152100
    38  H    0.155230
    39  H    0.154061
    40  H    0.166536
 Sum of Mulliken charges =  -0.00000

 Dipole moment (field-independent basis, Debye):
    X=              0.0065    Y=             -0.0151    Z=             -0.0045  Tot=              0.0170
 Quadrupole moment (field-independent basis, Debye-Ang):
   XX=            -84.2925   YY=            -85.5731   ZZ=            -84.8727
   XY=              0.0281   XZ=             -0.4703   YZ=              0.9999

 Normal termination of Gaussian 16 at Wed May  5 21:33:01 2021.
