 Gaussian 16, Revision A.03,
 Gaussian 16:  EM64L-G16RevA.03 25-Dec-2016

 -------------
 #p 6-31g* mp2
 -------------

 ------------------------------------------------------
 Input file generated by CHIRIPA (05-May-2021 14:55:20)
 ------------------------------------------------------
 Symbolic Z-matrix:
 Charge =  0 Multiplicity = 1

                         Standard orientation:
 ---------------------------------------------------------------------
 Center     Atomic      Atomic             Coordinates (Angstroms)
 Number     Number       Type             X           Y           Z
 ---------------------------------------------------------------------
      1          6           0       -4.428329   -2.295974   -0.234651
      2          6           0       -3.063151   -2.006791   -0.138824
      3          6           0       -2.620973   -0.682208   -0.071687
      4          6           0       -3.575690    0.333087   -0.102997
      5          6           0       -4.942706    0.077084   -0.197968
      6          6           0       -5.362103   -1.254949   -0.263866
      7          1           0       -4.762975   -3.327835   -0.286323
      8          1           0       -2.335715   -2.813239   -0.115932
      9          1           0       -1.570146   -0.429993    0.002943
     10          1           0       -5.644095    0.902338   -0.218643
     11          1           0       -6.422952   -1.476561   -0.338240
     12          7           0       -3.119634    1.739307   -0.032578
     13          8           0       -3.980796    2.615762   -0.061973
     14          8           0       -1.909651    1.938421    0.050678
     15          6           0        4.148439   -0.255119    0.687468
     16          6           0        2.711863   -0.119880    0.181559
     17          6           0        1.673699   -0.373689    1.274990
     18          1           0        4.290665   -1.261904    1.103522
     19          1           0        4.306270    0.450260    1.515070
     20          1           0        2.557202   -0.824329   -0.645754
     21          1           0        2.573095    0.886637   -0.233513
     22          1           0        1.799418    0.337196    2.098056
     23          1           0        1.783435   -1.383491    1.683472
     24          1           0        0.653672   -0.271827    0.891548
     25          6           0        5.197745   -0.004274   -0.394087
     26          6           0        6.634322   -0.139513    0.111823
     27          6           0        7.672485    0.114296   -0.981607
     28          1           0        5.039914   -0.709653   -1.221689
     29          1           0        5.055519    1.002511   -0.810140
     30          1           0        6.773089   -1.146030    0.526894
     31          1           0        6.788982    0.564936    0.939137
     32          1           0        7.562749    1.124098   -1.390090
     33          1           0        7.546766   -0.596588   -1.804675
     34          1           0        8.692512    0.012434   -0.598165
 ---------------------------------------------------------------------

 SCF Done:  E(RHF) =  -669.535520261     A.U. after   15 cycles
 E2 =    -0.2090926492D+01 EUMP2 =    -0.67162644675383D+03

 The electronic state is 1-A.
 Alpha  occ. eigenvalues --  -20.60771 -20.60766 -15.85821 -11.31183 -11.27753
 Alpha  occ. eigenvalues --  -11.27747 -11.27499 -11.26772 -11.26760 -11.21520
 Alpha  occ. eigenvalues --  -11.21519 -11.21323 -11.21261 -11.21129 -11.20989
 Alpha  occ. eigenvalues --   -1.59845  -1.39399  -1.19358  -1.08754  -1.08353
 Alpha  occ. eigenvalues --   -1.04762  -1.03470  -0.95935  -0.95589  -0.86954
 Alpha  occ. eigenvalues --   -0.86160  -0.82421  -0.79529  -0.78158  -0.77471
 Alpha  occ. eigenvalues --   -0.72042  -0.71166  -0.70478  -0.65012  -0.64977
 Alpha  occ. eigenvalues --   -0.64777  -0.62147  -0.60858  -0.59298  -0.57542
 Alpha  occ. eigenvalues --   -0.55269  -0.55209  -0.53091  -0.52980  -0.52538
 Alpha  occ. eigenvalues --   -0.52323  -0.49862  -0.48800  -0.48797  -0.47848
 Alpha  occ. eigenvalues --   -0.46548  -0.45704  -0.45621  -0.44804  -0.43729
 Alpha  occ. eigenvalues --   -0.37340  -0.36362
 Alpha virt. eigenvalues --    0.05061   0.11281   0.16561   0.20426   0.22952
 Alpha virt. eigenvalues --    0.23860   0.26159   0.26752   0.27605   0.27800
 Alpha virt. eigenvalues --    0.29000   0.30320   0.31489   0.31536   0.32024

 Mulliken charges:
               1
     1  C   -0.170471
     2  C   -0.223120
     3  C   -0.179306
     4  C    0.156592
     5  C   -0.169767
     6  C   -0.219060
     7  H    0.225625
     8  H    0.224047
     9  H    0.291621
    10  H    0.275652
    11  H    0.223448
    12  N    0.486486
    13  O   -0.460174
    14  O   -0.461775
    15  C   -0.298812
    16  C   -0.299407
    17  C   -0.481289
    18  H    0.147598
    19  H    0.151290
    20  H    0.147604
    21  H    0.160098
    22  H    0.162070
    23  H    0.150405
    24  H    0.160052
    25  C   -0.298407
    26  C   -0.299643
    27  C   -0.475718
    28  H    0.148371
    29  H    0.151783
    30  H    0.150950
    31  H    0.152614
    32  H    0.156053
    33  H    0.154581
    34  H    0.160009
 Sum of Mulliken charges =  -0.00000

 Dipole moment (field-independent basis, Debye):
    X=             -1.5773    Y=             -4.8723    Z=             -0.2353  Tot=              5.1266
 Quadrupole moment (field-independent basis, Debye-Ang):
   XX=            -79.4251   YY=            -97.2117   ZZ=            -96.0179
   XY=             15.9069   XZ=              1.9975   YZ=              0.7729

 Normal termination of Gaussian 16 at Thu May  6 10:49:30 2021.
