 Gaussian 16, Revision A.03,
 Gaussian 16:  EM64L-G16RevA.03 25-Dec-2016

 -------------
 #p 6-31g* mp2
 -------------

 ------------------------------------------------------
 Input file generated by CHIRIPA (05-May-2021 14:51:09)
 ------------------------------------------------------
 Symbolic Z-matrix:
 Charge =  0 Multiplicity = 1

                         Standard orientation:
 ---------------------------------------------------------------------
 Center     Atomic      Atomic             Coordinates (Angstroms)
 Number     Number       Type             X           Y           Z
 ---------------------------------------------------------------------
      1          6           0        3.104096   -0.428806   -0.045944
      2          6           0        3.675633   -1.843807   -0.141358
      3          6           0        2.590346   -2.920812   -0.143632
      4          1           0        2.500362   -0.344923    0.868066
      5          1           0        2.420023   -0.259547   -0.889028
      6          1           0        4.359489   -2.009864    0.700890
      7          1           0        4.278233   -1.924274   -1.055149
      8          1           0        1.912872   -2.783241   -0.992575
      9          1           0        1.994590   -2.869317    0.773441
     10          1           0        3.021039   -3.924617   -0.212487
     11          6           0        4.176783    0.658878   -0.042565
     12          6           0        3.605246    2.073879    0.052849
     13          6           0        4.690533    3.150885    0.055123
     14          1           0        4.860856    0.489619    0.800518
     15          1           0        4.780517    0.574995   -0.956575
     16          1           0        3.002646    2.154346    0.966639
     17          1           0        2.921390    2.239936   -0.789399
     18          1           0        5.286290    3.099389   -0.861950
     19          1           0        5.368008    3.013313    0.904066
     20          1           0        4.259841    4.154689    0.123978
     21          6           0       -2.877815   -0.117004    0.087064
     22          6           0       -2.278643   -1.521454    0.167670
     23          6           0       -0.752082   -1.508895    0.252810
     24          1           0       -2.464546    0.401322   -0.789003
     25          1           0       -2.563528    0.459290    0.968257
     26          1           0       -2.595099   -2.095369   -0.712723
     27          1           0       -2.693533   -2.036565    1.043538
     28          1           0       -0.420227   -0.959778    1.139907
     29          1           0       -0.321234   -1.018916   -0.626333
     30          1           0       -0.344803   -2.523173    0.309597
     31          6           0       -4.403064   -0.113068    0.001446
     32          6           0       -5.002237    1.291382   -0.079161
     33          6           0       -6.528797    1.278824   -0.164300
     34          1           0       -4.717351   -0.689362   -0.879749
     35          1           0       -4.816333   -0.631394    0.877512
     36          1           0       -4.587347    1.806492   -0.955029
     37          1           0       -4.685780    1.865298    0.801232
     38          1           0       -6.959645    0.788845    0.714842
     39          1           0       -6.860653    0.729705   -1.051398
     40          1           0       -6.936076    2.293102   -0.221088
 ---------------------------------------------------------------------

 SCF Done:  E(RHF) =  -470.731960705     A.U. after   11 cycles
 E2 =    -0.1583533320D+01 EUMP2 =    -0.47231549402537D+03

 The electronic state is 1-A.
 Alpha  occ. eigenvalues --  -11.21577 -11.21567 -11.21526 -11.21513 -11.21363
 Alpha  occ. eigenvalues --  -11.21341 -11.21302 -11.21273 -11.21053 -11.21046
 Alpha  occ. eigenvalues --  -11.20925 -11.20911  -1.08398  -1.08357  -1.03529
 Alpha  occ. eigenvalues --   -1.03421  -0.95999  -0.95853  -0.87056  -0.86843
 Alpha  occ. eigenvalues --   -0.79718  -0.79391  -0.78257  -0.78096  -0.65051
 Alpha  occ. eigenvalues --   -0.64974  -0.60957  -0.60798  -0.59452  -0.59204
 Alpha  occ. eigenvalues --   -0.57711  -0.57356  -0.55267  -0.55161  -0.52944
 Alpha  occ. eigenvalues --   -0.52630  -0.52389  -0.51973  -0.49935  -0.49814
 Alpha  occ. eigenvalues --   -0.47860  -0.47822  -0.46700  -0.46468  -0.45876
 Alpha  occ. eigenvalues --   -0.45718  -0.45581  -0.45534  -0.43730  -0.43634
 Alpha virt. eigenvalues --    0.21992   0.23048   0.23677   0.24736   0.25539
 Alpha virt. eigenvalues --    0.26475   0.27066   0.27319   0.27996   0.29560
 Alpha virt. eigenvalues --    0.30252   0.30957   0.31590   0.31976   0.32053

 Mulliken charges:
               1
     1  C   -0.299160
     2  C   -0.300011
     3  C   -0.477393
     4  H    0.151608
     5  H    0.150109
     6  H    0.151258
     7  H    0.151203
     8  H    0.157127
     9  H    0.158236
    10  H    0.158582
    11  C   -0.298385
    12  C   -0.299382
    13  C   -0.475652
    14  H    0.149258
    15  H    0.149317
    16  H    0.151805
    17  H    0.151702
    18  H    0.155083
    19  H    0.155100
    20  H    0.160107
    21  C   -0.298305
    22  C   -0.301068
    23  C   -0.476835
    24  H    0.149275
    25  H    0.149245
    26  H    0.151316
    27  H    0.151255
    28  H    0.153681
    29  H    0.155823
    30  H    0.165514
    31  C   -0.298141
    32  C   -0.299539
    33  C   -0.475660
    34  H    0.149366
    35  H    0.149516
    36  H    0.151818
    37  H    0.151837
    38  H    0.155127
    39  H    0.155121
    40  H    0.160144
 Sum of Mulliken charges =  -0.00000

 Dipole moment (field-independent basis, Debye):
    X=              0.0096    Y=             -0.0213    Z=              0.0046  Tot=              0.0239
 Quadrupole moment (field-independent basis, Debye-Ang):
   XX=            -86.7931   YY=            -85.6634   ZZ=            -82.6645
   XY=             -0.4064   XZ=             -0.0676   YZ=             -0.0326

 Normal termination of Gaussian 16 at Wed May  5 18:08:35 2021.
