 Gaussian 16, Revision A.03,
 Gaussian 16:  EM64L-G16RevA.03 25-Dec-2016

 -------------
 #p 6-31g* mp2
 -------------

 ------------------------------------------------------
 Input file generated by CHIRIPA (05-May-2021 14:55:19)
 ------------------------------------------------------
 Symbolic Z-matrix:
 Charge =  0 Multiplicity = 1

                         Standard orientation:
 ---------------------------------------------------------------------
 Center     Atomic      Atomic             Coordinates (Angstroms)
 Number     Number       Type             X           Y           Z
 ---------------------------------------------------------------------
      1          6           0        2.325004    2.228270   -0.414908
      2          6           0        1.447323    1.249550    0.062905
      3          6           0        1.892512   -0.057513    0.281856
      4          6           0        3.227841   -0.352352    0.011194
      5          6           0        4.126597    0.600684   -0.465512
      6          6           0        3.659487    1.901290   -0.677129
      7          1           0        1.970655    3.241119   -0.582146
      8          1           0        0.410414    1.500626    0.267419
      9          1           0        1.234484   -0.834693    0.651191
     10          1           0        5.154635    0.320247   -0.660217
     11          1           0        4.343353    2.659333   -1.048266
     12          7           0        3.710746   -1.732664    0.239106
     13          8           0        4.891903   -1.966960   -0.007085
     14          8           0        2.898947   -2.554118    0.659619
     15          6           0       -4.389511   -0.318822   -0.440500
     16          6           0       -4.852213   -1.609424    0.236434
     17          6           0       -5.570209   -2.556781   -0.725226
     18          1           0       -5.259127    0.190346   -0.878062
     19          1           0       -3.721524   -0.570314   -1.275929
     20          1           0       -5.518029   -1.355513    1.071200
     21          1           0       -3.981420   -2.115483    0.672600
     22          1           0       -4.910624   -2.838940   -1.552229
     23          1           0       -6.455963   -2.074652   -1.151365
     24          1           0       -5.892378   -3.472917   -0.220486
     25          6           0       -3.670015    0.638465    0.508002
     26          6           0       -3.207313    1.929067   -0.168932
     27          6           0       -2.489317    2.876424    0.792729
     28          1           0       -4.338001    0.889957    1.343431
     29          1           0       -2.800399    0.129297    0.945563
     30          1           0       -4.078105    2.435125   -0.605098
     31          1           0       -2.541497    1.675156   -1.003698
     32          1           0       -1.603563    2.394294    1.218866
     33          1           0       -3.148902    3.158582    1.619732
     34          1           0       -2.167148    3.792560    0.287987
 ---------------------------------------------------------------------

 SCF Done:  E(RHF) =  -669.535515803     A.U. after   15 cycles
 E2 =    -0.2091027802D+01 EUMP2 =    -0.67162654360525D+03

 The electronic state is 1-A.
 Alpha  occ. eigenvalues --  -20.60756 -20.60750 -15.85809 -11.31170 -11.27740
 Alpha  occ. eigenvalues --  -11.27736 -11.27473 -11.26752 -11.26717 -11.22479
 Alpha  occ. eigenvalues --  -11.22178 -11.22087 -11.21939 -11.21852 -11.21295
 Alpha  occ. eigenvalues --   -1.59831  -1.39385  -1.19340  -1.09054  -1.08734
 Alpha  occ. eigenvalues --   -1.04745  -1.04161  -0.96620  -0.95571  -0.87637
 Alpha  occ. eigenvalues --   -0.86141  -0.82406  -0.80234  -0.78811  -0.77456
 Alpha  occ. eigenvalues --   -0.72027  -0.71154  -0.70447  -0.65734  -0.64992
 Alpha  occ. eigenvalues --   -0.64750  -0.62173  -0.61485  -0.60014  -0.58200
 Alpha  occ. eigenvalues --   -0.55947  -0.55226  -0.53317  -0.53086  -0.53062
 Alpha  occ. eigenvalues --   -0.52782  -0.50556  -0.48788  -0.48783  -0.48529
 Alpha  occ. eigenvalues --   -0.47274  -0.46361  -0.46260  -0.44791  -0.44397
 Alpha  occ. eigenvalues --   -0.37319  -0.36348
 Alpha virt. eigenvalues --    0.05081   0.11285   0.16566   0.18946   0.22805
 Alpha virt. eigenvalues --    0.23705   0.25608   0.26720   0.26964   0.28418
 Alpha virt. eigenvalues --    0.29025   0.29808   0.30977   0.31547   0.32099

 Mulliken charges:
               1
     1  C   -0.173033
     2  C   -0.226933
     3  C   -0.173164
     4  C    0.158930
     5  C   -0.171187
     6  C   -0.218484
     7  H    0.226225
     8  H    0.235718
     9  H    0.275348
    10  H    0.275521
    11  H    0.223341
    12  N    0.488080
    13  O   -0.460503
    14  O   -0.460619
    15  C   -0.298967
    16  C   -0.300375
    17  C   -0.476192
    18  H    0.150978
    19  H    0.150305
    20  H    0.152621
    21  H    0.153474
    22  H    0.156477
    23  H    0.155209
    24  H    0.162392
    25  C   -0.297638
    26  C   -0.302390
    27  C   -0.480262
    28  H    0.152521
    29  H    0.145420
    30  H    0.156671
    31  H    0.150212
    32  H    0.147862
    33  H    0.162515
    34  H    0.159929
 Sum of Mulliken charges =  -0.00000

 Dipole moment (field-independent basis, Debye):
    X=             -1.9101    Y=              4.8589    Z=             -0.8171  Tot=              5.2844
 Quadrupole moment (field-independent basis, Debye-Ang):
   XX=           -100.2103   YY=            -98.6611   ZZ=            -95.3964
   XY=             17.0283   XZ=             -4.8382   YZ=             -0.4916

 Normal termination of Gaussian 16 at Thu May  6 04:28:25 2021.
