 Gaussian 16, Revision A.03,
 Gaussian 16:  EM64L-G16RevA.03 25-Dec-2016

 -------------
 #p 6-31g* mp2
 -------------

 ------------------------------------------------------
 Input file generated by CHIRIPA (05-May-2021 14:55:21)
 ------------------------------------------------------
 Symbolic Z-matrix:
 Charge =  0 Multiplicity = 1

                         Standard orientation:
 ---------------------------------------------------------------------
 Center     Atomic      Atomic             Coordinates (Angstroms)
 Number     Number       Type             X           Y           Z
 ---------------------------------------------------------------------
      1          6           0       -5.607591   -0.038294    0.379728
      2          6           0       -4.794936    1.092825    0.250576
      3          6           0       -3.425965    0.958750    0.000595
      4          6           0       -2.900554   -0.327282   -0.114969
      5          6           0       -3.684148   -1.473572    0.008680
      6          6           0       -5.050586   -1.315631    0.258581
      7          1           0       -6.670057    0.075129    0.573888
      8          1           0       -5.224780    2.086060    0.344185
      9          1           0       -2.773826    1.817371   -0.103826
     10          1           0       -3.226861   -2.450629   -0.089640
     11          1           0       -5.679293   -2.195861    0.358418
     12          7           0       -1.452627   -0.481855   -0.379571
     13          8           0       -1.014051   -1.625868   -0.477157
     14          8           0       -0.783734    0.543931   -0.484369
     15          6           0        4.490290   -0.102120   -0.257890
     16          6           0        5.156142   -1.091196    0.699375
     17          6           0        6.097739   -2.061784   -0.014171
     18          1           0        3.933064   -0.660347   -1.022630
     19          1           0        5.268228    0.463839   -0.788829
     20          1           0        4.377162   -1.654155    1.229359
     21          1           0        5.711690   -0.530546    1.462037
     22          1           0        6.895457   -1.516430   -0.528794
     23          1           0        5.553346   -2.646422   -0.762793
     24          1           0        6.562878   -2.759821    0.688860
     25          6           0        3.546037    0.874746    0.440571
     26          6           0        2.880184    1.863821   -0.516694
     27          6           0        1.938588    2.834409    0.196852
     28          1           0        2.768098    0.308786    0.971510
     29          1           0        4.103262    1.432972    1.205311
     30          1           0        2.324636    1.303172   -1.279356
     31          1           0        3.659164    2.426780   -1.046678
     32          1           0        2.482980    3.419048    0.945475
     33          1           0        1.140870    2.289056    0.711474
     34          1           0        1.473450    3.532446   -0.506179
 ---------------------------------------------------------------------

 SCF Done:  E(RHF) =  -669.536313605     A.U. after   15 cycles
 E2 =    -0.2091124774D+01 EUMP2 =    -0.67162743837944D+03

 The electronic state is 1-A.
 Alpha  occ. eigenvalues --  -20.61021 -20.61014 -15.86046 -11.31335 -11.27896
 Alpha  occ. eigenvalues --  -11.27889 -11.27628 -11.26896 -11.26885 -11.20624
 Alpha  occ. eigenvalues --  -11.20246 -11.20209 -11.20083 -11.20005 -11.19581
 Alpha  occ. eigenvalues --   -1.60080  -1.39636  -1.19502  -1.08913  -1.07177
 Alpha  occ. eigenvalues --   -1.04892  -1.02294  -0.95761  -0.94770  -0.86294
 Alpha  occ. eigenvalues --   -0.85801  -0.82593  -0.78398  -0.77649  -0.76975
 Alpha  occ. eigenvalues --   -0.72279  -0.71392  -0.70610  -0.65160  -0.64896
 Alpha  occ. eigenvalues --   -0.63779  -0.62239  -0.59650  -0.58179  -0.56389
 Alpha  occ. eigenvalues --   -0.55399  -0.54031  -0.53226  -0.52983  -0.51509
 Alpha  occ. eigenvalues --   -0.51214  -0.49048  -0.49022  -0.48678  -0.46719
 Alpha  occ. eigenvalues --   -0.45443  -0.45023  -0.44524  -0.44366  -0.42567
 Alpha  occ. eigenvalues --   -0.37479  -0.36492
 Alpha virt. eigenvalues --    0.04855   0.11163   0.16341   0.21268   0.24104
 Alpha virt. eigenvalues --    0.25472   0.27200   0.27791   0.28223   0.28729
 Alpha virt. eigenvalues --    0.29223   0.30883   0.32190   0.32836   0.32891

 Mulliken charges:
               1
     1  C   -0.170487
     2  C   -0.218568
     3  C   -0.170806
     4  C    0.157542
     5  C   -0.170641
     6  C   -0.218601
     7  H    0.226169
     8  H    0.224111
     9  H    0.276360
    10  H    0.275825
    11  H    0.223936
    12  N    0.491766
    13  O   -0.459412
    14  O   -0.463312
    15  C   -0.298423
    16  C   -0.299075
    17  C   -0.475221
    18  H    0.154542
    19  H    0.145049
    20  H    0.153489
    21  H    0.148510
    22  H    0.152895
    23  H    0.155966
    24  H    0.156976
    25  C   -0.298476
    26  C   -0.298278
    27  C   -0.476266
    28  H    0.156614
    29  H    0.142676
    30  H    0.165877
    31  H    0.142914
    32  H    0.144510
    33  H    0.168859
    34  H    0.152979
 Sum of Mulliken charges =  -0.00000

 Dipole moment (field-independent basis, Debye):
    X=             -5.4980    Y=              0.3975    Z=              0.8761  Tot=              5.5815
 Quadrupole moment (field-independent basis, Debye-Ang):
   XX=            -67.0092   YY=            -91.0875   ZZ=            -96.1011
   XY=              1.2913   XZ=             -2.0714   YZ=             -0.6216

 Normal termination of Gaussian 16 at Wed May  5 18:59:46 2021.
