 Gaussian 16, Revision A.03,
 Gaussian 16:  EM64L-G16RevA.03 25-Dec-2016

 -------------
 #p 6-31g* mp2
 -------------

 ------------------------------------------------------
 Input file generated by CHIRIPA (05-May-2021 14:53:12)
 ------------------------------------------------------
 Symbolic Z-matrix:
 Charge =  0 Multiplicity = 1

                         Standard orientation:
 ---------------------------------------------------------------------
 Center     Atomic      Atomic             Coordinates (Angstroms)
 Number     Number       Type             X           Y           Z
 ---------------------------------------------------------------------
      1          6           0        5.066991   -0.514680   -0.274160
      2          6           0        6.565449   -0.541960    0.028928
      3          6           0        7.202160   -1.901908   -0.259056
      4          1           0        4.564822   -1.289656    0.320972
      5          1           0        4.908455   -0.778830   -1.328905
      6          1           0        6.721205   -0.276487    1.082437
      7          1           0        7.064082    0.233300   -0.566852
      8          1           0        7.076147   -2.170883   -1.312800
      9          1           0        6.731322   -2.683566    0.345860
     10          1           0        8.273535   -1.899024   -0.035433
     11          6           0        4.416225    0.838175    0.008710
     12          6           0        2.917767    0.865456   -0.294378
     13          6           0        2.281056    2.225404   -0.006394
     14          1           0        4.574761    1.102326    1.063455
     15          1           0        4.918394    1.613152   -0.586422
     16          1           0        2.419134    0.090196    0.301402
     17          1           0        2.762011    0.599983   -1.347887
     18          1           0        2.751894    3.007061   -0.611310
     19          1           0        2.407069    2.494378    1.047349
     20          1           0        1.209681    2.222520   -0.230017
     21          6           0       -1.437104    0.740477    0.792140
     22          6           0       -2.359420    1.598385    0.183989
     23          6           0       -3.618590    1.128965   -0.201604
     24          6           0       -3.923573   -0.210168    0.037134
     25          6           0       -3.026209   -1.089612    0.640961
     26          6           0       -1.772850   -0.598423    1.018287
     27          1           0       -0.461208    1.113589    1.088467
     28          1           0       -2.101406    2.638670    0.007119
     29          1           0       -4.351642    1.771345   -0.674259
     30          1           0       -3.312188   -2.121595    0.804191
     31          1           0       -1.058562   -1.266970    1.490392
     32          7           0       -5.253524   -0.718645   -0.366699
     33          8           0       -5.497918   -1.902665   -0.145325
     34          8           0       -6.026363    0.076458   -0.896951
 ---------------------------------------------------------------------

 SCF Done:  E(RHF) =  -669.535462365     A.U. after   15 cycles
 E2 =    -0.2091120529D+01 EUMP2 =    -0.67162658289429D+03

 The electronic state is 1-A.
 Alpha  occ. eigenvalues --  -20.60739 -20.60734 -15.85793 -11.31155 -11.27727
 Alpha  occ. eigenvalues --  -11.27723 -11.27417 -11.26736 -11.26725 -11.22626
 Alpha  occ. eigenvalues --  -11.22286 -11.22181 -11.22134 -11.22016 -11.21513
 Alpha  occ. eigenvalues --   -1.59814  -1.39368  -1.19326  -1.09193  -1.08718
 Alpha  occ. eigenvalues --   -1.04730  -1.04324  -0.96785  -0.95552  -0.87801
 Alpha  occ. eigenvalues --   -0.86126  -0.82389  -0.80392  -0.78960  -0.77439
 Alpha  occ. eigenvalues --   -0.72010  -0.71138  -0.70455  -0.65821  -0.64978
 Alpha  occ. eigenvalues --   -0.64741  -0.62080  -0.61718  -0.60215  -0.58391
 Alpha  occ. eigenvalues --   -0.56082  -0.55203  -0.53467  -0.53197  -0.53013
 Alpha  occ. eigenvalues --   -0.52820  -0.50708  -0.48772  -0.48766  -0.48698
 Alpha  occ. eigenvalues --   -0.47420  -0.46513  -0.46409  -0.44774  -0.44567
 Alpha  occ. eigenvalues --   -0.37293  -0.36337
 Alpha virt. eigenvalues --    0.05078   0.11286   0.16507   0.19737   0.22491
 Alpha virt. eigenvalues --    0.23898   0.25633   0.26244   0.26663   0.27202
 Alpha virt. eigenvalues --    0.29204   0.30282   0.30747   0.31298   0.31515

 Mulliken charges:
               1
     1  C   -0.298683
     2  C   -0.300225
     3  C   -0.476092
     4  H    0.148889
     5  H    0.151349
     6  H    0.152275
     7  H    0.153100
     8  H    0.156220
     9  H    0.155351
    10  H    0.161885
    11  C   -0.298856
    12  C   -0.299427
    13  C   -0.482023
    14  H    0.149950
    15  H    0.152297
    16  H    0.146045
    17  H    0.157078
    18  H    0.162285
    19  H    0.155002
    20  H    0.153413
    21  C   -0.174957
    22  C   -0.220912
    23  C   -0.170723
    24  C    0.158307
    25  C   -0.170808
    26  C   -0.219749
    27  H    0.234278
    28  H    0.223620
    29  H    0.275517
    30  H    0.275436
    31  H    0.223121
    32  N    0.488082
    33  O   -0.460524
    34  O   -0.460521
 Sum of Mulliken charges =  -0.00000

 Dipole moment (field-independent basis, Debye):
    X=              4.9167    Y=              1.7928    Z=              1.3694  Tot=              5.4096
 Quadrupole moment (field-independent basis, Debye-Ang):
   XX=           -131.3321   YY=            -92.2081   ZZ=            -93.9038
   XY=             -8.6660   XZ=             -5.2363   YZ=             -2.5619

 Normal termination of Gaussian 16 at Thu May  6 04:06:14 2021.
