 Gaussian 16, Revision A.03,
 Gaussian 16:  EM64L-G16RevA.03 25-Dec-2016

 -------------
 #p 6-31g* mp2
 -------------

 ------------------------------------------------------
 Input file generated by CHIRIPA (05-May-2021 14:51:09)
 ------------------------------------------------------
 Symbolic Z-matrix:
 Charge =  0 Multiplicity = 1

                         Standard orientation:
 ---------------------------------------------------------------------
 Center     Atomic      Atomic             Coordinates (Angstroms)
 Number     Number       Type             X           Y           Z
 ---------------------------------------------------------------------
      1          6           0       -2.865455   -0.611258    0.721029
      2          6           0       -1.738903   -1.645083    0.712652
      3          6           0       -1.961375   -2.770029    1.723986
      4          1           0       -2.957097   -0.186362    1.729994
      5          1           0       -3.817932   -1.115391    0.506479
      6          1           0       -0.788641   -1.138928    0.925788
      7          1           0       -1.649805   -2.067428   -0.296457
      8          1           0       -2.894755   -3.300921    1.510548
      9          1           0       -2.028698   -2.367145    2.739738
     10          1           0       -1.144265   -3.497813    1.701145
     11          6           0       -2.657371    0.519648   -0.284695
     12          6           0       -3.783924    1.553473   -0.276318
     13          6           0       -3.561452    2.678420   -1.287652
     14          1           0       -1.704894    1.023781   -0.070144
     15          1           0       -2.565729    0.094752   -1.293660
     16          1           0       -3.873021    1.975819    0.732792
     17          1           0       -4.734185    1.047318   -0.489454
     18          1           0       -3.494128    2.275536   -2.303404
     19          1           0       -2.628071    3.209312   -1.074214
     20          1           0       -4.378561    3.406204   -1.264811
     21          6           0        2.631230    0.784416   -0.073469
     22          6           0        3.691352    1.422322    0.824974
     23          6           0        3.417092    2.900140    1.105391
     24          1           0        2.583379    1.336382   -1.022148
     25          1           0        1.645846    0.891883    0.400728
     26          1           0        4.674625    1.312461    0.349875
     27          1           0        3.736819    0.868657    1.771550
     28          1           0        2.449130    3.024948    1.601446
     29          1           0        3.392265    3.471275    0.171694
     30          1           0        4.187097    3.336196    1.749448
     31          6           0        2.891596   -0.692807   -0.362864
     32          6           0        1.831474   -1.330714   -1.261309
     33          6           0        2.105734   -2.808531   -1.541725
     34          1           0        3.876981   -0.800274   -0.837062
     35          1           0        2.939447   -1.244773    0.585813
     36          1           0        1.786007   -0.777047   -2.207884
     37          1           0        0.848200   -1.220852   -0.786210
     38          1           0        2.130562   -3.379666   -0.608029
     39          1           0        3.073697   -2.933340   -2.037781
     40          1           0        1.335729   -3.244587   -2.185782
 ---------------------------------------------------------------------

 SCF Done:  E(RHF) =  -470.732999206     A.U. after   11 cycles
 E2 =    -0.1583588158D+01 EUMP2 =    -0.47231658736383D+03

 The electronic state is 1-A.
 Alpha  occ. eigenvalues --  -11.21678 -11.21627 -11.21606 -11.21453 -11.21437
 Alpha  occ. eigenvalues --  -11.21392 -11.21391 -11.21313 -11.21136 -11.21085
 Alpha  occ. eigenvalues --  -11.21079 -11.21013  -1.08492  -1.08390  -1.03593
 Alpha  occ. eigenvalues --   -1.03477  -0.96023  -0.95950  -0.87044  -0.86962
 Alpha  occ. eigenvalues --   -0.79739  -0.79490  -0.78392  -0.78110  -0.65167
 Alpha  occ. eigenvalues --   -0.64987  -0.61007  -0.60885  -0.59426  -0.59275
 Alpha  occ. eigenvalues --   -0.57651  -0.57539  -0.55306  -0.55241  -0.52726
 Alpha  occ. eigenvalues --   -0.52636  -0.52453  -0.52370  -0.49981  -0.49891
 Alpha  occ. eigenvalues --   -0.48178  -0.47765  -0.46751  -0.46560  -0.46136
 Alpha  occ. eigenvalues --   -0.45767  -0.45726  -0.45179  -0.43827  -0.43745
 Alpha virt. eigenvalues --    0.20490   0.23220   0.23517   0.24669   0.24973
 Alpha virt. eigenvalues --    0.26406   0.26964   0.27769   0.28343   0.30028
 Alpha virt. eigenvalues --    0.30725   0.31156   0.31653   0.31876   0.32298

 Mulliken charges:
               1
     1  C   -0.297722
     2  C   -0.305099
     3  C   -0.475315
     4  H    0.149537
     5  H    0.149819
     6  H    0.154978
     7  H    0.154030
     8  H    0.155622
     9  H    0.155159
    10  H    0.160505
    11  C   -0.299768
    12  C   -0.299609
    13  C   -0.475769
    14  H    0.150309
    15  H    0.150184
    16  H    0.151909
    17  H    0.152030
    18  H    0.155282
    19  H    0.155554
    20  H    0.160283
    21  C   -0.299607
    22  C   -0.299601
    23  C   -0.475632
    24  H    0.150061
    25  H    0.149018
    26  H    0.152225
    27  H    0.151843
    28  H    0.154644
    29  H    0.155294
    30  H    0.160332
    31  C   -0.297832
    32  C   -0.309581
    33  C   -0.475059
    34  H    0.149315
    35  H    0.148921
    36  H    0.150991
    37  H    0.164010
    38  H    0.154429
    39  H    0.154835
    40  H    0.159473
 Sum of Mulliken charges =  -0.00000

 Dipole moment (field-independent basis, Debye):
    X=             -0.0571    Y=             -0.0011    Z=              0.0060  Tot=              0.0575
 Quadrupole moment (field-independent basis, Debye-Ang):
   XX=            -84.2682   YY=            -86.3774   ZZ=            -84.1722
   XY=              0.5528   XZ=             -0.0242   YZ=              0.4032

 Normal termination of Gaussian 16 at Wed May  5 21:22:11 2021.
