 Gaussian 16, Revision A.03,
 Gaussian 16:  EM64L-G16RevA.03 25-Dec-2016

 -------------
 #p 6-31g* mp2
 -------------

 ------------------------------------------------------
 Input file generated by CHIRIPA (05-May-2021 14:55:24)
 ------------------------------------------------------
 Symbolic Z-matrix:
 Charge =  0 Multiplicity = 1

                         Standard orientation:
 ---------------------------------------------------------------------
 Center     Atomic      Atomic             Coordinates (Angstroms)
 Number     Number       Type             X           Y           Z
 ---------------------------------------------------------------------
      1          6           0       -0.891107   -1.039089    0.900175
      2          6           0       -1.422741    0.185311    1.318182
      3          6           0       -2.700792    0.580244    0.911779
      4          6           0       -3.422830   -0.277651    0.083549
      5          6           0       -2.920639   -1.503745   -0.349797
      6          6           0       -1.640431   -1.878230    0.068985
      7          1           0        0.102551   -1.337940    1.220687
      8          1           0       -0.843075    0.839019    1.963704
      9          1           0       -3.136620    1.522669    1.220496
     10          1           0       -3.522386   -2.134110   -0.993192
     11          1           0       -1.230099   -2.829688   -0.257205
     12          7           0       -4.776987    0.129623   -0.353244
     13          8           0       -5.392919   -0.644153   -1.082994
     14          8           0       -5.196801    1.214908    0.042418
     15          6           0        4.851082    0.368392   -0.113726
     16          6           0        5.329303   -1.083191   -0.160607
     17          6           0        6.843023   -1.212759    0.011603
     18          1           0        5.361381    0.941458   -0.899943
     19          1           0        5.151689    0.815416    0.843980
     20          1           0        5.026678   -1.527758   -1.117369
     21          1           0        4.817664   -1.652911    0.625689
     22          1           0        7.158539   -0.794818    0.973047
     23          1           0        7.368740   -0.668953   -0.779914
     24          1           0        7.163183   -2.258709   -0.025106
     25          6           0        3.340019    0.514232   -0.284450
     26          6           0        2.861799    1.965815   -0.237569
     27          6           0        1.348078    2.095383   -0.409779
     28          1           0        3.039413    0.067208   -1.242156
     29          1           0        2.829721   -0.058834    0.501766
     30          1           0        3.373437    2.535535   -1.023865
     31          1           0        3.164424    2.410382    0.719193
     32          1           0        0.822362    1.551577    0.381738
     33          1           0        1.032563    1.677442   -1.371223
     34          1           0        1.027918    3.141333   -0.373070
 ---------------------------------------------------------------------

 SCF Done:  E(RHF) =  -669.534402661     A.U. after   15 cycles
 E2 =    -0.2092448765D+01 EUMP2 =    -0.67162685142591D+03

 The electronic state is 1-A.
 Alpha  occ. eigenvalues --  -20.60748 -20.60743 -15.85802 -11.31173 -11.27739
 Alpha  occ. eigenvalues --  -11.27732 -11.27484 -11.26760 -11.26749 -11.22264
 Alpha  occ. eigenvalues --  -11.22240 -11.22182 -11.22023 -11.21650 -11.21594
 Alpha  occ. eigenvalues --   -1.59823  -1.39377  -1.19350  -1.09119  -1.08746
 Alpha  occ. eigenvalues --   -1.04761  -1.04162  -0.96614  -0.95576  -0.87635
 Alpha  occ. eigenvalues --   -0.86160  -0.82410  -0.80232  -0.78946  -0.77457
 Alpha  occ. eigenvalues --   -0.72022  -0.71146  -0.70456  -0.65770  -0.65005
 Alpha  occ. eigenvalues --   -0.64792  -0.62155  -0.61527  -0.59978  -0.58230
 Alpha  occ. eigenvalues --   -0.55947  -0.55245  -0.53363  -0.53261  -0.52903
 Alpha  occ. eigenvalues --   -0.52735  -0.50533  -0.48783  -0.48775  -0.48526
 Alpha  occ. eigenvalues --   -0.47268  -0.46488  -0.46403  -0.44781  -0.44434
 Alpha  occ. eigenvalues --   -0.37282  -0.36315
 Alpha virt. eigenvalues --    0.05070   0.11183   0.16516   0.19775   0.22595
 Alpha virt. eigenvalues --    0.23921   0.25162   0.26314   0.26566   0.28137
 Alpha virt. eigenvalues --    0.29105   0.30147   0.31104   0.31434   0.31641

 Mulliken charges:
               1
     1  C   -0.169258
     2  C   -0.216557
     3  C   -0.172048
     4  C    0.158334
     5  C   -0.170875
     6  C   -0.218976
     7  H    0.227115
     8  H    0.223268
     9  H    0.275746
    10  H    0.275527
    11  H    0.223578
    12  N    0.488081
    13  O   -0.460523
    14  O   -0.460351
    15  C   -0.298529
    16  C   -0.299656
    17  C   -0.475988
    18  H    0.152594
    19  H    0.150245
    20  H    0.152461
    21  H    0.148707
    22  H    0.155898
    23  H    0.156886
    24  H    0.161296
    25  C   -0.297052
    26  C   -0.300623
    27  C   -0.477361
    28  H    0.151501
    29  H    0.139343
    30  H    0.155319
    31  H    0.151195
    32  H    0.149220
    33  H    0.159379
    34  H    0.162107
 Sum of Mulliken charges =  -0.00000

 Dipole moment (field-independent basis, Debye):
    X=              4.8557    Y=             -1.4029    Z=              1.4607  Tot=              5.2612
 Quadrupole moment (field-independent basis, Debye-Ang):
   XX=           -128.7776   YY=            -90.5181   ZZ=            -92.7421
   XY=              4.3858   XZ=             -5.0791   YZ=              1.9018

 Normal termination of Gaussian 16 at Wed May  5 16:04:45 2021.
