 Gaussian 16, Revision A.03,
 Gaussian 16:  EM64L-G16RevA.03 25-Dec-2016

 -------------
 #p 6-31g* mp2
 -------------

 ------------------------------------------------------
 Input file generated by CHIRIPA (05-May-2021 14:51:11)
 ------------------------------------------------------
 Symbolic Z-matrix:
 Charge =  0 Multiplicity = 1

                         Standard orientation:
 ---------------------------------------------------------------------
 Center     Atomic      Atomic             Coordinates (Angstroms)
 Number     Number       Type             X           Y           Z
 ---------------------------------------------------------------------
      1          6           0       -2.971580   -0.681680   -0.324103
      2          6           0       -1.961117   -1.308880    0.636922
      3          6           0       -0.962599   -2.225479   -0.070611
      4          1           0       -3.513175   -1.480362   -0.849200
      5          1           0       -2.431206   -0.112538   -1.093172
      6          1           0       -2.503295   -1.875529    1.404756
      7          1           0       -1.421999   -0.508613    1.159933
      8          1           0       -0.396080   -1.669122   -0.824351
      9          1           0       -1.483521   -3.043805   -0.578138
     10          1           0       -0.249584   -2.663122    0.635036
     11          6           0       -3.976473    0.237258    0.368335
     12          6           0       -4.986937    0.864458   -0.592690
     13          6           0       -5.985454    1.781057    0.114843
     14          1           0       -4.516847   -0.331884    1.137405
     15          1           0       -3.434879    1.035940    0.893432
     16          1           0       -5.526055    0.064191   -1.115700
     17          1           0       -4.444759    1.431107   -1.360523
     18          1           0       -5.464533    2.599383    0.622370
     19          1           0       -6.551973    1.224701    0.868584
     20          1           0       -6.698470    2.218701   -0.590803
     21          6           0        2.981499   -0.361122    0.001787
     22          6           0        3.655643   -1.728919   -0.110678
     23          6           0        2.657261   -2.885893   -0.061288
     24          1           0        2.412068   -0.316130    0.940226
     25          1           0        2.251594   -0.251805   -0.812268
     26          1           0        4.385051   -1.835067    0.702534
     27          1           0        4.223691   -1.770591   -1.048867
     28          1           0        1.936120   -2.807712   -0.881315
     29          1           0        2.098397   -2.872555    0.880037
     30          1           0        3.160598   -3.854286   -0.143312
     31          6           0        3.966555    0.805543   -0.046019
     32          6           0        3.292411    2.173340    0.066445
     33          6           0        4.290792    3.330314    0.017056
     34          1           0        4.696459    0.696226    0.768035
     35          1           0        4.535986    0.760551   -0.984458
     36          1           0        2.724362    2.215013    1.004635
     37          1           0        2.563003    2.279488   -0.746766
     38          1           0        4.849657    3.316976   -0.924269
     39          1           0        5.011932    3.252134    0.837082
     40          1           0        3.787456    4.298708    0.099078
 ---------------------------------------------------------------------

 SCF Done:  E(RHF) =  -470.731938952     A.U. after   11 cycles
 E2 =    -0.1583374601D+01 EUMP2 =    -0.47231531355305D+03

 The electronic state is 1-A.
 Alpha  occ. eigenvalues --  -11.21622 -11.21577 -11.21568 -11.21520 -11.21410
 Alpha  occ. eigenvalues --  -11.21363 -11.21350 -11.21302 -11.21087 -11.21053
 Alpha  occ. eigenvalues --  -11.20951 -11.20904  -1.08434  -1.08378  -1.03552
 Alpha  occ. eigenvalues --   -1.03443  -0.96036  -0.95859  -0.87103  -0.86834
 Alpha  occ. eigenvalues --   -0.79711  -0.79428  -0.78258  -0.78178  -0.65070
 Alpha  occ. eigenvalues --   -0.65008  -0.60958  -0.60852  -0.59468  -0.59222
 Alpha  occ. eigenvalues --   -0.57689  -0.57431  -0.55294  -0.55178  -0.52959
 Alpha  occ. eigenvalues --   -0.52652  -0.52364  -0.52049  -0.49960  -0.49837
 Alpha  occ. eigenvalues --   -0.47903  -0.47824  -0.46674  -0.46514  -0.45817
 Alpha  occ. eigenvalues --   -0.45740  -0.45703  -0.45568  -0.43776  -0.43654
 Alpha virt. eigenvalues --    0.21626   0.23157   0.23564   0.24894   0.25459
 Alpha virt. eigenvalues --    0.26578   0.26856   0.27664   0.27794   0.29391
 Alpha virt. eigenvalues --    0.29505   0.31291   0.31630   0.31927   0.32345

 Mulliken charges:
               1
     1  C   -0.298418
     2  C   -0.300259
     3  C   -0.478046
     4  H    0.149437
     5  H    0.149162
     6  H    0.151231
     7  H    0.151660
     8  H    0.155070
     9  H    0.153725
    10  H    0.165850
    11  C   -0.298190
    12  C   -0.299572
    13  C   -0.475668
    14  H    0.149394
    15  H    0.149577
    16  H    0.151856
    17  H    0.151797
    18  H    0.155132
    19  H    0.155133
    20  H    0.160141
    21  C   -0.298872
    22  C   -0.299998
    23  C   -0.477526
    24  H    0.149684
    25  H    0.149670
    26  H    0.151471
    27  H    0.151580
    28  H    0.160921
    29  H    0.155080
    30  H    0.159111
    31  C   -0.298253
    32  C   -0.299568
    33  C   -0.475687
    34  H    0.149660
    35  H    0.149682
    36  H    0.151770
    37  H    0.151543
    38  H    0.155245
    39  H    0.155283
    40  H    0.160191
 Sum of Mulliken charges =  -0.00000

 Dipole moment (field-independent basis, Debye):
    X=              0.0268    Y=             -0.0242    Z=             -0.0032  Tot=              0.0362
 Quadrupole moment (field-independent basis, Debye-Ang):
   XX=            -85.5749   YY=            -85.4975   ZZ=            -83.8566
   XY=              0.4957   XZ=              0.2903   YZ=             -0.3768

 Normal termination of Gaussian 16 at Wed May  5 16:45:56 2021.
