 Gaussian 16, Revision A.03,
 Gaussian 16:  EM64L-G16RevA.03 25-Dec-2016

 -------------
 #p 6-31g* mp2
 -------------

 ------------------------------------------------------
 Input file generated by CHIRIPA (05-May-2021 14:55:23)
 ------------------------------------------------------
 Symbolic Z-matrix:
 Charge =  0 Multiplicity = 1

                         Standard orientation:
 ---------------------------------------------------------------------
 Center     Atomic      Atomic             Coordinates (Angstroms)
 Number     Number       Type             X           Y           Z
 ---------------------------------------------------------------------
      1          6           0        1.634485    1.596582    0.959894
      2          6           0        1.623132    1.201722   -0.381925
      3          6           0        2.570361    0.292727   -0.862586
      4          6           0        3.518866   -0.203739    0.030247
      5          6           0        3.556167    0.170352    1.372616
      6          6           0        2.599266    1.080547    1.831345
      7          1           0        0.894898    2.303177    1.324765
      8          1           0        0.875048    1.600847   -1.060979
      9          1           0        2.584504   -0.030007   -1.896540
     10          1           0        4.314300   -0.244740    2.025572
     11          1           0        2.610486    1.385414    2.873926
     12          7           0        4.526774   -1.166686   -0.466999
     13          8           0        5.351935   -1.589532    0.339815
     14          8           0        4.472528   -1.480364   -1.654138
     15          6           0       -4.121808    0.741892   -0.437609
     16          6           0       -2.637701    1.095072   -0.334286
     17          6           0       -2.313870    2.466917   -0.926712
     18          1           0       -4.425822    0.768146   -1.492991
     19          1           0       -4.711754    1.513031    0.076885
     20          1           0       -2.050641    0.322769   -0.847632
     21          1           0       -2.337141    1.067787    0.720955
     22          1           0       -2.874257    3.252129   -0.409016
     23          1           0       -2.586129    2.502878   -1.986516
     24          1           0       -1.247662    2.699149   -0.842273
     25          6           0       -4.461233   -0.626607    0.150380
     26          6           0       -5.945340   -0.979787    0.047058
     27          6           0       -6.269171   -2.351631    0.639484
     28          1           0       -3.871286   -1.397746   -0.364113
     29          1           0       -4.157219   -0.652860    1.205762
     30          1           0       -6.245900   -0.952501   -1.008183
     31          1           0       -6.532400   -0.207483    0.560403
     32          1           0       -5.996911   -2.387592    1.699286
     33          1           0       -5.708784   -3.136843    0.121787
     34          1           0       -7.335379   -2.583863    0.555045
 ---------------------------------------------------------------------

 SCF Done:  E(RHF) =  -669.535447765     A.U. after   15 cycles
 E2 =    -0.2091277376D+01 EUMP2 =    -0.67162672514136D+03

 The electronic state is 1-A.
 Alpha  occ. eigenvalues --  -20.60738 -20.60733 -15.85791 -11.31151 -11.27721
 Alpha  occ. eigenvalues --  -11.27713 -11.27458 -11.26737 -11.26704 -11.22531
 Alpha  occ. eigenvalues --  -11.22251 -11.22081 -11.22022 -11.21894 -11.21400
 Alpha  occ. eigenvalues --   -1.59814  -1.39368  -1.19322  -1.09090  -1.08718
 Alpha  occ. eigenvalues --   -1.04727  -1.04229  -0.96689  -0.95554  -0.87704
 Alpha  occ. eigenvalues --   -0.86125  -0.82387  -0.80296  -0.78851  -0.77438
 Alpha  occ. eigenvalues --   -0.72011  -0.71137  -0.70434  -0.65715  -0.64978
 Alpha  occ. eigenvalues --   -0.64781  -0.62133  -0.61611  -0.60068  -0.58272
 Alpha  occ. eigenvalues --   -0.55954  -0.55221  -0.53466  -0.53158  -0.53050
 Alpha  occ. eigenvalues --   -0.52695  -0.50604  -0.48772  -0.48765  -0.48604
 Alpha  occ. eigenvalues --   -0.47316  -0.46402  -0.46296  -0.44774  -0.44474
 Alpha  occ. eigenvalues --   -0.37298  -0.36325
 Alpha virt. eigenvalues --    0.05095   0.11285   0.16573   0.19285   0.22570
 Alpha virt. eigenvalues --    0.23930   0.25880   0.26020   0.26886   0.27520
 Alpha virt. eigenvalues --    0.28845   0.29915   0.30750   0.31341   0.31579

 Mulliken charges:
               1
     1  C   -0.172314
     2  C   -0.222420
     3  C   -0.171743
     4  C    0.158838
     5  C   -0.171171
     6  C   -0.218643
     7  H    0.226039
     8  H    0.229894
     9  H    0.275647
    10  H    0.275464
    11  H    0.223212
    12  N    0.487963
    13  O   -0.460520
    14  O   -0.460533
    15  C   -0.298831
    16  C   -0.301068
    17  C   -0.479651
    18  H    0.151620
    19  H    0.150582
    20  H    0.153662
    21  H    0.150564
    22  H    0.159756
    23  H    0.160432
    24  H    0.148563
    25  C   -0.298884
    26  C   -0.300222
    27  C   -0.476111
    28  H    0.151448
    29  H    0.149892
    30  H    0.152859
    31  H    0.152143
    32  H    0.155474
    33  H    0.156473
    34  H    0.161584
 Sum of Mulliken charges =  -0.00000

 Dipole moment (field-independent basis, Debye):
    X=             -3.7640    Y=              3.3410    Z=              1.7484  Tot=              5.3279
 Quadrupole moment (field-independent basis, Debye-Ang):
   XX=           -119.0123   YY=            -97.6986   ZZ=            -89.8305
   XY=             12.1878   XZ=              8.3325   YZ=              0.2978

 Normal termination of Gaussian 16 at Wed May  5 20:43:27 2021.
