 Gaussian 16, Revision A.03,
 Gaussian 16:  EM64L-G16RevA.03 25-Dec-2016

 -------------
 #p 6-31g* mp2
 -------------

 ------------------------------------------------------
 Input file generated by CHIRIPA (05-May-2021 14:53:12)
 ------------------------------------------------------
 Symbolic Z-matrix:
 Charge =  0 Multiplicity = 1

                         Standard orientation:
 ---------------------------------------------------------------------
 Center     Atomic      Atomic             Coordinates (Angstroms)
 Number     Number       Type             X           Y           Z
 ---------------------------------------------------------------------
      1          6           0       -4.577050   -0.266629    0.387881
      2          6           0       -4.834380   -1.494848   -0.485758
      3          6           0       -5.942449   -2.391780    0.066952
      4          1           0       -4.313046   -0.595041    1.402471
      5          1           0       -5.507044    0.311542    0.478567
      6          1           0       -3.903829   -2.069795   -0.575906
      7          1           0       -5.097615   -1.163477   -1.498437
      8          1           0       -6.884611   -1.839071    0.140738
      9          1           0       -5.684042   -2.750538    1.068510
     10          1           0       -6.109853   -3.263710   -0.573028
     11          6           0       -3.472010    0.639779   -0.151599
     12          6           0       -3.214680    1.867997    0.722040
     13          6           0       -2.106611    2.764930    0.169330
     14          1           0       -2.542016    0.061607   -0.242286
     15          1           0       -3.736014    0.968191   -1.166189
     16          1           0       -2.951445    1.536627    1.734718
     17          1           0       -4.145232    2.442944    0.812187
     18          1           0       -2.365018    3.123688   -0.832228
     19          1           0       -1.164449    2.212221    0.095544
     20          1           0       -1.939207    3.636860    0.809310
     21          6           0        2.128283    2.126987   -0.502813
     22          6           0        3.404217    2.021982    0.060646
     23          6           0        3.976952    0.767894    0.292561
     24          6           0        3.242376   -0.365483   -0.052611
     25          6           0        1.969072   -0.293610   -0.615480
     26          6           0        1.416038    0.970893   -0.838486
     27          1           0        1.691020    3.105238   -0.679510
     28          1           0        3.959663    2.918112    0.322327
     29          1           0        4.962922    0.657710    0.727465
     30          1           0        1.439692   -1.204914   -0.865878
     31          1           0        0.424940    1.049412   -1.276213
     32          7           0        3.838277   -1.698643    0.188192
     33          8           0        3.170585   -2.681954   -0.124735
     34          8           0        4.961752   -1.735018    0.685300
 ---------------------------------------------------------------------

 SCF Done:  E(RHF) =  -669.535471508     A.U. after   15 cycles
 E2 =    -0.2091544307D+01 EUMP2 =    -0.67162701581512D+03

 The electronic state is 1-A.
 Alpha  occ. eigenvalues --  -20.60771 -20.60766 -15.85824 -11.31193 -11.27767
 Alpha  occ. eigenvalues --  -11.27762 -11.27491 -11.26767 -11.26738 -11.22312
 Alpha  occ. eigenvalues --  -11.22069 -11.22017 -11.21968 -11.21836 -11.21326
 Alpha  occ. eigenvalues --   -1.59846  -1.39400  -1.19367  -1.09003  -1.08756
 Alpha  occ. eigenvalues --   -1.04772  -1.04098  -0.96574  -0.95590  -0.87599
 Alpha  occ. eigenvalues --   -0.86166  -0.82422  -0.80181  -0.78799  -0.77473
 Alpha  occ. eigenvalues --   -0.72043  -0.71169  -0.70461  -0.65646  -0.65017
 Alpha  occ. eigenvalues --   -0.64786  -0.62162  -0.61453  -0.59945  -0.58166
 Alpha  occ. eigenvalues --   -0.55875  -0.55252  -0.53261  -0.53176  -0.53015
 Alpha  occ. eigenvalues --   -0.52765  -0.50501  -0.48810  -0.48797  -0.48473
 Alpha  occ. eigenvalues --   -0.47191  -0.46342  -0.46243  -0.44805  -0.44349
 Alpha  occ. eigenvalues --   -0.37327  -0.36364
 Alpha virt. eigenvalues --    0.05060   0.11118   0.16537   0.20280   0.22564
 Alpha virt. eigenvalues --    0.23838   0.25521   0.26484   0.26826   0.28265
 Alpha virt. eigenvalues --    0.28939   0.30366   0.31184   0.31212   0.31636

 Mulliken charges:
               1
     1  C   -0.298803
     2  C   -0.300279
     3  C   -0.476140
     4  H    0.152009
     5  H    0.150939
     6  H    0.152513
     7  H    0.151751
     8  H    0.155445
     9  H    0.156686
    10  H    0.161963
    11  C   -0.298935
    12  C   -0.298817
    13  C   -0.484160
    14  H    0.144897
    15  H    0.149416
    16  H    0.155651
    17  H    0.154903
    18  H    0.154268
    19  H    0.152210
    20  H    0.162655
    21  C   -0.170843
    22  C   -0.218751
    23  C   -0.170753
    24  C    0.158388
    25  C   -0.172273
    26  C   -0.221237
    27  H    0.227682
    28  H    0.223564
    29  H    0.275676
    30  H    0.275473
    31  H    0.227678
    32  N    0.488107
    33  O   -0.460495
    34  O   -0.460387
 Sum of Mulliken charges =  -0.00000

 Dipole moment (field-independent basis, Debye):
    X=             -2.2240    Y=              4.6798    Z=             -0.7922  Tot=              5.2416
 Quadrupole moment (field-independent basis, Debye-Ang):
   XX=           -104.6201   YY=            -97.9837   ZZ=            -94.5003
   XY=             17.4171   XZ=             -0.4936   YZ=              0.9704

 Normal termination of Gaussian 16 at Thu May  6 05:44:01 2021.
