 Gaussian 16, Revision A.03,
 Gaussian 16:  EM64L-G16RevA.03 25-Dec-2016

 -------------
 #p 6-31g* mp2
 -------------

 ------------------------------------------------------
 Input file generated by CHIRIPA (05-May-2021 14:57:23)
 ------------------------------------------------------
 Symbolic Z-matrix:
 Charge =  0 Multiplicity = 1

                         Standard orientation:
 ---------------------------------------------------------------------
 Center     Atomic      Atomic             Coordinates (Angstroms)
 Number     Number       Type             X           Y           Z
 ---------------------------------------------------------------------
      1          6           0        4.159564   -2.035010    0.894602
      2          6           0        3.274500   -1.981462   -0.187209
      3          6           0        2.860017   -0.750846   -0.705221
      4          6           0        3.352551    0.411784   -0.114466
      5          6           0        4.235321    0.391252    0.964231
      6          6           0        4.636309   -0.850571    1.465862
      7          1           0        4.476303   -2.995335    1.290643
      8          1           0        2.902631   -2.899698   -0.632855
      9          1           0        2.175676   -0.680432   -1.541963
     10          1           0        4.588924    1.323608    1.387426
     11          1           0        5.323750   -0.889121    2.306090
     12          7           0        2.920900    1.720514   -0.654191
     13          8           0        3.369255    2.730429   -0.115967
     14          8           0        2.142390    1.711600   -1.605232
     15          6           0       -1.324931   -1.391438   -0.704052
     16          6           0       -1.244890   -0.105029   -0.160667
     17          6           0       -2.401220    0.566756    0.246952
     18          6           0       -3.626593   -0.080527    0.096044
     19          6           0       -3.738983   -1.361711   -0.441756
     20          6           0       -2.569527   -2.014575   -0.842617
     21          1           0       -0.421568   -1.905947   -1.018076
     22          1           0       -0.279675    0.381352   -0.051867
     23          1           0       -2.368060    1.563091    0.670788
     24          1           0       -4.715435   -1.820794   -0.537688
     25          1           0       -2.634707   -3.013570   -1.264285
     26          7           0       -4.857695    0.620646    0.523995
     27          8           0       -5.925198    0.028634    0.380471
     28          8           0       -4.731820    1.748959    0.994846
 ---------------------------------------------------------------------

 SCF Done:  E(RHF) =  -868.337838243     A.U. after   16 cycles
 E2 =    -0.2600581057D+01 EUMP2 =    -0.87093841930024D+03

 The electronic state is 1-A.
 Alpha  occ. eigenvalues --  -20.61841 -20.61812 -20.60567 -20.60555 -15.86855
 Alpha  occ. eigenvalues --  -15.85615 -11.32246 -11.30999 -11.28873 -11.28726
 Alpha  occ. eigenvalues --  -11.28469 -11.27851 -11.27724 -11.27582 -11.27489
 Alpha  occ. eigenvalues --  -11.27403 -11.26671 -11.26513  -1.60893  -1.59638
 Alpha  occ. eigenvalues --   -1.40445  -1.39190  -1.20399  -1.19170  -1.09775
 Alpha  occ. eigenvalues --   -1.08589  -1.05803  -1.04558  -0.96612  -0.95421
 Alpha  occ. eigenvalues --   -0.87192  -0.85972  -0.83443  -0.82235  -0.78510
 Alpha  occ. eigenvalues --   -0.77258  -0.73057  -0.72229  -0.71835  -0.71481
 Alpha  occ. eigenvalues --   -0.70959  -0.70351  -0.66041  -0.65790  -0.64831
 Alpha  occ. eigenvalues --   -0.64567  -0.63143  -0.61890  -0.56252  -0.55169
 Alpha  occ. eigenvalues --   -0.54115  -0.53879  -0.52903  -0.52652  -0.49836
 Alpha  occ. eigenvalues --   -0.49816  -0.48597  -0.48586  -0.45820  -0.44591
 Alpha  occ. eigenvalues --   -0.38344  -0.37412  -0.37184  -0.36140
 Alpha virt. eigenvalues --    0.03989   0.05250   0.10148   0.11488   0.15452
 Alpha virt. eigenvalues --    0.16727   0.19145   0.21881   0.25131   0.26853
 Alpha virt. eigenvalues --    0.27383   0.29405   0.30069   0.31307   0.32058

 Mulliken charges:
               1
     1  C   -0.169730
     2  C   -0.218017
     3  C   -0.180500
     4  C    0.157978
     5  C   -0.169810
     6  C   -0.217309
     7  H    0.229373
     8  H    0.222551
     9  H    0.272870
    10  H    0.279052
    11  H    0.227885
    12  N    0.486546
    13  O   -0.453674
    14  O   -0.461667
    15  C   -0.171305
    16  C   -0.216070
    17  C   -0.171204
    18  C    0.159013
    19  C   -0.171740
    20  C   -0.218068
    21  H    0.213506
    22  H    0.228657
    23  H    0.278787
    24  H    0.274750
    25  H    0.220617
    26  N    0.487939
    27  O   -0.461541
    28  O   -0.458890
 Sum of Mulliken charges =  -0.00000

 Dipole moment (field-independent basis, Debye):
    X=              6.1956    Y=             -6.9107    Z=              0.5634  Tot=              9.2984
 Quadrupole moment (field-independent basis, Debye-Ang):
   XX=           -122.6231   YY=           -104.5938   ZZ=           -103.9550
   XY=             -2.5893   XZ=             15.8041   YZ=              4.1467

 Normal termination of Gaussian 16 at Thu May  6 22:42:36 2021.
