 Gaussian 16, Revision A.03,
 Gaussian 16:  EM64L-G16RevA.03 25-Dec-2016

 -------------
 #p 6-31g* mp2
 -------------

 ------------------------------------------------------
 Input file generated by CHIRIPA (05-May-2021 14:53:16)
 ------------------------------------------------------
 Symbolic Z-matrix:
 Charge =  0 Multiplicity = 1

                         Standard orientation:
 ---------------------------------------------------------------------
 Center     Atomic      Atomic             Coordinates (Angstroms)
 Number     Number       Type             X           Y           Z
 ---------------------------------------------------------------------
      1          6           0        3.091825   -0.624430    0.919840
      2          6           0        1.811878   -1.392303    0.588035
      3          6           0        1.020445   -1.788918    1.834680
      4          1           0        3.722145   -1.240831    1.575348
      5          1           0        2.832466    0.276655    1.492705
      6          1           0        2.073452   -2.290951    0.014775
      7          1           0        1.184618   -0.774079   -0.066914
      8          1           0        0.730960   -0.900934    2.405893
      9          1           0        1.624844   -2.426425    2.488047
     10          1           0        0.109414   -2.336767    1.574404
     11          6           0        3.893914   -0.220996   -0.316130
     12          6           0        5.173860    0.546877    0.015675
     13          6           0        5.965293    0.943493   -1.230970
     14          1           0        4.153272   -1.122080   -0.888995
     15          1           0        3.263593    0.395405   -0.971638
     16          1           0        5.801120   -0.071347    0.670625
     17          1           0        4.912286    1.445525    0.588935
     18          1           0        5.360894    1.581000   -1.884336
     19          1           0        6.254778    0.055509   -1.802182
     20          1           0        6.876324    1.491342   -0.970694
     21          6           0       -2.075420    2.671767    0.439663
     22          6           0       -1.166764    1.863194   -0.251043
     23          6           0       -1.517993    0.564216   -0.630307
     24          6           0       -2.791971    0.103875   -0.301128
     25          6           0       -3.719455    0.885253    0.386265
     26          6           0       -3.346624    2.181081    0.755556
     27          1           0       -1.794186    3.679621    0.730411
     28          1           0       -0.178841    2.241626   -0.497705
     29          1           0       -0.834103   -0.083128   -1.165711
     30          1           0       -4.697010    0.480198    0.618070
     31          1           0       -4.054349    2.806790    1.291895
     32          7           0       -3.175236   -1.269628   -0.697359
     33          8           0       -4.303736   -1.651706   -0.395464
     34          8           0       -2.339882   -1.938094   -1.302317
 ---------------------------------------------------------------------

 SCF Done:  E(RHF) =  -669.535388207     A.U. after   15 cycles
 E2 =    -0.2092050029D+01 EUMP2 =    -0.67162743823577D+03

 The electronic state is 1-A.
 Alpha  occ. eigenvalues --  -20.60798 -20.60793 -15.85848 -11.31212 -11.27789
 Alpha  occ. eigenvalues --  -11.27774 -11.27537 -11.26812 -11.26800 -11.21921
 Alpha  occ. eigenvalues --  -11.21798 -11.21733 -11.21637 -11.21359 -11.21051
 Alpha  occ. eigenvalues --   -1.59870  -1.39423  -1.19393  -1.08787  -1.08711
 Alpha  occ. eigenvalues --   -1.04802  -1.03746  -0.96183  -0.95621  -0.87198
 Alpha  occ. eigenvalues --   -0.86196  -0.82455  -0.79824  -0.78538  -0.77494
 Alpha  occ. eigenvalues --   -0.72066  -0.71192  -0.70512  -0.65377  -0.65043
 Alpha  occ. eigenvalues --   -0.64803  -0.62199  -0.61116  -0.59541  -0.57784
 Alpha  occ. eigenvalues --   -0.55495  -0.55293  -0.53115  -0.52906  -0.52836
 Alpha  occ. eigenvalues --   -0.52598  -0.50135  -0.48826  -0.48822  -0.48119
 Alpha  occ. eigenvalues --   -0.46868  -0.46072  -0.45995  -0.44826  -0.44008
 Alpha  occ. eigenvalues --   -0.37372  -0.36380
 Alpha virt. eigenvalues --    0.05003   0.11213   0.16459   0.20195   0.22804
 Alpha virt. eigenvalues --    0.24034   0.25324   0.26779   0.27376   0.28144
 Alpha virt. eigenvalues --    0.29134   0.30631   0.31371   0.31571   0.32068

 Mulliken charges:
               1
     1  C   -0.298541
     2  C   -0.299162
     3  C   -0.478097
     4  H    0.152191
     5  H    0.145999
     6  H    0.157992
     7  H    0.141660
     8  H    0.152489
     9  H    0.156041
    10  H    0.169105
    11  C   -0.296981
    12  C   -0.299571
    13  C   -0.475622
    14  H    0.152981
    15  H    0.142452
    16  H    0.153864
    17  H    0.149788
    18  H    0.153438
    19  H    0.157022
    20  H    0.160958
    21  C   -0.170780
    22  C   -0.219546
    23  C   -0.171394
    24  C    0.158284
    25  C   -0.170809
    26  C   -0.218446
    27  H    0.225690
    28  H    0.223299
    29  H    0.279088
    30  H    0.275748
    31  H    0.223612
    32  N    0.487806
    33  O   -0.460192
    34  O   -0.460365
 Sum of Mulliken charges =  -0.00000

 Dipole moment (field-independent basis, Debye):
    X=              1.3525    Y=              4.7280    Z=              1.4326  Tot=              5.1221
 Quadrupole moment (field-independent basis, Debye-Ang):
   XX=            -98.2663   YY=            -93.3633   ZZ=            -96.1398
   XY=            -15.1677   XZ=             -5.9699   YZ=             -0.7670

 Normal termination of Gaussian 16 at Thu May  6 20:27:08 2021.
