 Gaussian 16, Revision A.03,
 Gaussian 16:  EM64L-G16RevA.03 25-Dec-2016

 -------------
 #p 6-31g* mp2
 -------------

 ------------------------------------------------------
 Input file generated by CHIRIPA (05-May-2021 14:53:11)
 ------------------------------------------------------
 Symbolic Z-matrix:
 Charge =  0 Multiplicity = 1

                         Standard orientation:
 ---------------------------------------------------------------------
 Center     Atomic      Atomic             Coordinates (Angstroms)
 Number     Number       Type             X           Y           Z
 ---------------------------------------------------------------------
      1          6           0       -5.521644    0.099352   -0.058726
      2          6           0       -6.163137   -1.045352    0.726211
      3          6           0       -7.666492   -1.165124    0.474474
      4          1           0       -6.016270    1.042594    0.210690
      5          1           0       -5.703670   -0.053745   -1.131490
      6          1           0       -5.978767   -0.890872    1.797079
      7          1           0       -5.666798   -1.985953    0.455038
      8          1           0       -7.866332   -1.343489   -0.587058
      9          1           0       -8.180074   -0.242187    0.762608
     10          1           0       -8.104714   -1.989658    1.045409
     11          6           0       -4.018979    0.231859    0.182458
     12          6           0       -3.377486    1.376563   -0.602478
     13          6           0       -1.874131    1.496335   -0.350742
     14          1           0       -3.836953    0.384955    1.255223
     15          1           0       -3.524353   -0.711383   -0.086957
     16          1           0       -3.873825    2.317163   -0.331305
     17          1           0       -3.561856    1.222083   -1.673346
     18          1           0       -1.360549    0.573398   -0.638876
     19          1           0       -1.674291    1.674700    0.710791
     20          1           0       -1.435909    2.320868   -0.921677
     21          6           0        6.097198   -0.446683    0.755710
     22          6           0        5.380580    0.696995    1.123107
     23          6           0        4.066596    0.883269    0.683450
     24          6           0        3.497645   -0.098703   -0.126066
     25          6           0        4.185724   -1.248943   -0.509192
     26          6           0        5.498538   -1.414296   -0.057832
     27          1           0        7.117477   -0.583258    1.101792
     28          1           0        5.842963    1.450114    1.754819
     29          1           0        3.488957    1.759168    0.952805
     30          1           0        3.697989   -1.982229   -1.139925
     31          1           0        6.052676   -2.303487   -0.344738
     32          7           0        2.107209    0.087422   -0.597705
     33          8           0        1.628596   -0.792438   -1.310034
     34          8           0        1.522326    1.109643   -0.246116
 ---------------------------------------------------------------------

 SCF Done:  E(RHF) =  -669.535993847     A.U. after   15 cycles
 E2 =    -0.2091293334D+01 EUMP2 =    -0.67162728718035D+03

 The electronic state is 1-A.
 Alpha  occ. eigenvalues --  -20.60945 -20.60934 -15.85957 -11.31292 -11.27854
 Alpha  occ. eigenvalues --  -11.27849 -11.27592 -11.26862 -11.26852 -11.20889
 Alpha  occ. eigenvalues --  -11.20498 -11.20488 -11.20246 -11.20126 -11.18989
 Alpha  occ. eigenvalues --   -1.59991  -1.39546  -1.19458  -1.08861  -1.07389
 Alpha  occ. eigenvalues --   -1.04855  -1.02372  -0.95704  -0.94776  -0.86256
 Alpha  occ. eigenvalues --   -0.85780  -0.82532  -0.78476  -0.77587  -0.77143
 Alpha  occ. eigenvalues --   -0.72160  -0.71304  -0.70567  -0.65112  -0.64858
 Alpha  occ. eigenvalues --   -0.64033  -0.62202  -0.59778  -0.58258  -0.56391
 Alpha  occ. eigenvalues --   -0.55363  -0.54074  -0.53187  -0.52947  -0.51465
 Alpha  occ. eigenvalues --   -0.51230  -0.49074  -0.48929  -0.48553  -0.46734
 Alpha  occ. eigenvalues --   -0.45532  -0.44967  -0.44643  -0.44569  -0.42610
 Alpha  occ. eigenvalues --   -0.37438  -0.36457
 Alpha virt. eigenvalues --    0.04941   0.11198   0.16439   0.21336   0.23817
 Alpha virt. eigenvalues --    0.25503   0.27251   0.27640   0.28208   0.28464
 Alpha virt. eigenvalues --    0.29284   0.30905   0.32421   0.32566   0.32706

 Mulliken charges:
               1
     1  C   -0.297104
     2  C   -0.298824
     3  C   -0.475082
     4  H    0.147352
     5  H    0.148396
     6  H    0.150335
     7  H    0.151481
     8  H    0.154482
     9  H    0.153983
    10  H    0.157900
    11  C   -0.297282
    12  C   -0.302455
    13  C   -0.467740
    14  H    0.146405
    15  H    0.150870
    16  H    0.144674
    17  H    0.148496
    18  H    0.171882
    19  H    0.147416
    20  H    0.159127
    21  C   -0.170609
    22  C   -0.218564
    23  C   -0.170877
    24  C    0.158594
    25  C   -0.170688
    26  C   -0.218587
    27  H    0.225961
    28  H    0.223820
    29  H    0.275963
    30  H    0.275763
    31  H    0.223777
    32  N    0.488765
    33  O   -0.460848
    34  O   -0.456781
 Sum of Mulliken charges =  -0.00000

 Dipole moment (field-independent basis, Debye):
    X=              5.3407    Y=             -0.6824    Z=              1.6200  Tot=              5.6226
 Quadrupole moment (field-independent basis, Debye-Ang):
   XX=            -63.9265   YY=            -90.8703   ZZ=            -94.1507
   XY=             -3.2579   XZ=              5.1375   YZ=              2.9557

 Normal termination of Gaussian 16 at Wed May  5 21:40:27 2021.
