 Gaussian 16, Revision A.03,
 Gaussian 16:  EM64L-G16RevA.03 25-Dec-2016

 -------------
 #p 6-31g* mp2
 -------------

 ------------------------------------------------------
 Input file generated by CHIRIPA (05-May-2021 14:51:13)
 ------------------------------------------------------
 Symbolic Z-matrix:
 Charge =  0 Multiplicity = 1

                         Standard orientation:
 ---------------------------------------------------------------------
 Center     Atomic      Atomic             Coordinates (Angstroms)
 Number     Number       Type             X           Y           Z
 ---------------------------------------------------------------------
      1          6           0       -3.491463   -0.483610   -0.112477
      2          6           0       -4.594789   -1.511309    0.141477
      3          6           0       -4.118682   -2.950792   -0.056018
      4          1           0       -3.111297   -0.608472   -1.135623
      5          1           0       -2.647892   -0.687511    0.561472
      6          1           0       -5.436593   -1.304686   -0.531790
      7          1           0       -4.972505   -1.383860    1.164074
      8          1           0       -3.293640   -3.180663    0.625941
      9          1           0       -3.760365   -3.101039   -1.079559
     10          1           0       -4.923232   -3.668930    0.130627
     11          6           0       -3.952072    0.960047    0.080972
     12          6           0       -2.848747    1.987746   -0.172983
     13          6           0       -3.324854    3.427229    0.024513
     14          1           0       -4.795643    1.163947   -0.592977
     15          1           0       -4.332239    1.084908    1.104118
     16          1           0       -2.471030    1.860297   -1.195579
     17          1           0       -2.006943    1.781123    0.500285
     18          1           0       -3.683171    3.577476    1.048053
     19          1           0       -4.149895    3.657100   -0.657446
     20          1           0       -2.520303    4.145367   -0.162132
     21          6           0        4.370248   -0.057163    0.376480
     22          6           0        5.584282    0.001075   -0.551267
     23          6           0        6.874074    0.364487    0.185051
     24          1           0        4.249159    0.915364    0.872943
     25          1           0        4.559575   -0.792252    1.170957
     26          1           0        5.392160    0.734834   -1.344553
     27          1           0        5.702381   -0.971644   -1.045723
     28          1           0        7.092927   -0.371890    0.965085
     29          1           0        6.780943    1.344283    0.664558
     30          1           0        7.729239    0.400502   -0.497045
     31          6           0        3.073288   -0.419274   -0.344974
     32          6           0        1.859253   -0.477511    0.582772
     33          6           0        0.569462   -0.840924   -0.153545
     34          1           0        2.883960    0.315815   -1.139452
     35          1           0        3.194376   -1.391800   -0.841437
     36          1           0        1.741154    0.495207    1.077229
     37          1           0        2.051375   -1.211270    1.376059
     38          1           0        0.662592   -1.820720   -0.633053
     39          1           0        0.350608   -0.104547   -0.933580
     40          1           0       -0.285704   -0.876939    0.528550
 ---------------------------------------------------------------------

 SCF Done:  E(RHF) =  -470.733063207     A.U. after   11 cycles
 E2 =    -0.1582890247D+01 EUMP2 =    -0.47231595345340D+03

 The electronic state is 1-A.
 Alpha  occ. eigenvalues --  -11.21593 -11.21578 -11.21575 -11.21564 -11.21390
 Alpha  occ. eigenvalues --  -11.21363 -11.21330 -11.21292 -11.21065 -11.21062
 Alpha  occ. eigenvalues --  -11.21038 -11.20991  -1.08421  -1.08390  -1.03508
 Alpha  occ. eigenvalues --   -1.03501  -0.95982  -0.95925  -0.86998  -0.86944
 Alpha  occ. eigenvalues --   -0.79593  -0.79553  -0.78256  -0.78171  -0.65052
 Alpha  occ. eigenvalues --   -0.65033  -0.60919  -0.60885  -0.59364  -0.59303
 Alpha  occ. eigenvalues --   -0.57640  -0.57496  -0.55243  -0.55238  -0.52778
 Alpha  occ. eigenvalues --   -0.52608  -0.52399  -0.52297  -0.49898  -0.49890
 Alpha  occ. eigenvalues --   -0.47936  -0.47844  -0.46613  -0.46597  -0.45802
 Alpha  occ. eigenvalues --   -0.45741  -0.45679  -0.45655  -0.43772  -0.43652
 Alpha virt. eigenvalues --    0.21551   0.23094   0.24055   0.24173   0.25946
 Alpha virt. eigenvalues --    0.26266   0.26812   0.27657   0.27978   0.29377
 Alpha virt. eigenvalues --    0.30946   0.31112   0.31770   0.31892   0.32228

 Mulliken charges:
               1
     1  C   -0.302665
     2  C   -0.299292
     3  C   -0.475561
     4  H    0.150544
     5  H    0.154434
     6  H    0.151726
     7  H    0.151477
     8  H    0.154950
     9  H    0.155411
    10  H    0.160014
    11  C   -0.298151
    12  C   -0.300461
    13  C   -0.475724
    14  H    0.149345
    15  H    0.149185
    16  H    0.151845
    17  H    0.153182
    18  H    0.155093
    19  H    0.155178
    20  H    0.159935
    21  C   -0.298192
    22  C   -0.299613
    23  C   -0.475686
    24  H    0.149565
    25  H    0.149442
    26  H    0.151903
    27  H    0.151927
    28  H    0.155155
    29  H    0.155149
    30  H    0.160221
    31  C   -0.298570
    32  C   -0.299725
    33  C   -0.479410
    34  H    0.149514
    35  H    0.149624
    36  H    0.151482
    37  H    0.151468
    38  H    0.154737
    39  H    0.156256
    40  H    0.164286
 Sum of Mulliken charges =  -0.00000

 Dipole moment (field-independent basis, Debye):
    X=             -0.0073    Y=             -0.0065    Z=             -0.0109  Tot=              0.0147
 Quadrupole moment (field-independent basis, Debye-Ang):
   XX=            -85.9082   YY=            -85.0970   ZZ=            -83.9357
   XY=             -0.2279   XZ=             -0.0613   YZ=             -0.4253

 Normal termination of Gaussian 16 at Thu May  6 03:56:37 2021.
