 Gaussian 16, Revision A.03,
 Gaussian 16:  EM64L-G16RevA.03 25-Dec-2016

 -------------
 #p 6-31g* mp2
 -------------

 ------------------------------------------------------
 Input file generated by CHIRIPA (05-May-2021 14:55:19)
 ------------------------------------------------------
 Symbolic Z-matrix:
 Charge =  0 Multiplicity = 1

                         Standard orientation:
 ---------------------------------------------------------------------
 Center     Atomic      Atomic             Coordinates (Angstroms)
 Number     Number       Type             X           Y           Z
 ---------------------------------------------------------------------
      1          6           0        0.400594   -1.600782    1.224752
      2          6           0        0.517687   -0.229374    1.473854
      3          6           0        1.567090    0.506597    0.915601
      4          6           0        2.485681   -0.163873    0.109406
      5          6           0        2.396015   -1.529170   -0.157457
      6          6           0        1.338478   -2.245166    0.411325
      7          1           0       -0.417767   -2.164744    1.662505
      8          1           0       -0.209221    0.273695    2.105180
      9          1           0        1.681561    1.569239    1.091970
     10          1           0        3.136076   -2.002924   -0.790927
     11          1           0        1.250039   -3.310120    0.216141
     12          7           0        3.600943    0.604693   -0.487164
     13          8           0        4.397184   -0.009404   -1.193933
     14          8           0        3.657726    1.806640   -0.236692
     15          6           0       -2.679137   -0.342389   -0.308365
     16          6           0       -3.776039   -1.389633   -0.503479
     17          6           0       -3.225690   -2.813713   -0.586598
     18          1           0       -1.962562   -0.412233   -1.138177
     19          1           0       -2.119394   -0.574244    0.608327
     20          1           0       -4.334430   -1.155081   -1.418793
     21          1           0       -4.490190   -1.317159    0.326793
     22          1           0       -2.685464   -3.072046    0.329929
     23          1           0       -2.528819   -2.909048   -1.425575
     24          1           0       -4.026835   -3.546220   -0.726097
     25          6           0       -3.213657    1.086177   -0.223419
     26          6           0       -2.116755    2.133422   -0.028305
     27          6           0       -2.667104    3.557502    0.054813
     28          1           0       -3.773400    1.318032   -1.140112
     29          1           0       -3.930232    1.156022    0.606393
     30          1           0       -1.402604    2.060947   -0.858577
     31          1           0       -1.558364    1.898870    0.887009
     32          1           0       -3.363974    3.652836    0.893791
     33          1           0       -3.207330    3.815835   -0.861713
     34          1           0       -1.865958    4.290009    0.194313
 ---------------------------------------------------------------------

 SCF Done:  E(RHF) =  -669.532378989     A.U. after   15 cycles
 E2 =    -0.2095356644D+01 EUMP2 =    -0.67162773563293D+03

 The electronic state is 1-A.
 Alpha  occ. eigenvalues --  -20.60740 -20.60734 -15.85794 -11.31145 -11.27722
 Alpha  occ. eigenvalues --  -11.27703 -11.27446 -11.26729 -11.26701 -11.22301
 Alpha  occ. eigenvalues --  -11.22210 -11.22011 -11.21961 -11.21951 -11.21509
 Alpha  occ. eigenvalues --   -1.59817  -1.39370  -1.19330  -1.09123  -1.08707
 Alpha  occ. eigenvalues --   -1.04736  -1.04195  -0.96639  -0.95568  -0.87657
 Alpha  occ. eigenvalues --   -0.86151  -0.82411  -0.80259  -0.78950  -0.77424
 Alpha  occ. eigenvalues --   -0.72015  -0.71141  -0.70468  -0.65846  -0.64987
 Alpha  occ. eigenvalues --   -0.64672  -0.62113  -0.61585  -0.60002  -0.58256
 Alpha  occ. eigenvalues --   -0.55952  -0.55247  -0.53421  -0.53170  -0.52944
 Alpha  occ. eigenvalues --   -0.52826  -0.50598  -0.48777  -0.48768  -0.48579
 Alpha  occ. eigenvalues --   -0.47301  -0.46426  -0.46346  -0.44779  -0.44424
 Alpha  occ. eigenvalues --   -0.37178  -0.36256
 Alpha virt. eigenvalues --    0.05051   0.11206   0.16374   0.19322   0.22562
 Alpha virt. eigenvalues --    0.23125   0.25605   0.26168   0.26671   0.27833
 Alpha virt. eigenvalues --    0.29537   0.30636   0.31192   0.31537   0.32181

 Mulliken charges:
               1
     1  C   -0.168153
     2  C   -0.214236
     3  C   -0.171178
     4  C    0.157395
     5  C   -0.171293
     6  C   -0.220575
     7  H    0.226602
     8  H    0.223256
     9  H    0.275455
    10  H    0.275372
    11  H    0.223623
    12  N    0.488103
    13  O   -0.460722
    14  O   -0.460590
    15  C   -0.296778
    16  C   -0.300309
    17  C   -0.475202
    18  H    0.154800
    19  H    0.141542
    20  H    0.155442
    21  H    0.151601
    22  H    0.144005
    23  H    0.157932
    24  H    0.163872
    25  C   -0.299359
    26  C   -0.299702
    27  C   -0.476258
    28  H    0.152718
    29  H    0.148364
    30  H    0.157890
    31  H    0.140879
    32  H    0.154487
    33  H    0.158108
    34  H    0.162913
 Sum of Mulliken charges =  -0.00000

 Dipole moment (field-independent basis, Debye):
    X=             -4.0017    Y=             -2.6576    Z=              1.9552  Tot=              5.1864
 Quadrupole moment (field-independent basis, Debye-Ang):
   XX=           -114.4679   YY=            -91.6669   ZZ=            -92.9412
   XY=             -7.5847   XZ=              4.2617   YZ=              1.2544

 Normal termination of Gaussian 16 at Thu May  6 17:23:00 2021.
