 Gaussian 16, Revision A.03,
 Gaussian 16:  EM64L-G16RevA.03 25-Dec-2016

 -------------
 #p 6-31g* mp2
 -------------

 ------------------------------------------------------
 Input file generated by CHIRIPA (05-May-2021 14:57:27)
 ------------------------------------------------------
 Symbolic Z-matrix:
 Charge =  0 Multiplicity = 1

                         Standard orientation:
 ---------------------------------------------------------------------
 Center     Atomic      Atomic             Coordinates (Angstroms)
 Number     Number       Type             X           Y           Z
 ---------------------------------------------------------------------
      1          6           0        4.910407    1.311233    1.101999
      2          6           0        5.175720    0.038940    0.584891
      3          6           0        4.212640   -0.634784   -0.172156
      4          6           0        2.989490   -0.003812   -0.393670
      5          6           0        2.695212    1.263059    0.108056
      6          6           0        3.673181    1.918162    0.862353
      7          1           0        5.664334    1.827366    1.689023
      8          1           0        6.135685   -0.434838    0.769407
      9          1           0        4.391618   -1.620409   -0.584380
     10          1           0        1.728984    1.709739   -0.092691
     11          1           0        3.464366    2.906172    1.262700
     12          7           0        1.962040   -0.707197   -1.193667
     13          8           0        0.892284   -0.129691   -1.374627
     14          8           0        2.245934   -1.822697   -1.624595
     15          6           0       -4.382459    1.549245   -1.190256
     16          6           0       -4.575454    1.554874    0.195111
     17          6           0       -3.902735    0.638962    1.009421
     18          6           0       -3.040530   -0.272729    0.402202
     19          6           0       -2.827225   -0.303393   -0.975060
     20          6           0       -3.510498    0.621765   -1.769898
     21          1           0       -4.909143    2.264339   -1.815269
     22          1           0       -5.252025    2.274022    0.648016
     23          1           0       -4.033597    0.621211    2.084585
     24          1           0       -2.146399   -1.032342   -1.397585
     25          1           0       -3.358671    0.615076   -2.845513
     26          7           0       -2.322766   -1.247258    1.253969
     27          8           0       -1.568555   -2.040273    0.694567
     28          8           0       -2.527983   -1.199626    2.464860
 ---------------------------------------------------------------------

 SCF Done:  E(RHF) =  -868.338838587     A.U. after   16 cycles
 E2 =    -0.2599308595D+01 EUMP2 =    -0.87093814718196D+03

 The electronic state is 1-A.
 Alpha  occ. eigenvalues --  -20.60601 -20.60574 -20.59929 -20.59867 -15.85632
 Alpha  occ. eigenvalues --  -15.84949 -11.30954 -11.30261 -11.27539 -11.27507
 Alpha  occ. eigenvalues --  -11.27274 -11.26965 -11.26702 -11.26694 -11.26550
 Alpha  occ. eigenvalues --  -11.26528 -11.25976 -11.25813  -1.59633  -1.58983
 Alpha  occ. eigenvalues --   -1.39198  -1.38529  -1.19123  -1.18473  -1.08528
 Alpha  occ. eigenvalues --   -1.07898  -1.04529  -1.03859  -0.95375  -0.94722
 Alpha  occ. eigenvalues --   -0.85931  -0.85267  -0.82218  -0.81547  -0.77262
 Alpha  occ. eigenvalues --   -0.76573  -0.71886  -0.71181  -0.70918  -0.70300
 Alpha  occ. eigenvalues --   -0.70248  -0.69592  -0.64790  -0.64545  -0.64130
 Alpha  occ. eigenvalues --   -0.63876  -0.61884  -0.61178  -0.55044  -0.54423
 Alpha  occ. eigenvalues --   -0.52847  -0.52632  -0.52218  -0.51950  -0.48635
 Alpha  occ. eigenvalues --   -0.48599  -0.47955  -0.47903  -0.44632  -0.43920
 Alpha  occ. eigenvalues --   -0.37098  -0.36507  -0.36126  -0.35451
 Alpha virt. eigenvalues --    0.05281   0.05946   0.11530   0.12187   0.16783
 Alpha virt. eigenvalues --    0.17402   0.21620   0.22272   0.27525   0.28182
 Alpha virt. eigenvalues --    0.28515   0.29242   0.31162   0.31764   0.32727

 Mulliken charges:
               1
     1  C   -0.170501
     2  C   -0.218377
     3  C   -0.169607
     4  C    0.160640
     5  C   -0.169788
     6  C   -0.218172
     7  H    0.224982
     8  H    0.223254
     9  H    0.276207
    10  H    0.273375
    11  H    0.222246
    12  N    0.492811
    13  O   -0.468537
    14  O   -0.456898
    15  C   -0.171603
    16  C   -0.220553
    17  C   -0.172927
    18  C    0.153381
    19  C   -0.162221
    20  C   -0.221201
    21  H    0.221883
    22  H    0.218843
    23  H    0.271653
    24  H    0.291278
    25  H    0.224124
    26  N    0.487198
    27  O   -0.453399
    28  O   -0.468090
 Sum of Mulliken charges =  -0.00000

 Dipole moment (field-independent basis, Debye):
    X=              1.3966    Y=              5.6883    Z=             -0.3611  Tot=              5.8684
 Quadrupole moment (field-independent basis, Debye-Ang):
   XX=            -66.9946   YY=           -103.9378   ZZ=           -107.4087
   XY=             -5.9158   XZ=             13.4764   YZ=              3.8085

 Normal termination of Gaussian 16 at Fri May  7 06:39:04 2021.
