 Gaussian 16, Revision A.03,
 Gaussian 16:  EM64L-G16RevA.03 25-Dec-2016

 -------------
 #p 6-31g* mp2
 -------------

 ------------------------------------------------------
 Input file generated by CHIRIPA (05-May-2021 14:55:25)
 ------------------------------------------------------
 Symbolic Z-matrix:
 Charge =  0 Multiplicity = 1

                         Standard orientation:
 ---------------------------------------------------------------------
 Center     Atomic      Atomic             Coordinates (Angstroms)
 Number     Number       Type             X           Y           Z
 ---------------------------------------------------------------------
      1          6           0       -2.594380    2.133398   -1.095474
      2          6           0       -3.805246    1.456698   -0.915470
      3          6           0       -3.826998    0.178623   -0.349256
      4          6           0       -2.613779   -0.395516    0.027249
      5          6           0       -1.391181    0.253217   -0.139146
      6          6           0       -1.393329    1.530561   -0.707422
      7          1           0       -2.586766    3.125954   -1.536123
      8          1           0       -4.739532    1.922421   -1.215901
      9          1           0       -4.750130   -0.367738   -0.198479
     10          1           0       -0.475998   -0.236847    0.170202
     11          1           0       -0.451458    2.053738   -0.846017
     12          7           0       -2.624156   -1.748170    0.627765
     13          8           0       -1.541666   -2.232197    0.951139
     14          8           0       -3.714582   -2.298740    0.763706
     15          6           0        3.803467   -0.183951   -0.364161
     16          6           0        3.597391   -1.694482   -0.246630
     17          6           0        4.524893   -2.490868   -1.164945
     18          1           0        3.640649    0.121889   -1.406705
     19          1           0        4.849411    0.055880   -0.127776
     20          1           0        2.551807   -1.931240   -0.481820
     21          1           0        3.760532   -1.996733    0.795793
     22          1           0        5.573287   -2.283805   -0.927048
     23          1           0        4.357695   -2.217941   -2.211919
     24          1           0        4.360697   -3.568309   -1.064834
     25          6           0        2.883430    0.625761    0.547775
     26          6           0        3.089507    2.136293    0.430242
     27          6           0        2.162005    2.932679    1.348557
     28          1           0        1.837487    0.385931    0.311389
     29          1           0        3.046249    0.319922    1.590318
     30          1           0        2.926367    2.438543   -0.612181
     31          1           0        4.135092    2.373050    0.665432
     32          1           0        2.329204    2.659750    2.395532
     33          1           0        1.113611    2.725616    1.110661
     34          1           0        2.326201    4.010120    1.248447
 ---------------------------------------------------------------------

 SCF Done:  E(RHF) =  -669.535265512     A.U. after   15 cycles
 E2 =    -0.2092418894D+01 EUMP2 =    -0.67162768440659D+03

 The electronic state is 1-A.
 Alpha  occ. eigenvalues --  -20.60766 -20.60760 -15.85817 -11.31184 -11.27766
 Alpha  occ. eigenvalues --  -11.27748 -11.27509 -11.26777 -11.26762 -11.22273
 Alpha  occ. eigenvalues --  -11.22015 -11.21780 -11.21732 -11.21650 -11.21084
 Alpha  occ. eigenvalues --   -1.59840  -1.39393  -1.19365  -1.08885  -1.08757
 Alpha  occ. eigenvalues --   -1.04774  -1.03915  -0.96384  -0.95592  -0.87397
 Alpha  occ. eigenvalues --   -0.86167  -0.82431  -0.79999  -0.78662  -0.77465
 Alpha  occ. eigenvalues --   -0.72037  -0.71162  -0.70483  -0.65570  -0.65010
 Alpha  occ. eigenvalues --   -0.64792  -0.62164  -0.61263  -0.59760  -0.57967
 Alpha  occ. eigenvalues --   -0.55716  -0.55273  -0.53106  -0.53060  -0.52955
 Alpha  occ. eigenvalues --   -0.52669  -0.50329  -0.48797  -0.48791  -0.48291
 Alpha  occ. eigenvalues --   -0.47057  -0.46179  -0.46094  -0.44798  -0.44183
 Alpha  occ. eigenvalues --   -0.37343  -0.36366
 Alpha virt. eigenvalues --    0.05051   0.11245   0.16447   0.18663   0.23100
 Alpha virt. eigenvalues --    0.23444   0.24523   0.26458   0.27270   0.28314
 Alpha virt. eigenvalues --    0.29529   0.30884   0.31271   0.31709   0.32183

 Mulliken charges:
               1
     1  C   -0.170971
     2  C   -0.218924
     3  C   -0.170033
     4  C    0.161127
     5  C   -0.181796
     6  C   -0.223859
     7  H    0.225948
     8  H    0.223578
     9  H    0.275698
    10  H    0.285361
    11  H    0.227012
    12  N    0.487834
    13  O   -0.460213
    14  O   -0.460451
    15  C   -0.298347
    16  C   -0.301287
    17  C   -0.476223
    18  H    0.147929
    19  H    0.151430
    20  H    0.155932
    21  H    0.155445
    22  H    0.154610
    23  H    0.154170
    24  H    0.164057
    25  C   -0.302621
    26  C   -0.301108
    27  C   -0.479057
    28  H    0.141916
    29  H    0.156419
    30  H    0.147773
    31  H    0.156731
    32  H    0.161166
    33  H    0.149079
    34  H    0.161677
 Sum of Mulliken charges =  -0.00000

 Dipole moment (field-independent basis, Debye):
    X=              0.1726    Y=              4.6826    Z=             -2.0466  Tot=              5.1132
 Quadrupole moment (field-independent basis, Debye-Ang):
   XX=            -89.0874   YY=            -99.5500   ZZ=            -95.3742
   XY=            -12.2097   XZ=              7.3195   YZ=              0.5389

 Normal termination of Gaussian 16 at Thu May  6 17:44:44 2021.
