 Gaussian 16, Revision A.03,
 Gaussian 16:  EM64L-G16RevA.03 25-Dec-2016

 -------------
 #p 6-31g* mp2
 -------------

 ------------------------------------------------------
 Input file generated by CHIRIPA (05-May-2021 14:53:15)
 ------------------------------------------------------
 Symbolic Z-matrix:
 Charge =  0 Multiplicity = 1

                         Standard orientation:
 ---------------------------------------------------------------------
 Center     Atomic      Atomic             Coordinates (Angstroms)
 Number     Number       Type             X           Y           Z
 ---------------------------------------------------------------------
      1          6           0       -2.332933    0.899321   -0.243971
      2          6           0       -2.999985    2.216133    0.154819
      3          6           0       -2.074549    3.421796   -0.011733
      4          1           0       -1.428271    0.755509    0.362536
      5          1           0       -2.001036    0.966326   -1.289317
      6          1           0       -3.331760    2.146165    1.198680
      7          1           0       -3.903268    2.356732   -0.452574
      8          1           0       -1.753236    3.519765   -1.053731
      9          1           0       -1.178480    3.308001    0.606905
     10          1           0       -2.571553    4.352568    0.278975
     11          6           0       -3.245523   -0.315172   -0.082990
     12          6           0       -2.578471   -1.631984   -0.481780
     13          6           0       -3.503907   -2.837647   -0.315228
     14          1           0       -3.577420   -0.382177    0.962357
     15          1           0       -4.150185   -0.171360   -0.689497
     16          1           0       -1.675188   -1.772584    0.125613
     17          1           0       -2.246696   -1.562016   -1.525641
     18          1           0       -4.399976   -2.723852   -0.933866
     19          1           0       -3.825220   -2.935616    0.726771
     20          1           0       -3.006903   -3.768419   -0.605936
     21          6           0        2.744920    2.208443   -0.201838
     22          6           0        1.788827    1.834104    0.748046
     23          6           0        1.467388    0.486996    0.939155
     24          6           0        2.124381   -0.463747    0.159579
     25          6           0        3.081440   -0.122336   -0.794761
     26          6           0        3.387043    1.230752   -0.968857
     27          1           0        2.988471    3.257232   -0.343687
     28          1           0        1.288553    2.591232    1.345145
     29          1           0        0.731166    0.169355    1.667509
     30          1           0        3.563347   -0.899840   -1.374997
     31          1           0        4.129971    1.518550   -1.707284
     32          7           0        1.792471   -1.893035    0.352892
     33          8           0        2.385460   -2.711425   -0.346565
     34          8           0        0.945614   -2.167859    1.200207
 ---------------------------------------------------------------------

 SCF Done:  E(RHF) =  -669.535561761     A.U. after   15 cycles
 E2 =    -0.2093980100D+01 EUMP2 =    -0.67162954186101D+03

 The electronic state is 1-A.
 Alpha  occ. eigenvalues --  -20.60965 -20.60959 -15.85977 -11.31274 -11.27847
 Alpha  occ. eigenvalues --  -11.27838 -11.27565 -11.26840 -11.26830 -11.21816
 Alpha  occ. eigenvalues --  -11.21563 -11.21382 -11.21078 -11.20856 -11.20378
 Alpha  occ. eigenvalues --   -1.60011  -1.39571  -1.19448  -1.08849  -1.08290
 Alpha  occ. eigenvalues --   -1.04848  -1.03342  -0.95843  -0.95697  -0.86870
 Alpha  occ. eigenvalues --   -0.86241  -0.82542  -0.79468  -0.78061  -0.77560
 Alpha  occ. eigenvalues --   -0.72207  -0.71314  -0.70562  -0.65107  -0.64958
 Alpha  occ. eigenvalues --   -0.64852  -0.62203  -0.60733  -0.59258  -0.57406
 Alpha  occ. eigenvalues --   -0.55345  -0.55180  -0.53181  -0.52962  -0.52522
 Alpha  occ. eigenvalues --   -0.52230  -0.49815  -0.48978  -0.48961  -0.47763
 Alpha  occ. eigenvalues --   -0.46527  -0.45750  -0.45511  -0.44659  -0.43592
 Alpha  occ. eigenvalues --   -0.37408  -0.36375
 Alpha virt. eigenvalues --    0.04871   0.11098   0.16248   0.20039   0.23195
 Alpha virt. eigenvalues --    0.24206   0.25672   0.26564   0.27257   0.28543
 Alpha virt. eigenvalues --    0.29477   0.30549   0.31636   0.32153   0.32456

 Mulliken charges:
               1
     1  C   -0.300219
     2  C   -0.299727
     3  C   -0.474809
     4  H    0.146041
     5  H    0.149762
     6  H    0.151534
     7  H    0.154120
     8  H    0.156412
     9  H    0.144366
    10  H    0.160720
    11  C   -0.297557
    12  C   -0.311201
    13  C   -0.474749
    14  H    0.148678
    15  H    0.147889
    16  H    0.171887
    17  H    0.148021
    18  H    0.150371
    19  H    0.154800
    20  H    0.165031
    21  C   -0.170819
    22  C   -0.217058
    23  C   -0.169370
    24  C    0.158427
    25  C   -0.170808
    26  C   -0.218444
    27  H    0.226438
    28  H    0.225317
    29  H    0.274764
    30  H    0.275750
    31  H    0.223786
    32  N    0.488608
    33  O   -0.458160
    34  O   -0.459801
 Sum of Mulliken charges =  -0.00000

 Dipole moment (field-independent basis, Debye):
    X=              1.3285    Y=              4.8993    Z=             -0.6989  Tot=              5.1241
 Quadrupole moment (field-independent basis, Debye-Ang):
   XX=            -88.3866   YY=           -100.6043   ZZ=            -92.0400
   XY=              8.8583   XZ=             -3.7770   YZ=              1.9055

 Normal termination of Gaussian 16 at Thu May  6 10:35:11 2021.
