 Gaussian 16, Revision A.03,
 Gaussian 16:  EM64L-G16RevA.03 25-Dec-2016

 -------------
 #p 6-31g* mp2
 -------------

 ------------------------------------------------------
 Input file generated by CHIRIPA (05-May-2021 14:57:22)
 ------------------------------------------------------
 Symbolic Z-matrix:
 Charge =  0 Multiplicity = 1

                         Standard orientation:
 ---------------------------------------------------------------------
 Center     Atomic      Atomic             Coordinates (Angstroms)
 Number     Number       Type             X           Y           Z
 ---------------------------------------------------------------------
      1          6           0        2.286528    1.564205    0.336977
      2          6           0        3.515191    2.065282   -0.105549
      3          6           0        4.609237    1.212164   -0.278187
      4          6           0        4.438503   -0.142630    0.002301
      5          6           0        3.227169   -0.672073    0.444623
      6          6           0        2.146685    0.199532    0.610169
      7          1           0        1.441915    2.234108    0.468332
      8          1           0        3.626700    3.124655   -0.318481
      9          1           0        5.571733    1.573427   -0.619520
     10          1           0        3.146617   -1.732848    0.648795
     11          1           0        1.193674   -0.192405    0.953971
     12          7           0        5.589542   -1.055573   -0.176709
     13          8           0        5.413287   -2.245147    0.077229
     14          8           0        6.646186   -0.564278   -0.567567
     15          6           0       -2.810001    2.061813    0.079306
     16          6           0       -4.186049    2.177040   -0.143703
     17          6           0       -4.992946    1.037111   -0.207172
     18          6           0       -4.387896   -0.207920   -0.042545
     19          6           0       -3.019845   -0.355408    0.181003
     20          6           0       -2.232309    0.798184    0.240663
     21          1           0       -2.190704    2.952644    0.127131
     22          1           0       -4.637419    3.157100   -0.269372
     23          1           0       -6.060832    1.097477   -0.378619
     24          1           0       -2.598628   -1.345978    0.302511
     25          1           0       -1.163923    0.705675    0.413981
     26          7           0       -5.231873   -1.421944   -0.107721
     27          8           0       -4.674567   -2.507338    0.040493
     28          8           0       -6.434708   -1.265115   -0.305785
 ---------------------------------------------------------------------

 SCF Done:  E(RHF) =  -868.335945802     A.U. after   16 cycles
 E2 =    -0.2599997695D+01 EUMP2 =    -0.87093594349713D+03

 The electronic state is 1-A.
 Alpha  occ. eigenvalues --  -20.61306 -20.61300 -20.61252 -20.61247 -15.86368
 Alpha  occ. eigenvalues --  -15.86313 -11.31891 -11.31854 -11.28539 -11.28469
 Alpha  occ. eigenvalues --  -11.28454 -11.28430 -11.28356 -11.28334 -11.27687
 Alpha  occ. eigenvalues --  -11.27632 -11.27506 -11.27502  -1.60378  -1.60324
 Alpha  occ. eigenvalues --   -1.39927  -1.39872  -1.20099  -1.20066  -1.09481
 Alpha  occ. eigenvalues --   -1.09450  -1.05544  -1.05492  -0.96278  -0.96249
 Alpha  occ. eigenvalues --   -0.86985  -0.86870  -0.83118  -0.83071  -0.78152
 Alpha  occ. eigenvalues --   -0.78045  -0.72584  -0.72530  -0.71703  -0.71648
 Alpha  occ. eigenvalues --   -0.71268  -0.71201  -0.65842  -0.65765  -0.65707
 Alpha  occ. eigenvalues --   -0.65345  -0.62992  -0.62726  -0.56101  -0.56052
 Alpha  occ. eigenvalues --   -0.53844  -0.53831  -0.53755  -0.53485  -0.49359
 Alpha  occ. eigenvalues --   -0.49327  -0.49302  -0.49270  -0.45298  -0.45238
 Alpha  occ. eigenvalues --   -0.38108  -0.38076  -0.37135  -0.37081
 Alpha virt. eigenvalues --    0.04438   0.04474   0.10456   0.10563   0.15878
 Alpha virt. eigenvalues --    0.15907   0.17098   0.22200   0.24317   0.25344
 Alpha virt. eigenvalues --    0.27885   0.29037   0.29995   0.30868   0.32232

 Mulliken charges:
               1
     1  C   -0.170042
     2  C   -0.217810
     3  C   -0.169612
     4  C    0.159434
     5  C   -0.168999
     6  C   -0.220627
     7  H    0.217051
     8  H    0.224824
     9  H    0.278138
    10  H    0.278827
    11  H    0.218304
    12  N    0.487858
    13  O   -0.458042
    14  O   -0.458504
    15  C   -0.171018
    16  C   -0.217924
    17  C   -0.169595
    18  C    0.159371
    19  C   -0.170829
    20  C   -0.220297
    21  H    0.222185
    22  H    0.225696
    23  H    0.278237
    24  H    0.275852
    25  H    0.216631
    26  N    0.488049
    27  O   -0.458937
    28  O   -0.458220
 Sum of Mulliken charges =  -0.00000

 Dipole moment (field-independent basis, Debye):
    X=             -1.0622    Y=              7.4257    Z=              0.7888  Tot=              7.5427
 Quadrupole moment (field-independent basis, Debye-Ang):
   XX=           -160.2192   YY=           -103.3932   ZZ=           -105.9998
   XY=             -4.8136   XZ=              1.4545   YZ=             -2.2663

 Normal termination of Gaussian 16 at Fri May  7 01:43:56 2021.
