 Gaussian 16, Revision A.03,
 Gaussian 16:  EM64L-G16RevA.03 25-Dec-2016

 -------------
 #p 6-31g* mp2
 -------------

 ------------------------------------------------------
 Input file generated by CHIRIPA (05-May-2021 14:53:17)
 ------------------------------------------------------
 Symbolic Z-matrix:
 Charge =  0 Multiplicity = 1

                         Standard orientation:
 ---------------------------------------------------------------------
 Center     Atomic      Atomic             Coordinates (Angstroms)
 Number     Number       Type             X           Y           Z
 ---------------------------------------------------------------------
      1          6           0        3.983979   -0.711899    0.081364
      2          6           0        2.881627   -1.629468   -0.448610
      3          6           0        3.063770   -3.084158   -0.014449
      4          1           0        4.958368   -1.080787   -0.267107
      5          1           0        4.002536   -0.768473    1.178565
      6          1           0        2.864243   -1.570123   -1.544416
      7          1           0        1.909733   -1.258243   -0.098996
      8          1           0        3.059413   -3.163730    1.077453
      9          1           0        4.019347   -3.477381   -0.376180
     10          1           0        2.264804   -3.722526   -0.404320
     11          6           0        3.815721    0.745594   -0.344233
     12          6           0        4.918072    1.663163    0.185741
     13          6           0        4.735929    3.117853   -0.248420
     14          1           0        3.797164    0.802168   -1.441434
     15          1           0        2.841331    1.114481    0.004238
     16          1           0        5.889966    1.291938   -0.163874
     17          1           0        4.935456    1.603818    1.281547
     18          1           0        3.780352    3.511076    0.113311
     19          1           0        4.740286    3.197425   -1.340322
     20          1           0        5.534896    3.756221    0.141451
     21          6           0       -5.238522    1.041745   -0.567589
     22          6           0       -4.759592    1.192126    0.737989
     23          6           0       -3.546448    0.612008    1.120471
     24          6           0       -2.834866   -0.115146    0.167483
     25          6           0       -3.285586   -0.282879   -1.140954
     26          6           0       -4.501290    0.306019   -1.501248
     27          1           0       -6.181916    1.495804   -0.856091
     28          1           0       -5.330014    1.762958    1.465185
     29          1           0       -3.152339    0.712631    2.124449
     30          1           0       -2.694605   -0.857630   -1.843677
     31          1           0       -4.870786    0.187574   -2.515884
     32          7           0       -1.549209   -0.733939    0.560655
     33          8           0       -0.941180   -1.369736   -0.297658
     34          8           0       -1.173886   -0.571435    1.719689
 ---------------------------------------------------------------------

 SCF Done:  E(RHF) =  -669.536475642     A.U. after   15 cycles
 E2 =    -0.2091134643D+01 EUMP2 =    -0.67162761028531D+03

 The electronic state is 1-A.
 Alpha  occ. eigenvalues --  -20.61053 -20.61028 -15.86055 -11.31348 -11.27904
 Alpha  occ. eigenvalues --  -11.27900 -11.27636 -11.26903 -11.26893 -11.20820
 Alpha  occ. eigenvalues --  -11.20469 -11.20379 -11.20126 -11.19851 -11.19590
 Alpha  occ. eigenvalues --   -1.60094  -1.39650  -1.19511  -1.08922  -1.07291
 Alpha  occ. eigenvalues --   -1.04901  -1.02362  -0.95768  -0.94872  -0.86303
 Alpha  occ. eigenvalues --   -0.85901  -0.82602  -0.78475  -0.77660  -0.77028
 Alpha  occ. eigenvalues --   -0.72268  -0.71403  -0.70619  -0.65165  -0.64904
 Alpha  occ. eigenvalues --   -0.63923  -0.62248  -0.59755  -0.58279  -0.56443
 Alpha  occ. eigenvalues --   -0.55407  -0.54180  -0.53235  -0.52992  -0.51583
 Alpha  occ. eigenvalues --   -0.51295  -0.49117  -0.49033  -0.48811  -0.46773
 Alpha  occ. eigenvalues --   -0.45511  -0.45094  -0.44586  -0.44341  -0.42631
 Alpha  occ. eigenvalues --   -0.37487  -0.36500
 Alpha virt. eigenvalues --    0.04852   0.11156   0.16357   0.21296   0.23929
 Alpha virt. eigenvalues --    0.25483   0.27216   0.27766   0.28170   0.28696
 Alpha virt. eigenvalues --    0.29053   0.30863   0.32388   0.32499   0.32846

 Mulliken charges:
               1
     1  C   -0.297650
     2  C   -0.308133
     3  C   -0.473728
     4  H    0.143651
     5  H    0.149133
     6  H    0.143970
     7  H    0.180617
     8  H    0.154393
     9  H    0.146301
    10  H    0.162387
    11  C   -0.297427
    12  C   -0.298736
    13  C   -0.474951
    14  H    0.146152
    15  H    0.151789
    16  H    0.149930
    17  H    0.151671
    18  H    0.154055
    19  H    0.153274
    20  H    0.157571
    21  C   -0.170437
    22  C   -0.218596
    23  C   -0.170696
    24  C    0.158104
    25  C   -0.170631
    26  C   -0.218564
    27  H    0.226212
    28  H    0.223995
    29  H    0.275867
    30  H    0.276119
    31  H    0.224063
    32  N    0.488343
    33  O   -0.458457
    34  O   -0.459595
 Sum of Mulliken charges =  -0.00000

 Dipole moment (field-independent basis, Debye):
    X=             -4.9561    Y=              2.1582    Z=             -1.3249  Tot=              5.5656
 Quadrupole moment (field-independent basis, Debye-Ang):
   XX=            -70.7398   YY=            -97.0174   ZZ=            -90.4491
   XY=             -6.1626   XZ=              2.5119   YZ=              2.8730

 Normal termination of Gaussian 16 at Thu May  6 06:00:10 2021.
