 Gaussian 16, Revision A.03,
 Gaussian 16:  EM64L-G16RevA.03 25-Dec-2016

 -------------
 #p 6-31g* mp2
 -------------

 ------------------------------------------------------
 Input file generated by CHIRIPA (05-May-2021 14:51:10)
 ------------------------------------------------------
 Symbolic Z-matrix:
 Charge =  0 Multiplicity = 1

                         Standard orientation:
 ---------------------------------------------------------------------
 Center     Atomic      Atomic             Coordinates (Angstroms)
 Number     Number       Type             X           Y           Z
 ---------------------------------------------------------------------
      1          6           0       -2.471716    1.024209    0.249700
      2          6           0       -1.784611    2.319183   -0.184944
      3          6           0       -1.580210    3.297194    0.972428
      4          1           0       -3.442748    1.266131    0.703039
      5          1           0       -1.871117    0.544297    1.034786
      6          1           0       -2.385617    2.795805   -0.969953
      7          1           0       -0.815186    2.074137   -0.637475
      8          1           0       -0.961837    2.844788    1.754442
      9          1           0       -2.541191    3.570557    1.420075
     10          1           0       -1.087487    4.215977    0.639380
     11          6           0       -2.683039    0.036384   -0.896281
     12          6           0       -3.370144   -1.258590   -0.461637
     13          6           0       -3.574546   -2.236600   -1.619009
     14          1           0       -3.283638    0.516297   -1.681367
     15          1           0       -1.712007   -0.205537   -1.349620
     16          1           0       -4.339569   -1.013544   -0.009106
     17          1           0       -2.769138   -1.735212    0.323372
     18          1           0       -2.613564   -2.509963   -2.066656
     19          1           0       -4.192918   -1.784195   -2.401023
     20          1           0       -4.067269   -3.155384   -1.285962
     21          6           0        2.933098    0.065635    0.004293
     22          6           0        4.004323   -0.338997   -1.008987
     23          6           0        4.707067    0.864156   -1.638564
     24          1           0        2.191702    0.706847   -0.491816
     25          1           0        3.395767    0.675163    0.792841
     26          1           0        3.540033   -0.948737   -1.794651
     27          1           0        4.743152   -0.979477   -0.510455
     28          1           0        5.196155    1.470553   -0.869359
     29          1           0        3.986199    1.501468   -2.160852
     30          1           0        5.468865    0.552018   -2.359739
     31          6           0        2.221657   -1.126229    0.642288
     32          6           0        1.150432   -0.721596    1.655568
     33          6           0        0.447688   -1.924750    2.285145
     34          1           0        1.758988   -1.735756   -0.146260
     35          1           0        2.963053   -1.767440    1.138398
     36          1           0        0.411603   -0.081117    1.157036
     37          1           0        1.614723   -0.111856    2.441232
     38          1           0        1.168555   -2.562062    2.807433
     39          1           0       -0.041400   -2.531147    1.515941
     40          1           0       -0.314111   -1.612611    3.006320
 ---------------------------------------------------------------------

 SCF Done:  E(RHF) =  -470.733308494     A.U. after   11 cycles
 E2 =    -0.1583944370D+01 EUMP2 =    -0.47231725286402D+03

 The electronic state is 1-A.
 Alpha  occ. eigenvalues --  -11.21669 -11.21646 -11.21633 -11.21613 -11.21472
 Alpha  occ. eigenvalues --  -11.21424 -11.21412 -11.21355 -11.21165 -11.21101
 Alpha  occ. eigenvalues --  -11.21092 -11.21070  -1.08516  -1.08436  -1.03598
 Alpha  occ. eigenvalues --   -1.03545  -0.96047  -0.95991  -0.87061  -0.87008
 Alpha  occ. eigenvalues --   -0.79684  -0.79587  -0.78338  -0.78242  -0.65394
 Alpha  occ. eigenvalues --   -0.64869  -0.61019  -0.60916  -0.59414  -0.59357
 Alpha  occ. eigenvalues --   -0.57672  -0.57589  -0.55373  -0.55241  -0.52736
 Alpha  occ. eigenvalues --   -0.52686  -0.52468  -0.52418  -0.50060  -0.49880
 Alpha  occ. eigenvalues --   -0.48010  -0.47919  -0.46829  -0.46523  -0.46029
 Alpha  occ. eigenvalues --   -0.45799  -0.45752  -0.45471  -0.43847  -0.43801
 Alpha virt. eigenvalues --    0.19031   0.22604   0.23403   0.24517   0.25632
 Alpha virt. eigenvalues --    0.26316   0.27180   0.27879   0.29024   0.29757
 Alpha virt. eigenvalues --    0.30117   0.31471   0.31685   0.31821   0.32312

 Mulliken charges:
               1
     1  C   -0.304203
     2  C   -0.301090
     3  C   -0.476201
     4  H    0.150375
     5  H    0.155000
     6  H    0.152297
     7  H    0.151906
     8  H    0.156170
     9  H    0.155185
    10  H    0.160348
    11  C   -0.298272
    12  C   -0.301981
    13  C   -0.475617
    14  H    0.149837
    15  H    0.148635
    16  H    0.152160
    17  H    0.154317
    18  H    0.154660
    19  H    0.155272
    20  H    0.160467
    21  C   -0.299372
    22  C   -0.299699
    23  C   -0.475777
    24  H    0.149875
    25  H    0.149946
    26  H    0.151952
    27  H    0.152176
    28  H    0.155321
    29  H    0.155294
    30  H    0.160436
    31  C   -0.297701
    32  C   -0.308137
    33  C   -0.477293
    34  H    0.149198
    35  H    0.150077
    36  H    0.159415
    37  H    0.152308
    38  H    0.155957
    39  H    0.156060
    40  H    0.160698
 Sum of Mulliken charges =  -0.00000

 Dipole moment (field-independent basis, Debye):
    X=              0.0106    Y=             -0.0035    Z=              0.0226  Tot=              0.0252
 Quadrupole moment (field-independent basis, Debye-Ang):
   XX=            -83.7584   YY=            -85.8445   ZZ=            -84.9995
   XY=             -1.0491   XZ=              0.8635   YZ=             -0.2892

 Normal termination of Gaussian 16 at Wed May  5 23:03:58 2021.
