 Gaussian 16, Revision A.03,
 Gaussian 16:  EM64L-G16RevA.03 25-Dec-2016

 -------------
 #p 6-31g* mp2
 -------------

 ------------------------------------------------------
 Input file generated by CHIRIPA (05-May-2021 14:51:13)
 ------------------------------------------------------
 Symbolic Z-matrix:
 Charge =  0 Multiplicity = 1

                         Standard orientation:
 ---------------------------------------------------------------------
 Center     Atomic      Atomic             Coordinates (Angstroms)
 Number     Number       Type             X           Y           Z
 ---------------------------------------------------------------------
      1          6           0        3.139966   -0.697179   -0.349351
      2          6           0        1.959564   -1.309336   -1.104267
      3          6           0        2.008496   -2.837137   -1.139243
      4          1           0        4.077294   -1.024769   -0.819506
      5          1           0        3.152011   -1.088175    0.677475
      6          1           0        1.948937   -0.916241   -2.128952
      7          1           0        1.024932   -0.980097   -0.632377
      8          1           0        1.995642   -3.246329   -0.123862
      9          1           0        2.924898   -3.182111   -1.628940
     10          1           0        1.155386   -3.253772   -1.683742
     11          6           0        3.105105    0.829455   -0.305736
     12          6           0        4.285508    1.441613    0.449180
     13          6           0        4.236575    2.969414    0.484156
     14          1           0        3.093061    1.220452   -1.332562
     15          1           0        2.167777    1.157045    0.164419
     16          1           0        5.220140    1.112373   -0.022710
     17          1           0        4.296134    1.048517    1.473864
     18          1           0        3.320174    3.314387    0.973853
     19          1           0        4.249429    3.378605   -0.531225
     20          1           0        5.089685    3.386048    1.028654
     21          6           0       -3.589852    0.120996   -0.246937
     22          6           0       -4.382545    1.403163    0.009323
     23          6           0       -5.312978    1.764403   -1.148949
     24          1           0       -3.002587    0.238438   -1.167954
     25          1           0       -4.291126   -0.705631   -0.426657
     26          1           0       -3.679999    2.226841    0.189874
     27          1           0       -4.967844    1.282724    0.929940
     28          1           0       -6.036350    0.962057   -1.326637
     29          1           0       -4.741189    1.911538   -2.070908
     30          1           0       -5.869885    2.684181   -0.944686
     31          6           0       -2.655220   -0.253272    0.902024
     32          6           0       -1.862526   -1.535439    0.645764
     33          6           0       -0.932093   -1.896680    1.804036
     34          1           0       -1.953946    0.573355    1.081744
     35          1           0       -3.242484   -0.370715    1.823041
     36          1           0       -1.277228   -1.415000   -0.274854
     37          1           0       -2.565071   -2.359117    0.465213
     38          1           0       -1.503883   -2.043815    2.725995
     39          1           0       -0.208721   -1.094334    1.981724
     40          1           0       -0.375186   -2.816457    1.599774
 ---------------------------------------------------------------------

 SCF Done:  E(RHF) =  -470.733129085     A.U. after   11 cycles
 E2 =    -0.1583498132D+01 EUMP2 =    -0.47231662721656D+03

 The electronic state is 1-A.
 Alpha  occ. eigenvalues --  -11.21617 -11.21614 -11.21612 -11.21574 -11.21427
 Alpha  occ. eigenvalues --  -11.21420 -11.21367 -11.21354 -11.21122 -11.21088
 Alpha  occ. eigenvalues --  -11.21077 -11.21069  -1.08474  -1.08420  -1.03603
 Alpha  occ. eigenvalues --   -1.03490  -0.96034  -0.95960  -0.87027  -0.86998
 Alpha  occ. eigenvalues --   -0.79671  -0.79555  -0.78306  -0.78215  -0.65263
 Alpha  occ. eigenvalues --   -0.64932  -0.61246  -0.60685  -0.59408  -0.59299
 Alpha  occ. eigenvalues --   -0.57657  -0.57552  -0.55365  -0.55189  -0.52702
 Alpha  occ. eigenvalues --   -0.52673  -0.52435  -0.52403  -0.49953  -0.49928
 Alpha  occ. eigenvalues --   -0.48015  -0.47872  -0.46839  -0.46482  -0.45931
 Alpha  occ. eigenvalues --   -0.45760  -0.45755  -0.45498  -0.43803  -0.43788
 Alpha virt. eigenvalues --    0.20016   0.23196   0.23440   0.25121   0.26035
 Alpha virt. eigenvalues --    0.26408   0.26628   0.27895   0.28102   0.29155
 Alpha virt. eigenvalues --    0.30363   0.31138   0.31732   0.32194   0.32577

 Mulliken charges:
               1
     1  C   -0.298016
     2  C   -0.307411
     3  C   -0.476580
     4  H    0.149625
     5  H    0.150104
     6  H    0.151331
     7  H    0.160189
     8  H    0.156253
     9  H    0.155152
    10  H    0.160314
    11  C   -0.298284
    12  C   -0.299674
    13  C   -0.475707
    14  H    0.149529
    15  H    0.148598
    16  H    0.152108
    17  H    0.152093
    18  H    0.155019
    19  H    0.155165
    20  H    0.160386
    21  C   -0.298401
    22  C   -0.299670
    23  C   -0.475741
    24  H    0.149968
    25  H    0.149614
    26  H    0.151961
    27  H    0.151931
    28  H    0.155188
    29  H    0.155288
    30  H    0.160297
    31  C   -0.298137
    32  C   -0.305832
    33  C   -0.477700
    34  H    0.148877
    35  H    0.149856
    36  H    0.157349
    37  H    0.152555
    38  H    0.155650
    39  H    0.154264
    40  H    0.162492
 Sum of Mulliken charges =  -0.00000

 Dipole moment (field-independent basis, Debye):
    X=             -0.0102    Y=             -0.0152    Z=              0.0002  Tot=              0.0183
 Quadrupole moment (field-independent basis, Debye-Ang):
   XX=            -84.4347   YY=            -85.8390   ZZ=            -84.4399
   XY=              0.6168   XZ=             -1.3320   YZ=             -0.1242

 Normal termination of Gaussian 16 at Wed May  5 18:21:00 2021.
