 Gaussian 16, Revision A.03,
 Gaussian 16:  EM64L-G16RevA.03 25-Dec-2016

 -------------
 #p 6-31g* mp2
 -------------

 ------------------------------------------------------
 Input file generated by CHIRIPA (05-May-2021 14:51:14)
 ------------------------------------------------------
 Symbolic Z-matrix:
 Charge =  0 Multiplicity = 1

                         Standard orientation:
 ---------------------------------------------------------------------
 Center     Atomic      Atomic             Coordinates (Angstroms)
 Number     Number       Type             X           Y           Z
 ---------------------------------------------------------------------
      1          6           0       -4.051832    0.543895    0.018539
      2          6           0       -3.648665    2.017806   -0.036493
      3          6           0       -4.849780    2.961914    0.024965
      4          1           0       -4.734490    0.325729   -0.814124
      5          1           0       -4.617143    0.359851    0.942631
      6          1           0       -3.083092    2.198712   -0.959540
      7          1           0       -2.966737    2.232443    0.796286
      8          1           0       -5.411787    2.810444    0.952222
      9          1           0       -5.528803    2.776522   -0.813580
     10          1           0       -4.538733    4.010460   -0.015790
     11          6           0       -2.861979   -0.412306   -0.041941
     12          6           0       -3.265146   -1.886216    0.013090
     13          6           0       -2.064031   -2.830324   -0.048368
     14          1           0       -2.296668   -0.228262   -0.966034
     15          1           0       -2.179321   -0.194139    0.790721
     16          1           0       -3.947074   -2.100853   -0.819688
     17          1           0       -3.830719   -2.067123    0.936137
     18          1           0       -1.385008   -2.644933    0.790177
     19          1           0       -1.502024   -2.678855   -0.975625
     20          1           0       -2.375078   -3.878871   -0.007613
     21          6           0        3.836931    0.480806   -0.362785
     22          6           0        4.282036    1.634692    0.536334
     23          6           0        5.041018    2.720315   -0.227317
     24          1           0        4.719076    0.041156   -0.848041
     25          1           0        3.201980    0.876242   -1.167685
     26          1           0        4.914829    1.237008    1.340098
     27          1           0        3.398748    2.071522    1.019653
     28          1           0        4.414334    3.144477   -1.018490
     29          1           0        5.939029    2.305222   -0.696224
     30          1           0        5.349800    3.535441    0.434563
     31          6           0        3.076880   -0.612396    0.386188
     32          6           0        2.631775   -1.766281   -0.512931
     33          6           0        1.872793   -2.851904    0.250720
     34          1           0        3.711832   -1.007831    1.191087
     35          1           0        2.194735   -0.172746    0.871443
     36          1           0        3.515062   -2.203111   -0.996250
     37          1           0        1.998982   -1.368598   -1.316696
     38          1           0        0.974782   -2.436811    0.719627
     39          1           0        2.499477   -3.276067    1.041893
     40          1           0        1.564012   -3.667030   -0.411160
 ---------------------------------------------------------------------

 SCF Done:  E(RHF) =  -470.732944287     A.U. after   11 cycles
 E2 =    -0.1582599063D+01 EUMP2 =    -0.47231554335066D+03

 The electronic state is 1-A.
 Alpha  occ. eigenvalues --  -11.21632 -11.21605 -11.21581 -11.21539 -11.21438
 Alpha  occ. eigenvalues --  -11.21378 -11.21371 -11.21311 -11.21094 -11.21056
 Alpha  occ. eigenvalues --  -11.21040 -11.20934  -1.08456  -1.08389  -1.03557
 Alpha  occ. eigenvalues --   -1.03471  -0.96028  -0.95897  -0.87073  -0.86887
 Alpha  occ. eigenvalues --   -0.79664  -0.79494  -0.78276  -0.78200  -0.65090
 Alpha  occ. eigenvalues --   -0.65019  -0.60984  -0.60861  -0.59364  -0.59296
 Alpha  occ. eigenvalues --   -0.57647  -0.57525  -0.55374  -0.55150  -0.52731
 Alpha  occ. eigenvalues --   -0.52634  -0.52463  -0.52259  -0.50047  -0.49764
 Alpha  occ. eigenvalues --   -0.47997  -0.47774  -0.46710  -0.46489  -0.45846
 Alpha  occ. eigenvalues --   -0.45746  -0.45710  -0.45605  -0.43811  -0.43728
 Alpha virt. eigenvalues --    0.21856   0.23112   0.23572   0.24958   0.25863
 Alpha virt. eigenvalues --    0.26627   0.27113   0.27526   0.27778   0.29234
 Alpha virt. eigenvalues --    0.29944   0.31398   0.31860   0.31974   0.32135

 Mulliken charges:
               1
     1  C   -0.298214
     2  C   -0.299658
     3  C   -0.475721
     4  H    0.149836
     5  H    0.149686
     6  H    0.151786
     7  H    0.151783
     8  H    0.155280
     9  H    0.155265
    10  H    0.160295
    11  C   -0.298146
    12  C   -0.300009
    13  C   -0.477968
    14  H    0.149215
    15  H    0.148702
    16  H    0.151855
    17  H    0.151888
    18  H    0.158471
    19  H    0.155965
    20  H    0.160351
    21  C   -0.298225
    22  C   -0.299628
    23  C   -0.475679
    24  H    0.149568
    25  H    0.149479
    26  H    0.151840
    27  H    0.151889
    28  H    0.155155
    29  H    0.155139
    30  H    0.160157
    31  C   -0.298309
    32  C   -0.299577
    33  C   -0.478767
    34  H    0.149357
    35  H    0.149486
    36  H    0.151505
    37  H    0.151493
    38  H    0.160069
    39  H    0.153845
    40  H    0.160539
 Sum of Mulliken charges =  -0.00000

 Dipole moment (field-independent basis, Debye):
    X=             -0.0291    Y=             -0.0174    Z=              0.0015  Tot=              0.0340
 Quadrupole moment (field-independent basis, Debye-Ang):
   XX=            -84.9984   YY=            -85.9349   ZZ=            -83.8757
   XY=             -0.2658   XZ=              0.4906   YZ=              0.2562

 Normal termination of Gaussian 16 at Wed May  5 20:02:11 2021.
