 Gaussian 16, Revision A.03,
 Gaussian 16:  EM64L-G16RevA.03 25-Dec-2016

 -------------
 #p 6-31g* mp2
 -------------

 ------------------------------------------------------
 Input file generated by CHIRIPA (05-May-2021 14:55:20)
 ------------------------------------------------------
 Symbolic Z-matrix:
 Charge =  0 Multiplicity = 1

                         Standard orientation:
 ---------------------------------------------------------------------
 Center     Atomic      Atomic             Coordinates (Angstroms)
 Number     Number       Type             X           Y           Z
 ---------------------------------------------------------------------
      1          6           0        3.324056   -2.229888   -0.001823
      2          6           0        3.884438   -1.429557   -1.002804
      3          6           0        3.718204   -0.041640   -0.978322
      4          6           0        2.982350    0.515079    0.066605
      5          6           0        2.411730   -0.255547    1.078444
      6          6           0        2.590783   -1.641366    1.033781
      7          1           0        3.458170   -3.307240   -0.028679
      8          1           0        4.454395   -1.883869   -1.808282
      9          1           0        4.141182    0.601564   -1.740423
     10          1           0        1.848711    0.226220    1.868588
     11          1           0        2.154446   -2.260438    1.812501
     12          7           0        2.799580    1.983295    0.103205
     13          8           0        2.146950    2.449377    1.034591
     14          8           0        3.312415    2.640198   -0.800186
     15          6           0       -4.616618   -0.382737   -0.138673
     16          6           0       -5.291008    0.987698   -0.067328
     17          6           0       -6.812721    0.904880   -0.191119
     18          1           0       -4.882878   -0.866348   -1.088501
     19          1           0       -5.016170   -1.022318    0.660507
     20          1           0       -4.889298    1.624952   -0.865546
     21          1           0       -5.022957    1.468184    0.882354
     22          1           0       -7.231814    0.291308    0.612928
     23          1           0       -7.097395    0.448968   -1.144905
     24          1           0       -7.274391    1.895764   -0.137550
     25          6           0       -3.095312   -0.316398   -0.016393
     26          6           0       -2.420922   -1.686834   -0.087738
     27          6           0       -0.899209   -1.604015    0.036053
     28          1           0       -2.695761    0.323182   -0.815574
     29          1           0       -2.829052    0.167213    0.933434
     30          1           0       -2.688973   -2.167319   -1.037421
     31          1           0       -2.822632   -2.324089    0.710480
     32          1           0       -0.614535   -1.148104    0.989838
     33          1           0       -0.480116   -0.990444   -0.767994
     34          1           0       -0.437539   -2.594900   -0.017516
 ---------------------------------------------------------------------

 SCF Done:  E(RHF) =  -669.535005025     A.U. after   15 cycles
 E2 =    -0.2092121142D+01 EUMP2 =    -0.67162712616670D+03

 The electronic state is 1-A.
 Alpha  occ. eigenvalues --  -20.60740 -20.60735 -15.85794 -11.31145 -11.27710
 Alpha  occ. eigenvalues --  -11.27707 -11.27452 -11.26730 -11.26715 -11.21749
 Alpha  occ. eigenvalues --  -11.21517 -11.21412 -11.21356 -11.21348 -11.21000
 Alpha  occ. eigenvalues --   -1.59816  -1.39370  -1.19320  -1.08718  -1.08460
 Alpha  occ. eigenvalues --   -1.04729  -1.03590  -0.96052  -0.95554  -0.87076
 Alpha  occ. eigenvalues --   -0.86121  -0.82390  -0.79659  -0.78255  -0.77434
 Alpha  occ. eigenvalues --   -0.72013  -0.71139  -0.70434  -0.65096  -0.64973
 Alpha  occ. eigenvalues --   -0.64732  -0.62087  -0.60985  -0.59431  -0.57659
 Alpha  occ. eigenvalues --   -0.55349  -0.55219  -0.53327  -0.52843  -0.52614
 Alpha  occ. eigenvalues --   -0.52328  -0.49997  -0.48770  -0.48768  -0.47968
 Alpha  occ. eigenvalues --   -0.46685  -0.45802  -0.45717  -0.44777  -0.43846
 Alpha  occ. eigenvalues --   -0.37290  -0.36243
 Alpha virt. eigenvalues --    0.05089   0.11306   0.16551   0.20960   0.22881
 Alpha virt. eigenvalues --    0.24172   0.26185   0.26867   0.27468   0.28123
 Alpha virt. eigenvalues --    0.28700   0.30868   0.31234   0.31566   0.32000

 Mulliken charges:
               1
     1  C   -0.172040
     2  C   -0.218473
     3  C   -0.171759
     4  C    0.157456
     5  C   -0.167980
     6  C   -0.212574
     7  H    0.225217
     8  H    0.223118
     9  H    0.275281
    10  H    0.274716
    11  H    0.223544
    12  N    0.488071
    13  O   -0.460554
    14  O   -0.460715
    15  C   -0.298323
    16  C   -0.299981
    17  C   -0.475795
    18  H    0.149134
    19  H    0.148478
    20  H    0.153657
    21  H    0.153214
    22  H    0.154478
    23  H    0.154715
    24  H    0.161101
    25  C   -0.298786
    26  C   -0.301288
    27  C   -0.470867
    28  H    0.152305
    29  H    0.150973
    30  H    0.151794
    31  H    0.149996
    32  H    0.148774
    33  H    0.159515
    34  H    0.153598
 Sum of Mulliken charges =  -0.00000

 Dipole moment (field-independent basis, Debye):
    X=              0.6434    Y=             -5.1330    Z=             -0.1456  Tot=              5.1752
 Quadrupole moment (field-independent basis, Debye-Ang):
   XX=            -91.3683   YY=           -100.9009   ZZ=            -90.4616
   XY=            -15.1594   XZ=             -3.0567   YZ=             -0.9150

 Normal termination of Gaussian 16 at Thu May  6 04:30:33 2021.
