 Gaussian 16, Revision A.03,
 Gaussian 16:  EM64L-G16RevA.03 25-Dec-2016

 -------------
 #p 6-31g* mp2
 -------------

 ------------------------------------------------------
 Input file generated by CHIRIPA (05-May-2021 14:57:27)
 ------------------------------------------------------
 Symbolic Z-matrix:
 Charge =  0 Multiplicity = 1

                         Standard orientation:
 ---------------------------------------------------------------------
 Center     Atomic      Atomic             Coordinates (Angstroms)
 Number     Number       Type             X           Y           Z
 ---------------------------------------------------------------------
      1          6           0       -4.084144    2.381333    0.741840
      2          6           0       -4.562014    1.828915   -0.451054
      3          6           0       -4.173744    0.544771   -0.844459
      4          6           0       -3.302407   -0.162103   -0.017180
      5          6           0       -2.809083    0.360917    1.177128
      6          6           0       -3.210743    1.646866    1.550697
      7          1           0       -4.390962    3.379587    1.039742
      8          1           0       -5.240415    2.397009   -1.081202
      9          1           0       -4.528510    0.092960   -1.762842
     10          1           0       -2.133937   -0.229648    1.784440
     11          1           0       -2.838031    2.073349    2.477650
     12          7           0       -2.884275   -1.522524   -0.423162
     13          8           0       -2.115682   -2.124798    0.323275
     14          8           0       -3.333053   -1.960788   -1.480119
     15          6           0        1.704667   -1.889213    0.450158
     16          6           0        1.432097   -0.946696   -0.546781
     17          6           0        2.348281    0.069991   -0.832265
     18          6           0        3.532446    0.114527   -0.098058
     19          6           0        3.832776   -0.809859    0.901244
     20          6           0        2.902026   -1.817912    1.169720
     21          1           0        0.987296   -2.675647    0.665324
     22          1           0        0.503025   -0.999618   -1.107200
     23          1           0        2.162645    0.812600   -1.598744
     24          1           0        4.767491   -0.731274    1.443047
     25          1           0        3.116368   -2.548527    1.944513
     26          7           0        4.510079    1.186278   -0.391285
     27          8           0        5.546094    1.203706    0.269781
     28          8           0        4.221822    1.988593   -1.276629
 ---------------------------------------------------------------------

 SCF Done:  E(RHF) =  -868.340430655     A.U. after   16 cycles
 E2 =    -0.2598908964D+01 EUMP2 =    -0.87093933961860D+03

 The electronic state is 1-A.
 Alpha  occ. eigenvalues --  -20.61937 -20.61880 -20.60425 -20.60419 -15.86928
 Alpha  occ. eigenvalues --  -15.85473 -11.31944 -11.30665 -11.28474 -11.28459
 Alpha  occ. eigenvalues --  -11.28125 -11.27389 -11.27379 -11.27244 -11.27211
 Alpha  occ. eigenvalues --  -11.26718 -11.26154 -11.26060  -1.60979  -1.59506
 Alpha  occ. eigenvalues --   -1.40539  -1.39064  -1.20082  -1.18806  -1.09539
 Alpha  occ. eigenvalues --   -1.08185  -1.05425  -1.04190  -0.96431  -0.95055
 Alpha  occ. eigenvalues --   -0.86839  -0.85562  -0.83274  -0.81909  -0.78364
 Alpha  occ. eigenvalues --   -0.77021  -0.73161  -0.72303  -0.71689  -0.71172
 Alpha  occ. eigenvalues --   -0.70831  -0.69776  -0.65732  -0.65413  -0.64427
 Alpha  occ. eigenvalues --   -0.64147  -0.62774  -0.61544  -0.55925  -0.54518
 Alpha  occ. eigenvalues --   -0.53779  -0.53505  -0.52532  -0.52254  -0.49928
 Alpha  occ. eigenvalues --   -0.49870  -0.48460  -0.48432  -0.46001  -0.44510
 Alpha  occ. eigenvalues --   -0.38039  -0.37014  -0.36716  -0.35824
 Alpha virt. eigenvalues --    0.04107   0.05518   0.10633   0.11850   0.15664
 Alpha virt. eigenvalues --    0.17072   0.20814   0.22167   0.26777   0.27469
 Alpha virt. eigenvalues --    0.27848   0.29139   0.30570   0.31504   0.32054

 Mulliken charges:
               1
     1  C   -0.169252
     2  C   -0.218437
     3  C   -0.170858
     4  C    0.154788
     5  C   -0.170416
     6  C   -0.218079
     7  H    0.229199
     8  H    0.226347
     9  H    0.276587
    10  H    0.274634
    11  H    0.226777
    12  N    0.487829
    13  O   -0.470611
    14  O   -0.455160
    15  C   -0.174281
    16  C   -0.221875
    17  C   -0.173180
    18  C    0.157017
    19  C   -0.172220
    20  C   -0.220795
    21  H    0.243861
    22  H    0.227420
    23  H    0.272583
    24  H    0.273082
    25  H    0.221974
    26  N    0.488215
    27  O   -0.462348
    28  O   -0.462802
 Sum of Mulliken charges =  -0.00000

 Dipole moment (field-independent basis, Debye):
    X=             -5.3814    Y=              1.0219    Z=              2.4857  Tot=              6.0152
 Quadrupole moment (field-independent basis, Debye-Ang):
   XX=           -117.1497   YY=           -107.3192   ZZ=            -99.7032
   XY=            -31.8589   XZ=              4.4583   YZ=             -1.4404

 Normal termination of Gaussian 16 at Wed May  5 22:52:55 2021.
