 Gaussian 16, Revision A.03,
 Gaussian 16:  EM64L-G16RevA.03 25-Dec-2016

 -------------
 #p 6-31g* mp2
 -------------

 ------------------------------------------------------
 Input file generated by CHIRIPA (05-May-2021 14:57:27)
 ------------------------------------------------------
 Symbolic Z-matrix:
 Charge =  0 Multiplicity = 1

                         Standard orientation:
 ---------------------------------------------------------------------
 Center     Atomic      Atomic             Coordinates (Angstroms)
 Number     Number       Type             X           Y           Z
 ---------------------------------------------------------------------
      1          6           0        1.523101    1.743477   -1.047486
      2          6           0        2.720060    2.250685   -0.531200
      3          6           0        3.736043    1.385909   -0.113480
      4          6           0        3.520427    0.013333   -0.226764
      5          6           0        2.338991   -0.522622   -0.736914
      6          6           0        1.336716    0.360880   -1.148517
      7          1           0        0.739186    2.422529   -1.369605
      8          1           0        2.867577    3.323971   -0.451570
      9          1           0        4.672504    1.751563    0.289951
     10          1           0        2.221094   -1.597340   -0.803989
     11          1           0        0.408171   -0.035855   -1.549079
     12          7           0        4.588747   -0.912078    0.212219
     13          8           0        4.374174   -2.117256    0.102028
     14          8           0        5.620440   -0.414715    0.658173
     15          6           0       -1.058359   -0.087311    1.364000
     16          6           0       -1.407556   -1.157699    0.534028
     17          6           0       -2.671368   -1.211608   -0.061306
     18          6           0       -3.565356   -0.173445    0.196165
     19          6           0       -3.247072    0.906369    1.018349
     20          6           0       -1.977612    0.939497    1.603089
     21          1           0       -0.074406   -0.053504    1.822355
     22          1           0       -0.695677   -1.956530    0.346567
     23          1           0       -2.967846   -2.028478   -0.708020
     24          1           0       -3.978035    1.687939    1.186450
     25          1           0       -1.709162    1.772010    2.247218
     26          7           0       -4.906286   -0.219516   -0.428481
     27          8           0       -5.675886    0.707555   -0.185803
     28          8           0       -5.162318   -1.181826   -1.148929
 ---------------------------------------------------------------------

 SCF Done:  E(RHF) =  -868.336717138     A.U. after   16 cycles
 E2 =    -0.2602442706D+01 EUMP2 =    -0.87093915984484D+03

 The electronic state is 1-A.
 Alpha  occ. eigenvalues --  -20.61477 -20.61467 -20.61325 -20.61319 -15.86528
 Alpha  occ. eigenvalues --  -15.86387 -11.31989 -11.31838 -11.28526 -11.28472
 Alpha  occ. eigenvalues --  -11.28470 -11.28452 -11.28165 -11.28123 -11.27522
 Alpha  occ. eigenvalues --  -11.27461 -11.27442 -11.27402  -1.60550  -1.60402
 Alpha  occ. eigenvalues --   -1.40101  -1.39953  -1.20146  -1.20038  -1.09519
 Alpha  occ. eigenvalues --   -1.09374  -1.05576  -1.05435  -0.96318  -0.96211
 Alpha  occ. eigenvalues --   -0.86946  -0.86806  -0.83147  -0.83045  -0.78232
 Alpha  occ. eigenvalues --   -0.78067  -0.72736  -0.72596  -0.71882  -0.71736
 Alpha  occ. eigenvalues --   -0.71182  -0.71080  -0.65780  -0.65679  -0.65539
 Alpha  occ. eigenvalues --   -0.65402  -0.62959  -0.62710  -0.55968  -0.55898
 Alpha  occ. eigenvalues --   -0.54217  -0.53714  -0.53535  -0.53312  -0.49504
 Alpha  occ. eigenvalues --   -0.49492  -0.49363  -0.49348  -0.45486  -0.45340
 Alpha  occ. eigenvalues --   -0.38609  -0.37827  -0.37215  -0.36649
 Alpha virt. eigenvalues --    0.04279   0.04420   0.10161   0.10824   0.15804
 Alpha virt. eigenvalues --    0.15898   0.19901   0.21416   0.25164   0.27245
 Alpha virt. eigenvalues --    0.27697   0.28245   0.30323   0.30594   0.31503

 Mulliken charges:
               1
     1  C   -0.174263
     2  C   -0.219204
     3  C   -0.172604
     4  C    0.159281
     5  C   -0.182961
     6  C   -0.216261
     7  H    0.229660
     8  H    0.225771
     9  H    0.277382
    10  H    0.272449
    11  H    0.229886
    12  N    0.487895
    13  O   -0.460506
    14  O   -0.457801
    15  C   -0.165201
    16  C   -0.228941
    17  C   -0.173729
    18  C    0.157433
    19  C   -0.170822
    20  C   -0.223392
    21  H    0.232889
    22  H    0.224051
    23  H    0.277362
    24  H    0.277096
    25  H    0.224950
    26  N    0.488088
    27  O   -0.459308
    28  O   -0.459200
 Sum of Mulliken charges =  -0.00000

 Dipole moment (field-independent basis, Debye):
    X=              0.9528    Y=              3.5463    Z=              0.6915  Tot=              3.7366
 Quadrupole moment (field-independent basis, Debye-Ang):
   XX=           -163.9550   YY=            -98.2685   ZZ=           -103.1422
   XY=             11.6384   XZ=            -11.3994   YZ=              2.1655

 Normal termination of Gaussian 16 at Thu May  6 11:33:15 2021.
