 Gaussian 16, Revision A.03,
 Gaussian 16:  EM64L-G16RevA.03 25-Dec-2016

 -------------
 #p 6-31g* mp2
 -------------

 ------------------------------------------------------
 Input file generated by CHIRIPA (05-May-2021 14:57:26)
 ------------------------------------------------------
 Symbolic Z-matrix:
 Charge =  0 Multiplicity = 1

                         Standard orientation:
 ---------------------------------------------------------------------
 Center     Atomic      Atomic             Coordinates (Angstroms)
 Number     Number       Type             X           Y           Z
 ---------------------------------------------------------------------
      1          6           0       -0.508840   -1.977657   -0.422430
      2          6           0       -1.569340   -2.337182    0.415784
      3          6           0       -2.702718   -1.524700    0.515153
      4          6           0       -2.742369   -0.354442   -0.241294
      5          6           0       -1.701983    0.030901   -1.085331
      6          6           0       -0.578424   -0.796845   -1.168996
      7          1           0        0.367782   -2.614741   -0.493522
      8          1           0       -1.518045   -3.253642    0.996745
      9          1           0       -3.538030   -1.779086    1.156215
     10          1           0       -1.782038    0.950530   -1.652158
     11          1           0        0.243675   -0.515123   -1.820788
     12          7           0       -3.937028    0.513776   -0.144409
     13          8           0       -3.947542    1.539662   -0.821228
     14          8           0       -4.840267    0.151959    0.606513
     15          6           0        0.897574    2.305779    0.874188
     16          6           0        1.811396    2.515957   -0.163730
     17          6           0        2.728998    1.521090   -0.514149
     18          6           0        2.704788    0.322720    0.197620
     19          6           0        1.806688    0.083271    1.236548
     20          6           0        0.898135    1.092246    1.569789
     21          1           0        0.188274    3.084096    1.139730
     22          1           0        1.813251    3.457413   -0.705674
     23          1           0        3.447358    1.657293   -1.313415
     24          1           0        1.828978   -0.865650    1.758535
     25          1           0        0.189593    0.926240    2.376296
     26          7           0        3.671422   -0.737970   -0.164260
     27          8           0        3.629711   -1.784928    0.478216
     28          8           0        4.452475   -0.502295   -1.083525
 ---------------------------------------------------------------------

 SCF Done:  E(RHF) =  -868.337541368     A.U. after   16 cycles
 E2 =    -0.2604515976D+01 EUMP2 =    -0.87094205734467D+03

 The electronic state is 1-A.
 Alpha  occ. eigenvalues --  -20.61656 -20.61633 -20.61187 -20.61176 -15.86681
 Alpha  occ. eigenvalues --  -15.86232 -11.31849 -11.31497 -11.28425 -11.28370
 Alpha  occ. eigenvalues --  -11.28043 -11.28016 -11.27992 -11.27607 -11.27358
 Alpha  occ. eigenvalues --  -11.27248 -11.27006 -11.26908  -1.60728  -1.60266
 Alpha  occ. eigenvalues --   -1.40284  -1.39821  -1.20035  -1.19623  -1.09424
 Alpha  occ. eigenvalues --   -1.09038  -1.05375  -1.05006  -0.96296  -0.95883
 Alpha  occ. eigenvalues --   -0.86774  -0.86409  -0.83116  -0.82719  -0.78211
 Alpha  occ. eigenvalues --   -0.77806  -0.72888  -0.72447  -0.72084  -0.71600
 Alpha  occ. eigenvalues --   -0.71084  -0.70653  -0.65640  -0.65338  -0.65265
 Alpha  occ. eigenvalues --   -0.65000  -0.62720  -0.62370  -0.55822  -0.55433
 Alpha  occ. eigenvalues --   -0.54433  -0.53434  -0.53115  -0.52666  -0.49667
 Alpha  occ. eigenvalues --   -0.49628  -0.49212  -0.49192  -0.45719  -0.45249
 Alpha  occ. eigenvalues --   -0.38344  -0.37752  -0.36862  -0.36086
 Alpha virt. eigenvalues --    0.04099   0.04832   0.10434   0.11265   0.15748
 Alpha virt. eigenvalues --    0.16322   0.20787   0.21330   0.26679   0.26987
 Alpha virt. eigenvalues --    0.27488   0.28442   0.30506   0.30892   0.31951

 Mulliken charges:
               1
     1  C   -0.178705
     2  C   -0.222726
     3  C   -0.174391
     4  C    0.155340
     5  C   -0.172113
     6  C   -0.211663
     7  H    0.237483
     8  H    0.225487
     9  H    0.275167
    10  H    0.272685
    11  H    0.225813
    12  N    0.487574
    13  O   -0.462456
    14  O   -0.460016
    15  C   -0.171530
    16  C   -0.221417
    17  C   -0.177099
    18  C    0.152883
    19  C   -0.168499
    20  C   -0.211967
    21  H    0.232732
    22  H    0.226821
    23  H    0.276279
    24  H    0.272419
    25  H    0.227377
    26  N    0.486527
    27  O   -0.464290
    28  O   -0.457715
 Sum of Mulliken charges =  -0.00000

 Dipole moment (field-independent basis, Debye):
    X=              0.8640    Y=              0.7603    Z=              0.9964  Tot=              1.5223
 Quadrupole moment (field-independent basis, Debye-Ang):
   XX=           -146.7921   YY=            -96.8618   ZZ=           -100.1948
   XY=             18.8907   XZ=             -0.4091   YZ=             -2.5604

 Normal termination of Gaussian 16 at Wed May  5 22:51:13 2021.
