 Gaussian 16, Revision A.03,
 Gaussian 16:  EM64L-G16RevA.03 25-Dec-2016

 -------------
 #p 6-31g* mp2
 -------------

 ------------------------------------------------------
 Input file generated by CHIRIPA (05-May-2021 14:55:22)
 ------------------------------------------------------
 Symbolic Z-matrix:
 Charge =  0 Multiplicity = 1

                         Standard orientation:
 ---------------------------------------------------------------------
 Center     Atomic      Atomic             Coordinates (Angstroms)
 Number     Number       Type             X           Y           Z
 ---------------------------------------------------------------------
      1          6           0        2.996655   -2.272427   -0.435459
      2          6           0        4.273510   -1.776058   -0.717912
      3          6           0        4.573995   -0.427316   -0.505428
      4          6           0        3.569189    0.400608   -0.007233
      5          6           0        2.287531   -0.064031    0.283891
      6          6           0        2.009481   -1.416338    0.063662
      7          1           0        2.771945   -3.321547   -0.603530
      8          1           0        5.042128   -2.438594   -1.105620
      9          1           0        5.554115   -0.016656   -0.715528
     10          1           0        1.542053    0.620800    0.669491
     11          1           0        1.016980   -1.799059    0.283917
     12          7           0        3.875424    1.830349    0.221814
     13          8           0        2.972697    2.539165    0.661473
     14          8           0        5.012379    2.215090   -0.042654
     15          6           0       -3.790475   -0.382846    0.269465
     16          6           0       -3.522960   -1.886843    0.335902
     17          6           0       -2.091317   -2.214407    0.761217
     18          1           0       -3.083070    0.078267   -0.433315
     19          1           0       -3.588398    0.062282    1.253549
     20          1           0       -3.726810   -2.329220   -0.647645
     21          1           0       -4.231208   -2.344457    1.038461
     22          1           0       -1.879436   -1.799927    1.752132
     23          1           0       -1.372173   -1.784604    0.056447
     24          1           0       -1.921931   -3.294915    0.802125
     25          6           0       -5.217444   -0.039477   -0.154310
     26          6           0       -5.484958    1.464520   -0.220745
     27          6           0       -6.916602    1.792086   -0.646061
     28          1           0       -5.419521   -0.484604   -1.138393
     29          1           0       -5.924848   -0.500588    0.548471
     30          1           0       -4.776709    1.922134   -0.923304
     31          1           0       -5.281108    1.906898    0.762800
     32          1           0       -7.635746    1.362282    0.058709
     33          1           0       -7.128483    1.377604   -1.636976
     34          1           0       -7.085987    2.872592   -0.686969
 ---------------------------------------------------------------------

 SCF Done:  E(RHF) =  -669.535656473     A.U. after   15 cycles
 E2 =    -0.2090773122D+01 EUMP2 =    -0.67162642959530D+03

 The electronic state is 1-A.
 Alpha  occ. eigenvalues --  -20.60713 -20.60708 -15.85765 -11.31116 -11.27688
 Alpha  occ. eigenvalues --  -11.27668 -11.27416 -11.26703 -11.26630 -11.22305
 Alpha  occ. eigenvalues --  -11.22126 -11.21889 -11.21829 -11.21720 -11.21240
 Alpha  occ. eigenvalues --   -1.59789  -1.39342  -1.19284  -1.08899  -1.08682
 Alpha  occ. eigenvalues --   -1.04684  -1.04042  -0.96522  -0.95521  -0.87555
 Alpha  occ. eigenvalues --   -0.86080  -0.82353  -0.80125  -0.78667  -0.77400
 Alpha  occ. eigenvalues --   -0.71984  -0.71112  -0.70396  -0.65532  -0.64934
 Alpha  occ. eigenvalues --   -0.64695  -0.62067  -0.61414  -0.59905  -0.58101
 Alpha  occ. eigenvalues --   -0.55829  -0.55183  -0.53274  -0.53059  -0.53013
 Alpha  occ. eigenvalues --   -0.52619  -0.50454  -0.48746  -0.48740  -0.48414
 Alpha  occ. eigenvalues --   -0.47127  -0.46221  -0.46111  -0.44751  -0.44275
 Alpha  occ. eigenvalues --   -0.37268  -0.36287
 Alpha virt. eigenvalues --    0.05126   0.11345   0.16600   0.20568   0.22500
 Alpha virt. eigenvalues --    0.23850   0.25403   0.26315   0.27212   0.28374
 Alpha virt. eigenvalues --    0.28846   0.30214   0.31074   0.31217   0.32218

 Mulliken charges:
               1
     1  C   -0.172525
     2  C   -0.218425
     3  C   -0.171342
     4  C    0.158733
     5  C   -0.173634
     6  C   -0.227340
     7  H    0.225814
     8  H    0.223012
     9  H    0.275290
    10  H    0.275587
    11  H    0.236836
    12  N    0.488105
    13  O   -0.460564
    14  O   -0.460759
    15  C   -0.299577
    16  C   -0.299187
    17  C   -0.482574
    18  H    0.150041
    19  H    0.151068
    20  H    0.153779
    21  H    0.155211
    22  H    0.158170
    23  H    0.148902
    24  H    0.161042
    25  C   -0.298785
    26  C   -0.300333
    27  C   -0.476069
    28  H    0.149985
    29  H    0.150383
    30  H    0.153367
    31  H    0.153239
    32  H    0.155299
    33  H    0.155264
    34  H    0.161988
 Sum of Mulliken charges =  -0.00000

 Dipole moment (field-independent basis, Debye):
    X=             -1.2939    Y=             -5.0324    Z=             -0.7949  Tot=              5.2565
 Quadrupole moment (field-independent basis, Debye-Ang):
   XX=            -98.3921   YY=            -99.4594   ZZ=            -94.1339
   XY=            -19.0254   XZ=             -5.2899   YZ=              0.1029

 Normal termination of Gaussian 16 at Thu May  6 15:50:42 2021.
