 Gaussian 16, Revision A.03,
 Gaussian 16:  EM64L-G16RevA.03 25-Dec-2016

 -------------
 #p 6-31g* mp2
 -------------

 ------------------------------------------------------
 Input file generated by CHIRIPA (05-May-2021 14:55:20)
 ------------------------------------------------------
 Symbolic Z-matrix:
 Charge =  0 Multiplicity = 1

                         Standard orientation:
 ---------------------------------------------------------------------
 Center     Atomic      Atomic             Coordinates (Angstroms)
 Number     Number       Type             X           Y           Z
 ---------------------------------------------------------------------
      1          6           0       -0.848128   -1.929209    0.534276
      2          6           0       -1.332012   -1.133114    1.577641
      3          6           0       -2.312877   -0.166399    1.336988
      4          6           0       -2.789654   -0.021983    0.035021
      5          6           0       -2.327594   -0.799818   -1.025528
      6          6           0       -1.346585   -1.760318   -0.761694
      7          1           0       -0.086113   -2.677762    0.730225
      8          1           0       -0.946739   -1.262071    2.585104
      9          1           0       -2.705171    0.463441    2.126180
     10          1           0       -2.730996   -0.648019   -2.019330
     11          1           0       -0.972649   -2.377157   -1.573929
     12          7           0       -3.828128    0.998145   -0.232018
     13          8           0       -4.231839    1.105749   -1.387905
     14          8           0       -4.218710    1.670802    0.719621
     15          6           0        3.353558   -0.442176    0.235724
     16          6           0        3.021590   -1.588480   -0.720188
     17          6           0        3.029270   -2.953553   -0.031484
     18          1           0        4.339667   -0.622066    0.685361
     19          1           0        2.628877   -0.441263    1.061697
     20          1           0        3.745852   -1.586379   -1.544844
     21          1           0        2.036241   -1.405743   -1.167747
     22          1           0        2.294267   -2.980032    0.779485
     23          1           0        4.013592   -3.161694    0.400245
     24          1           0        2.789448   -3.758565   -0.733125
     25          6           0        3.349804    0.928863   -0.438047
     26          6           0        3.681771    2.075168    0.517864
     27          6           0        3.674092    3.440240   -0.170840
     28          1           0        4.074485    0.927950   -1.264020
     29          1           0        2.363695    1.108753   -0.887684
     30          1           0        4.667121    1.892431    0.965423
     31          1           0        2.957510    2.073066    1.342521
     32          1           0        2.689771    3.648381   -0.602569
     33          1           0        4.409095    3.466719   -0.981809
     34          1           0        3.913914    4.245252    0.530802
 ---------------------------------------------------------------------

 SCF Done:  E(RHF) =  -669.535581491     A.U. after   15 cycles
 E2 =    -0.2092158771D+01 EUMP2 =    -0.67162774026201D+03

 The electronic state is 1-A.
 Alpha  occ. eigenvalues --  -20.60806 -20.60801 -15.85861 -11.31242 -11.27816
 Alpha  occ. eigenvalues --  -11.27812 -11.27528 -11.26828 -11.26818 -11.22420
 Alpha  occ. eigenvalues --  -11.22190 -11.22027 -11.21937 -11.21800 -11.21281
 Alpha  occ. eigenvalues --   -1.59882  -1.39435  -1.19418  -1.09016  -1.08799
 Alpha  occ. eigenvalues --   -1.04822  -1.04142  -0.96602  -0.95635  -0.87615
 Alpha  occ. eigenvalues --   -0.86215  -0.82470  -0.80215  -0.78775  -0.77515
 Alpha  occ. eigenvalues --   -0.72077  -0.71206  -0.70549  -0.65650  -0.65066
 Alpha  occ. eigenvalues --   -0.64812  -0.62169  -0.61549  -0.59997  -0.58189
 Alpha  occ. eigenvalues --   -0.56068  -0.55143  -0.53299  -0.53146  -0.53006
 Alpha  occ. eigenvalues --   -0.52908  -0.50534  -0.48837  -0.48832  -0.48520
 Alpha  occ. eigenvalues --   -0.47246  -0.46327  -0.46219  -0.44837  -0.44367
 Alpha  occ. eigenvalues --   -0.37373  -0.36424
 Alpha virt. eigenvalues --    0.04997   0.11112   0.16405   0.19654   0.22827
 Alpha virt. eigenvalues --    0.24048   0.25616   0.26073   0.26763   0.27776
 Alpha virt. eigenvalues --    0.29189   0.30047   0.31019   0.31501   0.32065

 Mulliken charges:
               1
     1  C   -0.173061
     2  C   -0.221172
     3  C   -0.170699
     4  C    0.158318
     5  C   -0.171182
     6  C   -0.221348
     7  H    0.233916
     8  H    0.223712
     9  H    0.275824
    10  H    0.275887
    11  H    0.224599
    12  N    0.488032
    13  O   -0.460250
    14  O   -0.460291
    15  C   -0.297336
    16  C   -0.302890
    17  C   -0.478954
    18  H    0.150926
    19  H    0.146675
    20  H    0.155759
    21  H    0.151169
    22  H    0.145035
    23  H    0.161743
    24  H    0.159974
    25  C   -0.299303
    26  C   -0.299938
    27  C   -0.476325
    28  H    0.150378
    29  H    0.152597
    30  H    0.151824
    31  H    0.151778
    32  H    0.157562
    33  H    0.155472
    34  H    0.161568
 Sum of Mulliken charges =  -0.00000

 Dipole moment (field-independent basis, Debye):
    X=              3.7435    Y=             -3.5103    Z=              0.9019  Tot=              5.2105
 Quadrupole moment (field-independent basis, Debye-Ang):
   XX=           -114.5762   YY=            -96.0289   ZZ=            -90.1439
   XY=              9.9589   XZ=             -2.7870   YZ=              1.7339

 Normal termination of Gaussian 16 at Thu May  6 04:31:23 2021.
