 Gaussian 16, Revision A.03,
 Gaussian 16:  EM64L-G16RevA.03 25-Dec-2016

 -------------
 #p 6-31g* mp2
 -------------

 ------------------------------------------------------
 Input file generated by CHIRIPA (05-May-2021 14:53:13)
 ------------------------------------------------------
 Symbolic Z-matrix:
 Charge =  0 Multiplicity = 1

                         Standard orientation:
 ---------------------------------------------------------------------
 Center     Atomic      Atomic             Coordinates (Angstroms)
 Number     Number       Type             X           Y           Z
 ---------------------------------------------------------------------
      1          6           0       -2.803514   -0.433891    0.373947
      2          6           0       -3.474882   -1.789565    0.596200
      3          6           0       -2.527653   -2.826254    1.201036
      4          1           0       -1.933809   -0.566073   -0.284147
      5          1           0       -2.416278   -0.062714    1.332942
      6          1           0       -3.861954   -2.157431   -0.362688
      7          1           0       -4.343202   -1.654109    1.253687
      8          1           0       -2.150793   -2.484498    2.170458
      9          1           0       -1.666810   -2.990679    0.544900
     10          1           0       -3.028136   -3.787891    1.351469
     11          6           0       -3.737729    0.613004   -0.230191
     12          6           0       -3.066360    1.968678   -0.452444
     13          6           0       -4.013590    3.005367   -1.057280
     14          1           0       -4.124964    0.241827   -1.189186
     15          1           0       -4.607433    0.745186    0.427903
     16          1           0       -2.198040    1.833222   -1.109931
     17          1           0       -2.679289    2.336544    0.506444
     18          1           0       -4.874433    3.169792   -0.401144
     19          1           0       -4.390450    2.663611   -2.026702
     20          1           0       -3.513107    3.967004   -1.207713
     21          6           0        3.597366    1.926324    1.081643
     22          6           0        2.334794    1.474192    1.479146
     23          6           0        1.747684    0.369084    0.855776
     24          6           0        2.454417   -0.262960   -0.166153
     25          6           0        3.713831    0.163638   -0.584702
     26          6           0        4.281648    1.270760    0.052802
     27          1           0        4.045953    2.785581    1.571382
     28          1           0        1.801062    1.981358    2.277867
     29          1           0        0.771550   -0.002008    1.143649
     30          1           0        4.221550   -0.362505   -1.383960
     31          1           0        5.262315    1.619685   -0.257986
     32          7           0        1.843083   -1.433954   -0.833568
     33          8           0        2.486258   -1.973416   -1.731311
     34          8           0        0.732320   -1.790144   -0.446307
 ---------------------------------------------------------------------

 SCF Done:  E(RHF) =  -669.536416738     A.U. after   15 cycles
 E2 =    -0.2092088234D+01 EUMP2 =    -0.67162850497248D+03

 The electronic state is 1-A.
 Alpha  occ. eigenvalues --  -20.60985 -20.60965 -15.86007 -11.31265 -11.27835
 Alpha  occ. eigenvalues --  -11.27801 -11.27565 -11.26830 -11.26812 -11.21448
 Alpha  occ. eigenvalues --  -11.21001 -11.20954 -11.20862 -11.20747 -11.19980
 Alpha  occ. eigenvalues --   -1.60037  -1.39595  -1.19434  -1.08852  -1.07953
 Alpha  occ. eigenvalues --   -1.04820  -1.03008  -0.95704  -0.95439  -0.86458
 Alpha  occ. eigenvalues --   -0.86223  -0.82544  -0.79123  -0.77844  -0.77493
 Alpha  occ. eigenvalues --   -0.72242  -0.71344  -0.70544  -0.65100  -0.64825
 Alpha  occ. eigenvalues --   -0.64568  -0.62166  -0.60392  -0.58861  -0.57050
 Alpha  occ. eigenvalues --   -0.55333  -0.54706  -0.53158  -0.52915  -0.52157
 Alpha  occ. eigenvalues --   -0.51857  -0.49401  -0.49003  -0.48951  -0.47406
 Alpha  occ. eigenvalues --   -0.46153  -0.45315  -0.45271  -0.44818  -0.43274
 Alpha  occ. eigenvalues --   -0.37416  -0.36418
 Alpha virt. eigenvalues --    0.04897   0.11225   0.16387   0.20948   0.23275
 Alpha virt. eigenvalues --    0.24479   0.26200   0.27218   0.27666   0.28573
 Alpha virt. eigenvalues --    0.29229   0.30960   0.31802   0.31963   0.32543

 Mulliken charges:
               1
     1  C   -0.307040
     2  C   -0.297679
     3  C   -0.485204
     4  H    0.169700
     5  H    0.137491
     6  H    0.152620
     7  H    0.146462
     8  H    0.145824
     9  H    0.184147
    10  H    0.155548
    11  C   -0.297407
    12  C   -0.299052
    13  C   -0.475156
    14  H    0.151239
    15  H    0.147456
    16  H    0.152496
    17  H    0.145485
    18  H    0.154664
    19  H    0.156617
    20  H    0.157788
    21  C   -0.170326
    22  C   -0.219131
    23  C   -0.172235
    24  C    0.156464
    25  C   -0.170458
    26  C   -0.218844
    27  H    0.225918
    28  H    0.224066
    29  H    0.280212
    30  H    0.275575
    31  H    0.223652
    32  N    0.495881
    33  O   -0.458555
    34  O   -0.468220
 Sum of Mulliken charges =  -0.00000

 Dipole moment (field-independent basis, Debye):
    X=              2.3801    Y=              4.0007    Z=              2.1837  Tot=              5.1418
 Quadrupole moment (field-independent basis, Debye-Ang):
   XX=            -82.0252   YY=            -98.3078   ZZ=            -93.8732
   XY=              9.8914   XZ=              2.7483   YZ=              0.0112

 Normal termination of Gaussian 16 at Thu May  6 05:46:49 2021.
