 Gaussian 16, Revision A.03,
 Gaussian 16:  EM64L-G16RevA.03 25-Dec-2016

 -------------
 #p 6-31g* mp2
 -------------

 ------------------------------------------------------
 Input file generated by CHIRIPA (05-May-2021 14:55:20)
 ------------------------------------------------------
 Symbolic Z-matrix:
 Charge =  0 Multiplicity = 1

                         Standard orientation:
 ---------------------------------------------------------------------
 Center     Atomic      Atomic             Coordinates (Angstroms)
 Number     Number       Type             X           Y           Z
 ---------------------------------------------------------------------
      1          6           0       -5.780125    1.545997    0.115913
      2          6           0       -5.888923    0.153655    0.193822
      3          6           0       -4.748906   -0.652606    0.124171
      4          6           0       -3.510343   -0.030314   -0.024168
      5          6           0       -3.369347    1.354212   -0.104769
      6          6           0       -4.522900    2.140783   -0.032872
      7          1           0       -6.670976    2.164672    0.170892
      8          1           0       -6.864002   -0.311009    0.309379
      9          1           0       -4.804371   -1.732890    0.181857
     10          1           0       -2.383657    1.788477   -0.219865
     11          1           0       -4.435391    3.221844   -0.093653
     12          7           0       -2.296292   -0.873444   -0.099093
     13          8           0       -1.216669   -0.300774   -0.229863
     14          8           0       -2.447331   -2.090994   -0.025632
     15          6           0        4.128321   -0.420383   -0.329268
     16          6           0        3.440661   -1.527545    0.470294
     17          6           0        2.199874   -2.080245   -0.231678
     18          1           0        3.412394    0.393826   -0.506632
     19          1           0        4.408394   -0.811102   -1.317344
     20          1           0        3.163207   -1.135253    1.457078
     21          1           0        4.158364   -2.339129    0.645939
     22          1           0        2.463839   -2.497485   -1.208834
     23          1           0        1.463027   -1.286769   -0.393086
     24          1           0        1.723959   -2.870484    0.357294
     25          6           0        5.370388    0.142255    0.359526
     26          6           0        6.058048    1.249417   -0.440037
     27          6           0        7.298835    1.802117    0.261934
     28          1           0        5.090315    0.532973    1.347601
     29          1           0        6.086315   -0.671955    0.536888
     30          1           0        5.340345    2.060999   -0.615682
     31          1           0        6.335501    0.857124   -1.426820
     32          1           0        8.035682    1.008641    0.423343
     33          1           0        7.034870    2.219356    1.239091
     34          1           0        7.774751    2.592355   -0.327038
 ---------------------------------------------------------------------

 SCF Done:  E(RHF) =  -669.536134133     A.U. after   15 cycles
 E2 =    -0.2090856548D+01 EUMP2 =    -0.67162699068175D+03

 The electronic state is 1-A.
 Alpha  occ. eigenvalues --  -20.60961 -20.60949 -15.85990 -11.31309 -11.27871
 Alpha  occ. eigenvalues --  -11.27866 -11.27606 -11.26877 -11.26867 -11.21002
 Alpha  occ. eigenvalues --  -11.20615 -11.20592 -11.20374 -11.20294 -11.19179
 Alpha  occ. eigenvalues --   -1.60012  -1.39570  -1.19475  -1.08879  -1.07513
 Alpha  occ. eigenvalues --   -1.04871  -1.02509  -0.95723  -0.94925  -0.86272
 Alpha  occ. eigenvalues --   -0.85935  -0.82557  -0.78618  -0.77609  -0.77276
 Alpha  occ. eigenvalues --   -0.72212  -0.71327  -0.70584  -0.65131  -0.64874
 Alpha  occ. eigenvalues --   -0.64154  -0.62219  -0.59906  -0.58390  -0.56533
 Alpha  occ. eigenvalues --   -0.55377  -0.54210  -0.53203  -0.52963  -0.51602
 Alpha  occ. eigenvalues --   -0.51359  -0.49207  -0.48956  -0.48618  -0.46889
 Alpha  occ. eigenvalues --   -0.45653  -0.44984  -0.44806  -0.44696  -0.42768
 Alpha  occ. eigenvalues --   -0.37454  -0.36472
 Alpha virt. eigenvalues --    0.04926   0.11183   0.16428   0.21317   0.23709
 Alpha virt. eigenvalues --    0.25408   0.27235   0.27526   0.28178   0.28365
 Alpha virt. eigenvalues --    0.29185   0.30886   0.32337   0.32495   0.32627

 Mulliken charges:
               1
     1  C   -0.170585
     2  C   -0.218588
     3  C   -0.170511
     4  C    0.157678
     5  C   -0.170795
     6  C   -0.218524
     7  H    0.226031
     8  H    0.223879
     9  H    0.275971
    10  H    0.275509
    11  H    0.223827
    12  N    0.490621
    13  O   -0.461612
    14  O   -0.458292
    15  C   -0.297532
    16  C   -0.299267
    17  C   -0.483368
    18  H    0.150558
    19  H    0.147316
    20  H    0.149349
    21  H    0.145932
    22  H    0.146726
    23  H    0.182303
    24  H    0.160339
    25  C   -0.297364
    26  C   -0.298799
    27  C   -0.475119
    28  H    0.147947
    29  H    0.148003
    30  H    0.150660
    31  H    0.151060
    32  H    0.154505
    33  H    0.154085
    34  H    0.158058
 Sum of Mulliken charges =  -0.00000

 Dipole moment (field-independent basis, Debye):
    X=             -4.6875    Y=              2.9846    Z=              0.2493  Tot=              5.5626
 Quadrupole moment (field-independent basis, Debye-Ang):
   XX=            -65.4194   YY=            -91.7507   ZZ=            -95.7066
   XY=             -8.5756   XZ=             -1.8450   YZ=             -0.3915

 Normal termination of Gaussian 16 at Wed May  5 20:32:39 2021.
