 Gaussian 16, Revision A.03,
 Gaussian 16:  EM64L-G16RevA.03 25-Dec-2016

 -------------
 #p 6-31g* mp2
 -------------

 ------------------------------------------------------
 Input file generated by CHIRIPA (05-May-2021 14:55:21)
 ------------------------------------------------------
 Symbolic Z-matrix:
 Charge =  0 Multiplicity = 1

                         Standard orientation:
 ---------------------------------------------------------------------
 Center     Atomic      Atomic             Coordinates (Angstroms)
 Number     Number       Type             X           Y           Z
 ---------------------------------------------------------------------
      1          6           0        4.086649   -1.607270   -0.732485
      2          6           0        4.737615   -0.457044   -0.274508
      3          6           0        4.005266    0.680413    0.078203
      4          6           0        2.617084    0.632602   -0.039927
      5          6           0        1.939519   -0.498313   -0.492948
      6          6           0        2.692137   -1.624204   -0.840054
      7          1           0        4.663429   -2.486382   -1.004303
      8          1           0        5.820500   -0.441032   -0.189955
      9          1           0        4.483641    1.584189    0.435642
     10          1           0        0.858872   -0.484122   -0.566556
     11          1           0        2.183907   -2.516090   -1.195423
     12          7           0        1.831050    1.830655    0.330505
     13          8           0        0.609051    1.763077    0.217418
     14          8           0        2.451839    2.814581    0.726923
     15          6           0       -3.094757   -0.869667    0.684665
     16          6           0       -2.044488   -1.853817    0.168553
     17          6           0       -1.210363   -2.471024    1.291533
     18          1           0       -2.594141   -0.073022    1.251836
     19          1           0       -3.756808   -1.388205    1.391915
     20          1           0       -1.385464   -1.333928   -0.538568
     21          1           0       -2.547645   -2.648108   -0.397618
     22          1           0       -1.851250   -3.014195    1.993551
     23          1           0       -0.682466   -1.692548    1.851800
     24          1           0       -0.465877   -3.171371    0.900233
     25          6           0       -3.936620   -0.244313   -0.426158
     26          6           0       -4.986889    0.739835    0.089953
     27          6           0       -5.821015    1.357044   -1.033027
     28          1           0       -3.274570    0.274224   -1.133409
     29          1           0       -4.437236   -1.040959   -0.993330
     30          1           0       -4.483732    1.534128    0.656124
     31          1           0       -5.645914    0.219948    0.797074
     32          1           0       -6.348912    0.578568   -1.593294
     33          1           0       -5.180127    1.900214   -1.735045
     34          1           0       -6.565501    2.057391   -0.641728
 ---------------------------------------------------------------------

 SCF Done:  E(RHF) =  -669.535819145     A.U. after   15 cycles
 E2 =    -0.2091799028D+01 EUMP2 =    -0.67162761817219D+03

 The electronic state is 1-A.
 Alpha  occ. eigenvalues --  -20.60833 -20.60822 -15.85879 -11.31194 -11.27768
 Alpha  occ. eigenvalues --  -11.27740 -11.27506 -11.26777 -11.26761 -11.21805
 Alpha  occ. eigenvalues --  -11.21307 -11.21197 -11.21147 -11.21039 -11.20695
 Alpha  occ. eigenvalues --   -1.59902  -1.39458  -1.19369  -1.08774  -1.08235
 Alpha  occ. eigenvalues --   -1.04766  -1.03415  -0.95846  -0.95613  -0.86865
 Alpha  occ. eigenvalues --   -0.86169  -0.82448  -0.79501  -0.78013  -0.77501
 Alpha  occ. eigenvalues --   -0.72101  -0.71222  -0.70492  -0.65023  -0.64965
 Alpha  occ. eigenvalues --   -0.64678  -0.62168  -0.60752  -0.59252  -0.57456
 Alpha  occ. eigenvalues --   -0.55303  -0.55073  -0.53097  -0.52859  -0.52588
 Alpha  occ. eigenvalues --   -0.52269  -0.49779  -0.48857  -0.48852  -0.47806
 Alpha  occ. eigenvalues --   -0.46519  -0.45563  -0.45431  -0.44870  -0.43633
 Alpha  occ. eigenvalues --   -0.37352  -0.36358
 Alpha virt. eigenvalues --    0.05015   0.11261   0.16503   0.19800   0.23112
 Alpha virt. eigenvalues --    0.24146   0.26137   0.26916   0.27539   0.28314
 Alpha virt. eigenvalues --    0.29521   0.29818   0.31518   0.31800   0.32497

 Mulliken charges:
               1
     1  C   -0.170468
     2  C   -0.219071
     3  C   -0.169894
     4  C    0.157368
     5  C   -0.178613
     6  C   -0.222656
     7  H    0.225713
     8  H    0.223485
     9  H    0.275555
    10  H    0.289691
    11  H    0.224043
    12  N    0.487010
    13  O   -0.462407
    14  O   -0.459795
    15  C   -0.299901
    16  C   -0.303491
    17  C   -0.478767
    18  H    0.162211
    19  H    0.148259
    20  H    0.146020
    21  H    0.151726
    22  H    0.158453
    23  H    0.161663
    24  H    0.151486
    25  C   -0.298967
    26  C   -0.300636
    27  C   -0.475963
    28  H    0.154011
    29  H    0.146085
    30  H    0.158003
    31  H    0.149858
    32  H    0.152807
    33  H    0.157123
    34  H    0.160057
 Sum of Mulliken charges =  -0.00000

 Dipole moment (field-independent basis, Debye):
    X=              2.7382    Y=             -4.1025    Z=             -1.2232  Tot=              5.0818
 Quadrupole moment (field-independent basis, Debye-Ang):
   XX=            -76.7744   YY=            -99.4124   ZZ=            -95.6273
   XY=             -6.5158   XZ=             -3.2206   YZ=              0.3201

 Normal termination of Gaussian 16 at Thu May  6 09:19:10 2021.
