 Gaussian 16, Revision A.03,
 Gaussian 16:  EM64L-G16RevA.03 25-Dec-2016

 -------------
 #p 6-31g* mp2
 -------------

 ------------------------------------------------------
 Input file generated by CHIRIPA (05-May-2021 14:57:22)
 ------------------------------------------------------
 Symbolic Z-matrix:
 Charge =  0 Multiplicity = 1

                         Standard orientation:
 ---------------------------------------------------------------------
 Center     Atomic      Atomic             Coordinates (Angstroms)
 Number     Number       Type             X           Y           Z
 ---------------------------------------------------------------------
      1          6           0       -5.536742    0.667547   -0.945148
      2          6           0       -4.328949    1.363677   -1.059870
      3          6           0       -3.168741    0.877937   -0.449524
      4          6           0       -3.252748   -0.312372    0.271167
      5          6           0       -4.441195   -1.028835    0.403702
      6          6           0       -5.588918   -0.524386   -0.215015
      7          1           0       -6.433170    1.052149   -1.422531
      8          1           0       -4.285467    2.289603   -1.626276
      9          1           0       -2.220555    1.396659   -0.522249
     10          1           0       -4.453332   -1.949157    0.974910
     11          1           0       -6.525526   -1.067127   -0.124234
     12          7           0       -2.031097   -0.836506    0.921745
     13          8           0       -2.131456   -1.887438    1.551115
     14          8           0       -0.996340   -0.186466    0.789978
     15          6           0        2.346290    2.387872    0.517933
     16          6           0        3.570194    2.018963    1.085814
     17          6           0        4.193092    0.823383    0.715497
     18          6           0        3.561189    0.016985   -0.229866
     19          6           0        2.341816    0.357045   -0.813626
     20          6           0        1.737082    1.557200   -0.428307
     21          1           0        1.869463    3.318405    0.811431
     22          1           0        4.045619    2.662111    1.820916
     23          1           0        5.140623    0.513526    1.139279
     24          1           0        1.892186   -0.304760   -1.543878
     25          1           0        0.786586    1.841157   -0.870992
     26          7           0        4.211009   -1.251144   -0.629845
     27          8           0        3.633789   -1.944120   -1.464852
     28          8           0        5.285254   -1.528114   -0.100768
 ---------------------------------------------------------------------

 SCF Done:  E(RHF) =  -868.337379364     A.U. after   16 cycles
 E2 =    -0.2600093121D+01 EUMP2 =    -0.87093747248536D+03

 The electronic state is 1-A.
 Alpha  occ. eigenvalues --  -20.61307 -20.61255 -20.59935 -20.59925 -15.86328
 Alpha  occ. eigenvalues --  -15.84983 -11.31717 -11.30231 -11.28368 -11.28226
 Alpha  occ. eigenvalues --  -11.27984 -11.27319 -11.27242 -11.26825 -11.26772
 Alpha  occ. eigenvalues --  -11.26587 -11.25866 -11.25837  -1.60350  -1.59006
 Alpha  occ. eigenvalues --   -1.39910  -1.38565  -1.19879  -1.18402  -1.09260
 Alpha  occ. eigenvalues --   -1.07841  -1.05290  -1.03799  -0.96100  -0.94692
 Alpha  occ. eigenvalues --   -0.86685  -0.85231  -0.82940  -0.81533  -0.78002
 Alpha  occ. eigenvalues --   -0.76581  -0.72550  -0.71671  -0.71215  -0.70987
 Alpha  occ. eigenvalues --   -0.70316  -0.69573  -0.65534  -0.65291  -0.64084
 Alpha  occ. eigenvalues --   -0.63863  -0.62652  -0.61178  -0.55766  -0.54378
 Alpha  occ. eigenvalues --   -0.53605  -0.53386  -0.52096  -0.51945  -0.49311
 Alpha  occ. eigenvalues --   -0.49286  -0.47968  -0.47960  -0.45313  -0.43996
 Alpha  occ. eigenvalues --   -0.37838  -0.36890  -0.36387  -0.35320
 Alpha virt. eigenvalues --    0.04537   0.05980   0.10763   0.12276   0.16045
 Alpha virt. eigenvalues --    0.17464   0.19802   0.22061   0.25175   0.27232
 Alpha virt. eigenvalues --    0.28878   0.29092   0.30292   0.31212   0.32875

 Mulliken charges:
               1
     1  C   -0.170374
     2  C   -0.218411
     3  C   -0.171433
     4  C    0.158941
     5  C   -0.169887
     6  C   -0.218052
     7  H    0.227357
     8  H    0.223142
     9  H    0.267626
    10  H    0.277904
    11  H    0.225758
    12  N    0.491258
    13  O   -0.454743
    14  O   -0.468472
    15  C   -0.171059
    16  C   -0.218208
    17  C   -0.171365
    18  C    0.158082
    19  C   -0.161883
    20  C   -0.201055
    21  H    0.219923
    22  H    0.219636
    23  H    0.272786
    24  H    0.273557
    25  H    0.215076
    26  N    0.488580
    27  O   -0.461407
    28  O   -0.463275
 Sum of Mulliken charges =  -0.00000

 Dipole moment (field-independent basis, Debye):
    X=             -6.9408    Y=              6.1358    Z=             -0.8270  Tot=              9.3009
 Quadrupole moment (field-independent basis, Debye-Ang):
   XX=            -89.5408   YY=           -103.8496   ZZ=           -105.4398
   XY=             14.4744   XZ=             13.6778   YZ=             -0.8113

 Normal termination of Gaussian 16 at Thu May  6 19:31:09 2021.
