 Gaussian 16, Revision A.03,
 Gaussian 16:  EM64L-G16RevA.03 25-Dec-2016

 -------------
 #p 6-31g* mp2
 -------------

 ------------------------------------------------------
 Input file generated by CHIRIPA (05-May-2021 14:53:12)
 ------------------------------------------------------
 Symbolic Z-matrix:
 Charge =  0 Multiplicity = 1

                         Standard orientation:
 ---------------------------------------------------------------------
 Center     Atomic      Atomic             Coordinates (Angstroms)
 Number     Number       Type             X           Y           Z
 ---------------------------------------------------------------------
      1          6           0       -3.821073    0.767123    0.398495
      2          6           0       -4.075986    2.026147   -0.430879
      3          6           0       -3.979652    3.308466    0.396268
      4          1           0       -4.544078    0.727392    1.224709
      5          1           0       -2.825076    0.834400    0.857689
      6          1           0       -5.070649    1.955890   -0.889492
      7          1           0       -3.352412    2.062787   -1.255328
      8          1           0       -2.984329    3.405653    0.841789
      9          1           0       -4.712329    3.298149    1.209704
     10          1           0       -4.165308    4.196240   -0.216308
     11          6           0       -3.913901   -0.522932   -0.414444
     12          6           0       -3.658988   -1.781956    0.414930
     13          6           0       -3.755323   -3.064275   -0.412217
     14          1           0       -4.909898   -0.590208   -0.873638
     15          1           0       -3.190896   -0.483201   -1.240659
     16          1           0       -4.382562   -1.818595    1.239379
     17          1           0       -2.664325   -1.711699    0.873542
     18          1           0       -3.022646   -3.053958   -1.225653
     19          1           0       -4.750645   -3.161462   -0.857739
     20          1           0       -3.569666   -3.952049    0.200359
     21          6           0        0.601957   -0.795617    0.152979
     22          6           0        1.402671   -0.799736    1.299870
     23          6           0        2.744572   -0.413714    1.230327
     24          6           0        3.255384   -0.027692   -0.007957
     25          6           0        2.483115   -0.013004   -1.168420
     26          6           0        1.143779   -0.402958   -1.075340
     27          1           0       -0.439468   -1.097015    0.216143
     28          1           0        0.984569   -1.104200    2.255138
     29          1           0        3.386961   -0.407562    2.102519
     30          1           0        2.928181    0.295563   -2.106567
     31          1           0        0.524292   -0.398780   -1.967676
     32          7           0        4.674638    0.383053   -0.094037
     33          8           0        5.100787    0.718866   -1.196881
     34          8           0        5.334024    0.361404    0.942966
 ---------------------------------------------------------------------

 SCF Done:  E(RHF) =  -669.535477377     A.U. after   15 cycles
 E2 =    -0.2091513242D+01 EUMP2 =    -0.67162699061915D+03

 The electronic state is 1-A.
 Alpha  occ. eigenvalues --  -20.60762 -20.60756 -15.85816 -11.31186 -11.27757
 Alpha  occ. eigenvalues --  -11.27753 -11.27476 -11.26776 -11.26764 -11.22836
 Alpha  occ. eigenvalues --  -11.22478 -11.22354 -11.22287 -11.22110 -11.21649
 Alpha  occ. eigenvalues --   -1.59837  -1.39390  -1.19359  -1.09432  -1.08751
 Alpha  occ. eigenvalues --   -1.04764  -1.04454  -0.96875  -0.95588  -0.87889
 Alpha  occ. eigenvalues --   -0.86161  -0.82423  -0.80539  -0.79219  -0.77466
 Alpha  occ. eigenvalues --   -0.72033  -0.71160  -0.70505  -0.66080  -0.65011
 Alpha  occ. eigenvalues --   -0.64763  -0.62112  -0.61869  -0.60255  -0.58482
 Alpha  occ. eigenvalues --   -0.56165  -0.55269  -0.53549  -0.53283  -0.53090
 Alpha  occ. eigenvalues --   -0.52856  -0.50822  -0.48840  -0.48788  -0.48784
 Alpha  occ. eigenvalues --   -0.47603  -0.46742  -0.46681  -0.44795  -0.44714
 Alpha  occ. eigenvalues --   -0.37336  -0.36370
 Alpha virt. eigenvalues --    0.05058   0.11282   0.16492   0.18193   0.22949
 Alpha virt. eigenvalues --    0.23603   0.25196   0.25489   0.27076   0.27805
 Alpha virt. eigenvalues --    0.29511   0.30440   0.30903   0.30932   0.31992

 Mulliken charges:
               1
     1  C   -0.299136
     2  C   -0.299714
     3  C   -0.476498
     4  H    0.152879
     5  H    0.145920
     6  H    0.154018
     7  H    0.151067
     8  H    0.156504
     9  H    0.156356
    10  H    0.162939
    11  C   -0.299269
    12  C   -0.303862
    13  C   -0.476060
    14  H    0.155171
    15  H    0.143859
    16  H    0.158459
    17  H    0.141464
    18  H    0.152801
    19  H    0.160215
    20  H    0.163368
    21  C   -0.179242
    22  C   -0.221561
    23  C   -0.170692
    24  C    0.158315
    25  C   -0.170573
    26  C   -0.221221
    27  H    0.239096
    28  H    0.223523
    29  H    0.275664
    30  H    0.275559
    31  H    0.223484
    32  N    0.487983
    33  O   -0.460420
    34  O   -0.460397
 Sum of Mulliken charges =  -0.00000

 Dipole moment (field-independent basis, Debye):
    X=             -5.2432    Y=             -1.4164    Z=              0.3081  Tot=              5.4399
 Quadrupole moment (field-independent basis, Debye-Ang):
   XX=           -125.7729   YY=            -95.9876   ZZ=            -90.1352
   XY=             -4.6069   XZ=              1.4060   YZ=             -1.4063

 Normal termination of Gaussian 16 at Wed May  5 17:00:51 2021.
