 Gaussian 16, Revision A.03,
 Gaussian 16:  EM64L-G16RevA.03 25-Dec-2016

 -------------
 #p 6-31g* mp2
 -------------

 ------------------------------------------------------
 Input file generated by CHIRIPA (05-May-2021 14:51:13)
 ------------------------------------------------------
 Symbolic Z-matrix:
 Charge =  0 Multiplicity = 1

                         Standard orientation:
 ---------------------------------------------------------------------
 Center     Atomic      Atomic             Coordinates (Angstroms)
 Number     Number       Type             X           Y           Z
 ---------------------------------------------------------------------
      1          6           0       -2.897828    0.349166    0.286533
      2          6           0       -2.169270    1.604160    0.768382
      3          6           0       -3.112922    2.632488    1.392767
      4          1           0       -3.665204    0.636588   -0.445223
      5          1           0       -3.428915   -0.106142    1.133904
      6          1           0       -1.638586    2.056197   -0.079353
      7          1           0       -1.403410    1.313697    1.498933
      8          1           0       -3.633064    2.204063    2.255613
      9          1           0       -3.869577    2.950782    0.668360
     10          1           0       -2.571206    3.521569    1.730313
     11          6           0       -1.967840   -0.688235   -0.340084
     12          6           0       -2.696398   -1.943229   -0.821932
     13          6           0       -1.752746   -2.971557   -1.446317
     14          1           0       -1.436753   -0.232926   -1.187454
     15          1           0       -1.200464   -0.975657    0.391672
     16          1           0       -3.462258   -1.652765   -1.552484
     17          1           0       -3.227082   -2.395265    0.025802
     18          1           0       -0.996092   -3.289850   -0.721911
     19          1           0       -1.232604   -2.543131   -2.309164
     20          1           0       -2.294462   -3.860638   -1.783863
     21          6           0        2.736384   -0.295479    0.551229
     22          6           0        2.140399   -1.703446    0.530914
     23          6           0        2.757834   -2.622013    1.585810
     24          1           0        3.821469   -0.361183    0.392427
     25          1           0        2.592415    0.141724    1.548988
     26          1           0        2.284222   -2.137337   -0.466919
     27          1           0        1.056579   -1.634369    0.689592
     28          1           0        2.601940   -2.214778    2.590030
     29          1           0        3.836557   -2.720603    1.426947
     30          1           0        2.317257   -3.623370    1.553626
     31          6           0        2.129284    0.634548   -0.497679
     32          6           0        2.725269    2.042515   -0.477364
     33          6           0        2.107834    2.961081   -1.532259
     34          1           0        2.273253    0.197345   -1.495437
     35          1           0        1.044199    0.700251   -0.338876
     36          1           0        3.809089    1.973438   -0.636042
     37          1           0        2.581447    2.476406    0.520469
     38          1           0        1.029111    3.059671   -1.373398
     39          1           0        2.263728    2.553847   -2.536480
     40          1           0        2.548411    3.962439   -1.500076
 ---------------------------------------------------------------------

 SCF Done:  E(RHF) =  -470.732917086     A.U. after   11 cycles
 E2 =    -0.1584747337D+01 EUMP2 =    -0.47231766442318D+03

 The electronic state is 1-A.
 Alpha  occ. eigenvalues --  -11.21709 -11.21625 -11.21547 -11.21541 -11.21458
 Alpha  occ. eigenvalues --  -11.21388 -11.21339 -11.21249 -11.21142 -11.21058
 Alpha  occ. eigenvalues --  -11.21058 -11.21054  -1.08508  -1.08360  -1.03586
 Alpha  occ. eigenvalues --   -1.03487  -0.96026  -0.95939  -0.87040  -0.86959
 Alpha  occ. eigenvalues --   -0.79688  -0.79521  -0.78523  -0.77988  -0.65173
 Alpha  occ. eigenvalues --   -0.64971  -0.60998  -0.60884  -0.59430  -0.59269
 Alpha  occ. eigenvalues --   -0.57683  -0.57508  -0.55322  -0.55220  -0.52725
 Alpha  occ. eigenvalues --   -0.52644  -0.52448  -0.52368  -0.50011  -0.49849
 Alpha  occ. eigenvalues --   -0.48120  -0.47775  -0.46802  -0.46609  -0.46452
 Alpha  occ. eigenvalues --   -0.45701  -0.45631  -0.44943  -0.43831  -0.43730
 Alpha virt. eigenvalues --    0.20502   0.21962   0.23573   0.24566   0.25024
 Alpha virt. eigenvalues --    0.26181   0.26794   0.27153   0.28342   0.30348
 Alpha virt. eigenvalues --    0.30775   0.31262   0.31704   0.31725   0.32337

 Mulliken charges:
               1
     1  C   -0.297432
     2  C   -0.302745
     3  C   -0.475727
     4  H    0.149997
     5  H    0.149602
     6  H    0.153558
     7  H    0.151668
     8  H    0.155518
     9  H    0.155637
    10  H    0.160536
    11  C   -0.306787
    12  C   -0.299443
    13  C   -0.477097
    14  H    0.151999
    15  H    0.155908
    16  H    0.152000
    17  H    0.151620
    18  H    0.157259
    19  H    0.155476
    20  H    0.160013
    21  C   -0.297659
    22  C   -0.307796
    23  C   -0.475297
    24  H    0.149403
    25  H    0.148600
    26  H    0.152512
    27  H    0.159083
    28  H    0.154627
    29  H    0.155350
    30  H    0.159716
    31  C   -0.305931
    32  C   -0.298981
    33  C   -0.477109
    34  H    0.148522
    35  H    0.159245
    36  H    0.151615
    37  H    0.151722
    38  H    0.155734
    39  H    0.154900
    40  H    0.160185
 Sum of Mulliken charges =  -0.00000

 Dipole moment (field-independent basis, Debye):
    X=             -0.0556    Y=             -0.0053    Z=             -0.0074  Tot=              0.0563
 Quadrupole moment (field-independent basis, Debye-Ang):
   XX=            -84.7471   YY=            -85.8923   ZZ=            -84.2331
   XY=              0.4283   XZ=             -0.3645   YZ=              0.0059

 Normal termination of Gaussian 16 at Wed May  5 21:34:09 2021.
