 Gaussian 16, Revision A.03,
 Gaussian 16:  EM64L-G16RevA.03 25-Dec-2016

 -------------
 #p 6-31g* mp2
 -------------

 ------------------------------------------------------
 Input file generated by CHIRIPA (05-May-2021 14:57:21)
 ------------------------------------------------------
 Symbolic Z-matrix:
 Charge =  0 Multiplicity = 1

                         Standard orientation:
 ---------------------------------------------------------------------
 Center     Atomic      Atomic             Coordinates (Angstroms)
 Number     Number       Type             X           Y           Z
 ---------------------------------------------------------------------
      1          6           0        0.654598   -2.516404   -0.256976
      2          6           0        0.363575   -1.386027   -1.027737
      3          6           0        1.212857   -0.275668   -1.008494
      4          6           0        2.349663   -0.330041   -0.203505
      5          6           0        2.666810   -1.441644    0.575627
      6          6           0        1.803261   -2.540563    0.540840
      7          1           0       -0.010686   -3.374514   -0.277962
      8          1           0       -0.527786   -1.364462   -1.648266
      9          1           0        1.011552    0.612333   -1.595306
     10          1           0        3.562804   -1.433607    1.184353
     11          1           0        2.031789   -3.417076    1.140460
     12          7           0        3.256312    0.839391   -0.174905
     13          8           0        4.251556    0.766554    0.542604
     14          8           0        2.954531    1.806685   -0.870540
     15          6           0       -3.129204   -1.807616   -0.060495
     16          6           0       -2.518462   -1.431674    1.140414
     17          6           0       -2.000236   -0.143119    1.300466
     18          6           0       -2.110428    0.748071    0.234197
     19          6           0       -2.713254    0.403443   -0.974571
     20          6           0       -3.224483   -0.890475   -1.112301
     21          1           0       -3.529057   -2.810680   -0.176156
     22          1           0       -2.443055   -2.141850    1.958954
     23          1           0       -1.522415    0.174335    2.219339
     24          1           0       -2.773549    1.133387   -1.772671
     25          1           0       -3.698270   -1.179668   -2.046077
     26          7           0       -1.565509    2.115046    0.391821
     27          8           0       -1.675144    2.881607   -0.562643
     28          8           0       -1.039084    2.394036    1.466846
 ---------------------------------------------------------------------

 SCF Done:  E(RHF) =  -868.333198558     A.U. after   16 cycles
 E2 =    -0.2608085765D+01 EUMP2 =    -0.87094128432250D+03

 The electronic state is 1-A.
 Alpha  occ. eigenvalues --  -20.61215 -20.61199 -20.60404 -20.60362 -15.86264
 Alpha  occ. eigenvalues --  -15.85444 -11.31940 -11.31028 -11.28576 -11.28493
 Alpha  occ. eigenvalues --  -11.28397 -11.27685 -11.27630 -11.27602 -11.27514
 Alpha  occ. eigenvalues --  -11.27395 -11.26735 -11.26508  -1.60273  -1.59455
 Alpha  occ. eigenvalues --   -1.39819  -1.39003  -1.20218  -1.19196  -1.09539
 Alpha  occ. eigenvalues --   -1.08572  -1.05638  -1.04642  -0.96297  -0.95378
 Alpha  occ. eigenvalues --   -0.87008  -0.86037  -0.83113  -0.82210  -0.78095
 Alpha  occ. eigenvalues --   -0.77221  -0.72473  -0.71681  -0.71611  -0.71282
 Alpha  occ. eigenvalues --   -0.70773  -0.70347  -0.65821  -0.65614  -0.64854
 Alpha  occ. eigenvalues --   -0.64726  -0.62940  -0.62044  -0.56126  -0.55208
 Alpha  occ. eigenvalues --   -0.54546  -0.53696  -0.52863  -0.52154  -0.49254
 Alpha  occ. eigenvalues --   -0.49213  -0.48438  -0.48403  -0.45145  -0.44361
 Alpha  occ. eigenvalues --   -0.38435  -0.37692  -0.36654  -0.36038
 Alpha virt. eigenvalues --    0.04331   0.05336   0.10290   0.11396   0.15642
 Alpha virt. eigenvalues --    0.16897   0.20342   0.21763   0.26275   0.27167
 Alpha virt. eigenvalues --    0.27693   0.28675   0.30079   0.31270   0.31871

 Mulliken charges:
               1
     1  C   -0.172977
     2  C   -0.212714
     3  C   -0.182840
     4  C    0.162276
     5  C   -0.172624
     6  C   -0.220817
     7  H    0.216200
     8  H    0.225791
     9  H    0.279398
    10  H    0.275391
    11  H    0.220201
    12  N    0.488502
    13  O   -0.461873
    14  O   -0.454504
    15  C   -0.177717
    16  C   -0.214426
    17  C   -0.163981
    18  C    0.165390
    19  C   -0.181016
    20  C   -0.228096
    21  H    0.225778
    22  H    0.224458
    23  H    0.279853
    24  H    0.278656
    25  H    0.225941
    26  N    0.487294
    27  O   -0.457726
    28  O   -0.453819
 Sum of Mulliken charges =  -0.00000

 Dipole moment (field-independent basis, Debye):
    X=             -5.1990    Y=             -8.5660    Z=             -0.4855  Tot=             10.0320
 Quadrupole moment (field-independent basis, Debye-Ang):
   XX=           -110.8049   YY=           -109.3507   ZZ=            -99.0979
   XY=             -1.7240   XZ=              4.6167   YZ=             -3.7272

 Normal termination of Gaussian 16 at Thu May  6 17:51:52 2021.
