 Gaussian 16, Revision A.03,
 Gaussian 16:  EM64L-G16RevA.03 25-Dec-2016

 -------------
 #p 6-31g* mp2
 -------------

 ------------------------------------------------------
 Input file generated by CHIRIPA (05-May-2021 14:53:13)
 ------------------------------------------------------
 Symbolic Z-matrix:
 Charge =  0 Multiplicity = 1

                         Standard orientation:
 ---------------------------------------------------------------------
 Center     Atomic      Atomic             Coordinates (Angstroms)
 Number     Number       Type             X           Y           Z
 ---------------------------------------------------------------------
      1          6           0       -4.257690   -0.430138    0.368259
      2          6           0       -2.958234    0.344334    0.145560
      3          6           0       -1.781498   -0.237538    0.929468
      4          1           0       -4.495699   -0.433792    1.440771
      5          1           0       -4.105536   -1.479020    0.078276
      6          1           0       -3.113199    1.391746    0.434574
      7          1           0       -2.723392    0.346309   -0.926569
      8          1           0       -1.598427   -1.276041    0.635196
      9          1           0       -1.990448   -0.224664    2.004073
     10          1           0       -0.862778    0.331323    0.755655
     11          6           0       -5.443210    0.139505   -0.408772
     12          6           0       -6.742666   -0.634967   -0.186073
     13          6           0       -7.919402   -0.053095   -0.969981
     14          1           0       -5.595365    1.188387   -0.118789
     15          1           0       -5.205201    0.143160   -1.481284
     16          1           0       -6.977508   -0.636941    0.886056
     17          1           0       -6.587701   -1.682379   -0.475087
     18          1           0       -7.710452   -0.065969   -2.044586
     19          1           0       -8.102474    0.985408   -0.675709
     20          1           0       -8.838122   -0.621956   -0.796168
     21          6           0        1.783503    1.289407    0.995392
     22          6           0        2.511926    1.889871   -0.036772
     23          6           0        3.625075    1.247517   -0.587070
     24          6           0        3.983339   -0.000151   -0.078876
     25          6           0        3.277857   -0.624246    0.948788
     26          6           0        2.168115    0.036474    1.484016
     27          1           0        0.920105    1.795537    1.417024
     28          1           0        2.215537    2.862854   -0.418220
     29          1           0        4.206878    1.689579   -1.386761
     30          1           0        3.597614   -1.594806    1.308212
     31          1           0        1.604286   -0.432244    2.285543
     32          7           0        5.159976   -0.689904   -0.653475
     33          8           0        5.455089   -1.788558   -0.188175
     34          8           0        5.764832   -0.118817   -1.558266
 ---------------------------------------------------------------------

 SCF Done:  E(RHF) =  -669.534859799     A.U. after   15 cycles
 E2 =    -0.2091832187D+01 EUMP2 =    -0.67162669198570D+03

 The electronic state is 1-A.
 Alpha  occ. eigenvalues --  -20.60765 -20.60760 -15.85819 -11.31194 -11.27759
 Alpha  occ. eigenvalues --  -11.27744 -11.27480 -11.26781 -11.26756 -11.22310
 Alpha  occ. eigenvalues --  -11.21977 -11.21938 -11.21905 -11.21820 -11.21388
 Alpha  occ. eigenvalues --   -1.59841  -1.39394  -1.19367  -1.08962  -1.08765
 Alpha  occ. eigenvalues --   -1.04765  -1.04087  -0.96555  -0.95596  -0.87578
 Alpha  occ. eigenvalues --   -0.86159  -0.82426  -0.80161  -0.78750  -0.77465
 Alpha  occ. eigenvalues --   -0.72037  -0.71163  -0.70511  -0.65585  -0.65021
 Alpha  occ. eigenvalues --   -0.64769  -0.62110  -0.61478  -0.59965  -0.58169
 Alpha  occ. eigenvalues --   -0.55828  -0.55298  -0.53478  -0.53042  -0.52841
 Alpha  occ. eigenvalues --   -0.52766  -0.50479  -0.48797  -0.48791  -0.48467
 Alpha  occ. eigenvalues --   -0.47179  -0.46298  -0.46206  -0.44797  -0.44346
 Alpha  occ. eigenvalues --   -0.37294  -0.36360
 Alpha virt. eigenvalues --    0.05018   0.11242   0.16410   0.20854   0.22476
 Alpha virt. eigenvalues --    0.23948   0.26134   0.26571   0.26939   0.27514
 Alpha virt. eigenvalues --    0.28909   0.30251   0.30885   0.31573   0.32208

 Mulliken charges:
               1
     1  C   -0.298871
     2  C   -0.299128
     3  C   -0.483881
     4  H    0.149643
     5  H    0.151402
     6  H    0.149597
     7  H    0.154785
     8  H    0.159740
     9  H    0.152069
    10  H    0.158695
    11  C   -0.298649
    12  C   -0.300027
    13  C   -0.475973
    14  H    0.149248
    15  H    0.150700
    16  H    0.152082
    17  H    0.152902
    18  H    0.155853
    19  H    0.155197
    20  H    0.161405
    21  C   -0.172271
    22  C   -0.220081
    23  C   -0.171123
    24  C    0.158802
    25  C   -0.171600
    26  C   -0.215705
    27  H    0.227071
    28  H    0.223625
    29  H    0.275622
    30  H    0.275710
    31  H    0.225855
    32  N    0.488054
    33  O   -0.460331
    34  O   -0.460417
 Sum of Mulliken charges =  -0.00000

 Dipole moment (field-independent basis, Debye):
    X=             -4.2296    Y=              2.3964    Z=              1.9875  Tot=              5.2519
 Quadrupole moment (field-independent basis, Debye-Ang):
   XX=           -128.8171   YY=            -91.8333   ZZ=            -93.2631
   XY=             10.6049   XZ=              7.4351   YZ=             -2.3642

 Normal termination of Gaussian 16 at Thu May  6 17:04:12 2021.
