 Gaussian 16, Revision A.03,
 Gaussian 16:  EM64L-G16RevA.03 25-Dec-2016

 -------------
 #p 6-31g* mp2
 -------------

 ------------------------------------------------------
 Input file generated by CHIRIPA (05-May-2021 14:51:09)
 ------------------------------------------------------
 Symbolic Z-matrix:
 Charge =  0 Multiplicity = 1

                         Standard orientation:
 ---------------------------------------------------------------------
 Center     Atomic      Atomic             Coordinates (Angstroms)
 Number     Number       Type             X           Y           Z
 ---------------------------------------------------------------------
      1          6           0       -3.691345   -0.573051   -0.301681
      2          6           0       -4.186806   -1.705889    0.597864
      3          6           0       -4.303502   -3.039427   -0.140955
      4          1           0       -4.376587   -0.463276   -1.153348
      5          1           0       -2.713464   -0.847937   -0.720706
      6          1           0       -5.162827   -1.428355    1.016163
      7          1           0       -3.500410   -1.812854    1.447590
      8          1           0       -3.331962   -3.342600   -0.544438
      9          1           0       -5.003825   -2.955917   -0.978317
     10          1           0       -4.659307   -3.835239    0.520819
     11          6           0       -3.569491    0.766467    0.422592
     12          6           0       -3.074030    1.899305   -0.476953
     13          6           0       -2.957335    3.232843    0.261866
     14          1           0       -4.547372    1.041353    0.841617
     15          1           0       -2.884249    0.656691    1.274259
     16          1           0       -3.760426    2.006270   -1.326680
     17          1           0       -2.098009    1.621771   -0.895252
     18          1           0       -2.257011    3.149333    1.099228
     19          1           0       -3.928874    3.536016    0.665349
     20          1           0       -2.601530    4.028655   -0.399909
     21          6           0        4.263523   -0.523450   -0.038050
     22          6           0        5.537504    0.292844    0.182457
     23          6           0        6.795672   -0.574916    0.224920
     24          1           0        4.169791   -1.268691    0.763681
     25          1           0        4.354460   -1.085285   -0.977979
     26          1           0        5.443624    0.854044    1.120996
     27          1           0        5.628113    1.036356   -0.619786
     28          1           0        6.916889   -1.123914   -0.714500
     29          1           0        6.731350   -1.307261    1.036174
     30          1           0        7.694646    0.028889    0.383430
     31          6           0        2.997313    0.330034   -0.082860
     32          6           0        1.723332   -0.486259   -0.303368
     33          6           0        0.465165    0.381500   -0.345830
     34          1           0        2.906377    0.891869    0.857068
     35          1           0        3.091046    1.075275   -0.884592
     36          1           0        1.632722   -1.229772    0.498876
     37          1           0        1.817213   -1.047461   -1.241908
     38          1           0        0.529487    1.113845   -1.157085
     39          1           0        0.343948    0.930498    0.593588
     40          1           0       -0.433809   -0.222305   -0.504341
 ---------------------------------------------------------------------

 SCF Done:  E(RHF) =  -470.732440600     A.U. after   11 cycles
 E2 =    -0.1583812315D+01 EUMP2 =    -0.47231625291537D+03

 The electronic state is 1-A.
 Alpha  occ. eigenvalues --  -11.21674 -11.21632 -11.21578 -11.21454 -11.21409
 Alpha  occ. eigenvalues --  -11.21393 -11.21351 -11.21270 -11.21171 -11.21095
 Alpha  occ. eigenvalues --  -11.21060 -11.20970  -1.08489  -1.08360  -1.03602
 Alpha  occ. eigenvalues --   -1.03447  -0.96055  -0.95916  -0.87091  -0.86922
 Alpha  occ. eigenvalues --   -0.79704  -0.79494  -0.78304  -0.78164  -0.65116
 Alpha  occ. eigenvalues --   -0.65039  -0.60988  -0.60871  -0.59430  -0.59266
 Alpha  occ. eigenvalues --   -0.57705  -0.57492  -0.55341  -0.55209  -0.52813
 Alpha  occ. eigenvalues --   -0.52568  -0.52487  -0.52319  -0.49994  -0.49859
 Alpha  occ. eigenvalues --   -0.48033  -0.47787  -0.46726  -0.46513  -0.45851
 Alpha  occ. eigenvalues --   -0.45768  -0.45707  -0.45630  -0.43759  -0.43673
 Alpha virt. eigenvalues --    0.21028   0.23005   0.23770   0.24605   0.26048
 Alpha virt. eigenvalues --    0.26410   0.26933   0.27573   0.27905   0.29219
 Alpha virt. eigenvalues --    0.30305   0.30766   0.31818   0.32171   0.32333

 Mulliken charges:
               1
     1  C   -0.303824
     2  C   -0.299387
     3  C   -0.475677
     4  H    0.149954
     5  H    0.152913
     6  H    0.152068
     7  H    0.151798
     8  H    0.154853
     9  H    0.155218
    10  H    0.160206
    11  C   -0.298266
    12  C   -0.307386
    13  C   -0.475358
    14  H    0.149269
    15  H    0.149968
    16  H    0.150616
    17  H    0.163769
    18  H    0.154685
    19  H    0.154478
    20  H    0.159618
    21  C   -0.298303
    22  C   -0.299651
    23  C   -0.475734
    24  H    0.149701
    25  H    0.149629
    26  H    0.151990
    27  H    0.152031
    28  H    0.155238
    29  H    0.155216
    30  H    0.160378
    31  C   -0.298857
    32  C   -0.300030
    33  C   -0.483527
    34  H    0.149594
    35  H    0.149881
    36  H    0.151921
    37  H    0.152201
    38  H    0.155765
    39  H    0.156117
    40  H    0.166927
 Sum of Mulliken charges =  -0.00000

 Dipole moment (field-independent basis, Debye):
    X=              0.0539    Y=             -0.0082    Z=             -0.0127  Tot=              0.0560
 Quadrupole moment (field-independent basis, Debye-Ang):
   XX=            -85.0210   YY=            -86.1555   ZZ=            -83.8417
   XY=              0.2239   XZ=              0.0308   YZ=             -0.5684

 Normal termination of Gaussian 16 at Wed May  5 16:37:39 2021.
