 Gaussian 16, Revision A.03,
 Gaussian 16:  EM64L-G16RevA.03 25-Dec-2016

 -------------
 #p 6-31g* mp2
 -------------

 ------------------------------------------------------
 Input file generated by CHIRIPA (05-May-2021 14:57:26)
 ------------------------------------------------------
 Symbolic Z-matrix:
 Charge =  0 Multiplicity = 1

                         Standard orientation:
 ---------------------------------------------------------------------
 Center     Atomic      Atomic             Coordinates (Angstroms)
 Number     Number       Type             X           Y           Z
 ---------------------------------------------------------------------
      1          6           0        2.651725    1.878881    0.843484
      2          6           0        2.251458    0.908290   -0.080778
      3          6           0        3.171282   -0.018399   -0.580498
      4          6           0        4.489260    0.054712   -0.132304
      5          6           0        4.918687    1.009911    0.787738
      6          6           0        3.981718    1.926510    1.274033
      7          1           0        1.930525    2.594836    1.226464
      8          1           0        1.219227    0.868927   -0.416926
      9          1           0        2.888436   -0.780232   -1.296756
     10          1           0        5.954611    1.024145    1.104089
     11          1           0        4.295404    2.679190    1.991750
     12          7           0        5.472112   -0.920991   -0.654229
     13          8           0        6.627390   -0.835470   -0.243550
     14          8           0        5.068584   -1.752793   -1.464110
     15          6           0       -2.400964   -1.423203    1.140247
     16          6           0       -3.717470   -1.781025    1.448948
     17          6           0       -4.792560   -1.118732    0.848866
     18          6           0       -4.513503   -0.098765   -0.059476
     19          6           0       -3.212916    0.280762   -0.387684
     20          6           0       -2.153326   -0.395263    0.224530
     21          1           0       -1.571829   -1.943021    1.611118
     22          1           0       -3.912780   -2.578948    2.159735
     23          1           0       -5.821531   -1.375434    1.069638
     24          1           0       -3.049726    1.080259   -1.100140
     25          1           0       -1.131934   -0.115245   -0.017120
     26          7           0       -5.643447    0.609643   -0.701178
     27          8           0       -5.371000    1.504784   -1.498130
     28          8           0       -6.780151    0.256340   -0.395041
 ---------------------------------------------------------------------

 SCF Done:  E(RHF) =  -868.336801741     A.U. after   16 cycles
 E2 =    -0.2599296555D+01 EUMP2 =    -0.87093609829666D+03

 The electronic state is 1-A.
 Alpha  occ. eigenvalues --  -20.61302 -20.61294 -20.61219 -20.61210 -15.86362
 Alpha  occ. eigenvalues --  -15.86277 -11.31839 -11.31733 -11.28490 -11.28408
 Alpha  occ. eigenvalues --  -11.28382 -11.28293 -11.28217 -11.28090 -11.27596
 Alpha  occ. eigenvalues --  -11.27477 -11.27413 -11.27298  -1.60375  -1.60292
 Alpha  occ. eigenvalues --   -1.39926  -1.39843  -1.20042  -1.19929  -1.09413
 Alpha  occ. eigenvalues --   -1.09302  -1.05477  -1.05361  -0.96221  -0.96116
 Alpha  occ. eigenvalues --   -0.86882  -0.86743  -0.83067  -0.82957  -0.78107
 Alpha  occ. eigenvalues --   -0.77982  -0.72576  -0.72493  -0.71702  -0.71617
 Alpha  occ. eigenvalues --   -0.71133  -0.71020  -0.65698  -0.65665  -0.65586
 Alpha  occ. eigenvalues --   -0.65261  -0.62902  -0.62633  -0.55964  -0.55831
 Alpha  occ. eigenvalues --   -0.53789  -0.53700  -0.53666  -0.53341  -0.49347
 Alpha  occ. eigenvalues --   -0.49324  -0.49258  -0.49242  -0.45306  -0.45229
 Alpha  occ. eigenvalues --   -0.38021  -0.37901  -0.37083  -0.36967
 Alpha virt. eigenvalues --    0.04469   0.04569   0.10517   0.10693   0.15878
 Alpha virt. eigenvalues --    0.16033   0.17982   0.21827   0.24350   0.27649
 Alpha virt. eigenvalues --    0.27784   0.28352   0.29498   0.31528   0.31768

 Mulliken charges:
               1
     1  C   -0.171213
     2  C   -0.224542
     3  C   -0.171742
     4  C    0.158851
     5  C   -0.169571
     6  C   -0.218583
     7  H    0.227673
     8  H    0.219899
     9  H    0.276089
    10  H    0.277921
    11  H    0.226173
    12  N    0.488036
    13  O   -0.458443
    14  O   -0.459715
    15  C   -0.171804
    16  C   -0.218402
    17  C   -0.169804
    18  C    0.158972
    19  C   -0.172025
    20  C   -0.222106
    21  H    0.228445
    22  H    0.226007
    23  H    0.277629
    24  H    0.274776
    25  H    0.218169
    26  N    0.488127
    27  O   -0.460239
    28  O   -0.458580
 Sum of Mulliken charges =  -0.00000

 Dipole moment (field-independent basis, Debye):
    X=              0.5616    Y=              0.9096    Z=              4.2042  Tot=              4.3380
 Quadrupole moment (field-independent basis, Debye-Ang):
   XX=           -166.1223   YY=           -102.2422   ZZ=           -103.7570
   XY=             30.5238   XZ=             -1.3104   YZ=             -0.7451

 Normal termination of Gaussian 16 at Wed May  5 21:12:28 2021.
