 Gaussian 16, Revision A.03,
 Gaussian 16:  EM64L-G16RevA.03 25-Dec-2016

 -------------
 #p 6-31g* mp2
 -------------

 ------------------------------------------------------
 Input file generated by CHIRIPA (05-May-2021 14:55:21)
 ------------------------------------------------------
 Symbolic Z-matrix:
 Charge =  0 Multiplicity = 1

                         Standard orientation:
 ---------------------------------------------------------------------
 Center     Atomic      Atomic             Coordinates (Angstroms)
 Number     Number       Type             X           Y           Z
 ---------------------------------------------------------------------
      1          6           0       -0.877323    0.795971    0.020460
      2          6           0       -1.132723   -0.566927   -0.163394
      3          6           0       -2.445483   -1.047515   -0.178959
      4          6           0       -3.483535   -0.133116   -0.006876
      5          6           0       -3.261337    1.230549    0.178425
      6          6           0       -1.940571    1.688785    0.190483
      7          1           0        0.145570    1.160621    0.031189
      8          1           0       -0.308959   -1.262598   -0.295685
      9          1           0       -2.671672   -2.097528   -0.319420
     10          1           0       -4.103252    1.899794    0.307683
     11          1           0       -1.745209    2.747763    0.333463
     12          7           0       -4.877534   -0.630061   -0.021498
     13          8           0       -5.774543    0.195985    0.132316
     14          8           0       -5.046745   -1.836204   -0.186495
     15          6           0        4.211635   -0.599165    0.379072
     16          6           0        4.899277   -1.700861   -0.428020
     17          6           0        4.985278   -3.024625    0.332273
     18          1           0        4.757349   -0.448147    1.320526
     19          1           0        3.200969   -0.931779    0.653512
     20          1           0        5.907843   -1.365713   -0.702037
     21          1           0        4.351975   -1.849140   -1.367748
     22          1           0        3.984817   -3.385107    0.592526
     23          1           0        5.549526   -2.898935    1.262019
     24          1           0        5.480355   -3.798115   -0.263104
     25          6           0        4.118060    0.730270   -0.367638
     26          6           0        3.430419    1.831967    0.439454
     27          6           0        3.344417    3.155731   -0.320839
     28          1           0        5.128726    1.062885   -0.642078
     29          1           0        3.572348    0.579253   -1.309092
     30          1           0        3.977720    1.980246    1.379182
     31          1           0        2.421852    1.496819    0.713472
     32          1           0        2.780169    3.030040   -1.250585
     33          1           0        4.344878    3.516213   -0.581092
     34          1           0        2.849340    3.929221    0.274538
 ---------------------------------------------------------------------

 SCF Done:  E(RHF) =  -669.535498424     A.U. after   15 cycles
 E2 =    -0.2091170583D+01 EUMP2 =    -0.67162666900682D+03

 The electronic state is 1-A.
 Alpha  occ. eigenvalues --  -20.60752 -20.60746 -15.85806 -11.31173 -11.27745
 Alpha  occ. eigenvalues --  -11.27739 -11.27464 -11.26763 -11.26747 -11.22816
 Alpha  occ. eigenvalues --  -11.22418 -11.22386 -11.22310 -11.22155 -11.21738
 Alpha  occ. eigenvalues --   -1.59827  -1.39381  -1.19346  -1.09424  -1.08739
 Alpha  occ. eigenvalues --   -1.04751  -1.04485  -0.96909  -0.95575  -0.87922
 Alpha  occ. eigenvalues --   -0.86147  -0.82411  -0.80556  -0.79213  -0.77455
 Alpha  occ. eigenvalues --   -0.72023  -0.71150  -0.70481  -0.66073  -0.64997
 Alpha  occ. eigenvalues --   -0.64752  -0.62099  -0.61904  -0.60288  -0.58515
 Alpha  occ. eigenvalues --   -0.56214  -0.55244  -0.53594  -0.53317  -0.53079
 Alpha  occ. eigenvalues --   -0.52843  -0.50855  -0.48861  -0.48778  -0.48773
 Alpha  occ. eigenvalues --   -0.47605  -0.46744  -0.46680  -0.44786  -0.44735
 Alpha  occ. eigenvalues --   -0.37323  -0.36357
 Alpha virt. eigenvalues --    0.05076   0.11296   0.16543   0.18396   0.22757
 Alpha virt. eigenvalues --    0.23234   0.25182   0.26314   0.26642   0.27726
 Alpha virt. eigenvalues --    0.29230   0.30247   0.30851   0.30955   0.32232

 Mulliken charges:
               1
     1  C   -0.178344
     2  C   -0.221825
     3  C   -0.170677
     4  C    0.158366
     5  C   -0.170662
     6  C   -0.220977
     7  H    0.237970
     8  H    0.223209
     9  H    0.275555
    10  H    0.275570
    11  H    0.224093
    12  N    0.487993
    13  O   -0.460425
    14  O   -0.460487
    15  C   -0.297544
    16  C   -0.300518
    17  C   -0.475830
    18  H    0.153238
    19  H    0.142938
    20  H    0.154688
    21  H    0.151496
    22  H    0.153787
    23  H    0.157149
    24  H    0.163088
    25  C   -0.299502
    26  C   -0.304865
    27  C   -0.477720
    28  H    0.154440
    29  H    0.148349
    30  H    0.158288
    31  H    0.142991
    32  H    0.154236
    33  H    0.161083
    34  H    0.160850
 Sum of Mulliken charges =  -0.00000

 Dipole moment (field-independent basis, Debye):
    X=              5.1825    Y=              1.7726    Z=              0.0497  Tot=              5.4775
 Quadrupole moment (field-independent basis, Debye-Ang):
   XX=           -126.8401   YY=            -91.5788   ZZ=            -95.5651
   XY=             -8.0989   XZ=             -0.1795   YZ=              1.3178

 Normal termination of Gaussian 16 at Thu May  6 07:46:47 2021.
