 Gaussian 16, Revision A.03,
 Gaussian 16:  EM64L-G16RevA.03 25-Dec-2016

 -------------
 #p 6-31g* mp2
 -------------

 ------------------------------------------------------
 Input file generated by CHIRIPA (05-May-2021 14:53:15)
 ------------------------------------------------------
 Symbolic Z-matrix:
 Charge =  0 Multiplicity = 1

                         Standard orientation:
 ---------------------------------------------------------------------
 Center     Atomic      Atomic             Coordinates (Angstroms)
 Number     Number       Type             X           Y           Z
 ---------------------------------------------------------------------
      1          6           0        2.216372    0.820097   -0.168219
      2          6           0        2.253918    2.019537   -1.115804
      3          6           0        1.120825    3.012997   -0.857090
      4          1           0        1.248870    0.309872   -0.270955
      5          1           0        2.271868    1.179070    0.868822
      6          1           0        2.199762    1.658326   -2.150796
      7          1           0        3.221518    2.526854   -1.010939
      8          1           0        1.174833    3.401293    0.165119
      9          1           0        0.147272    2.527829   -0.981215
     10          1           0        1.166749    3.862545   -1.545580
     11          6           0        3.342850   -0.181976   -0.414440
     12          6           0        3.305304   -1.381417    0.533145
     13          6           0        4.438397   -2.374876    0.274431
     14          1           0        3.287354   -0.540949   -1.451481
     15          1           0        4.310353    0.328249   -0.311704
     16          1           0        2.337704   -1.888733    0.428280
     17          1           0        3.359460   -1.020205    1.568137
     18          1           0        5.411951   -1.889709    0.398556
     19          1           0        4.384390   -2.763172   -0.747778
     20          1           0        4.392473   -3.224425    0.962921
     21          6           0       -2.778652   -2.412249   -0.920823
     22          6           0       -3.303087   -1.201711   -1.385673
     23          6           0       -2.973578    0.002815   -0.757112
     24          6           0       -2.112881   -0.040156    0.338627
     25          6           0       -1.574122   -1.230168    0.825350
     26          6           0       -1.917362   -2.422597    0.181262
     27          1           0       -3.039957   -3.343255   -1.415135
     28          1           0       -3.972214   -1.190654   -2.241355
     29          1           0       -3.365238    0.954160   -1.096176
     30          1           0       -0.909609   -1.209359    1.680575
     31          1           0       -1.508576   -3.361230    0.544452
     32          7           0       -1.756776    1.228617    1.012275
     33          8           0       -0.996385    1.163884    1.975733
     34          8           0       -2.244796    2.263791    0.564068
 ---------------------------------------------------------------------

 SCF Done:  E(RHF) =  -669.536028052     A.U. after   15 cycles
 E2 =    -0.2093531816D+01 EUMP2 =    -0.67162955986822D+03

 The electronic state is 1-A.
 Alpha  occ. eigenvalues --  -20.60912 -20.60889 -15.85898 -11.31285 -11.27845
 Alpha  occ. eigenvalues --  -11.27841 -11.27584 -11.26861 -11.26851 -11.21516
 Alpha  occ. eigenvalues --  -11.21085 -11.21056 -11.20938 -11.20791 -11.20037
 Alpha  occ. eigenvalues --   -1.59944  -1.39501  -1.19454  -1.08846  -1.08026
 Alpha  occ. eigenvalues --   -1.04851  -1.03096  -0.95681  -0.95511  -0.86521
 Alpha  occ. eigenvalues --   -0.86248  -0.82514  -0.79193  -0.77821  -0.77539
 Alpha  occ. eigenvalues --   -0.72138  -0.71262  -0.70551  -0.65104  -0.64850
 Alpha  occ. eigenvalues --   -0.64664  -0.62193  -0.60498  -0.58941  -0.57121
 Alpha  occ. eigenvalues --   -0.55350  -0.54803  -0.53187  -0.52937  -0.52226
 Alpha  occ. eigenvalues --   -0.51923  -0.49463  -0.48909  -0.48898  -0.47470
 Alpha  occ. eigenvalues --   -0.46270  -0.45350  -0.45259  -0.44752  -0.43343
 Alpha  occ. eigenvalues --   -0.37420  -0.36443
 Alpha virt. eigenvalues --    0.04944   0.11123   0.16385   0.21171   0.23126
 Alpha virt. eigenvalues --    0.24589   0.26196   0.27236   0.27615   0.28460
 Alpha virt. eigenvalues --    0.28697   0.30872   0.31700   0.32052   0.32274

 Mulliken charges:
               1
     1  C   -0.299108
     2  C   -0.300984
     3  C   -0.475681
     4  H    0.142446
     5  H    0.159938
     6  H    0.146482
     7  H    0.149858
     8  H    0.166424
     9  H    0.155226
    10  H    0.155997
    11  C   -0.297795
    12  C   -0.298507
    13  C   -0.475280
    14  H    0.146710
    15  H    0.149986
    16  H    0.144069
    17  H    0.154669
    18  H    0.156673
    19  H    0.153758
    20  H    0.157694
    21  C   -0.170665
    22  C   -0.218428
    23  C   -0.171906
    24  C    0.157477
    25  C   -0.171159
    26  C   -0.219151
    27  H    0.226051
    28  H    0.223914
    29  H    0.276161
    30  H    0.277262
    31  H    0.224174
    32  N    0.488790
    33  O   -0.457451
    34  O   -0.457644
 Sum of Mulliken charges =  -0.00000

 Dipole moment (field-independent basis, Debye):
    X=             -1.4012    Y=             -4.3510    Z=             -2.2198  Tot=              5.0815
 Quadrupole moment (field-independent basis, Debye-Ang):
   XX=            -88.6975   YY=            -93.8701   ZZ=            -94.3922
   XY=              9.1180   XZ=              7.6012   YZ=             -2.6554

 Normal termination of Gaussian 16 at Thu May  6 09:02:05 2021.
