 Gaussian 16, Revision A.03,
 Gaussian 16:  EM64L-G16RevA.03 25-Dec-2016

 -------------
 #p 6-31g* mp2
 -------------

 ------------------------------------------------------
 Input file generated by CHIRIPA (05-May-2021 14:53:18)
 ------------------------------------------------------
 Symbolic Z-matrix:
 Charge =  0 Multiplicity = 1

                         Standard orientation:
 ---------------------------------------------------------------------
 Center     Atomic      Atomic             Coordinates (Angstroms)
 Number     Number       Type             X           Y           Z
 ---------------------------------------------------------------------
      1          6           0        2.879397    0.788332    0.220636
      2          6           0        2.232108    2.068256   -0.309267
      3          6           0        2.778224    3.328665    0.362240
      4          1           0        2.719269    0.726131    1.305733
      5          1           0        3.966058    0.844858    0.067774
      6          1           0        1.146844    2.008738   -0.156707
      7          1           0        2.393630    2.127321   -1.393259
      8          1           0        3.857298    3.415446    0.198936
      9          1           0        2.603428    3.296189    1.442514
     10          1           0        2.301788    4.231893   -0.031522
     11          6           0        2.343827   -0.480176   -0.441014
     12          6           0        2.991116   -1.760100    0.088889
     13          6           0        2.445000   -3.020508   -0.582618
     14          1           0        1.257166   -0.536701   -0.288152
     15          1           0        2.503955   -0.417975   -1.526111
     16          1           0        2.829594   -1.819165    1.172881
     17          1           0        4.076380   -1.700581   -0.063671
     18          1           0        2.619796   -2.988033   -1.662892
     19          1           0        1.365926   -3.107290   -0.419314
     20          1           0        2.921436   -3.923736   -0.188856
     21          6           0       -2.403790    0.343201   -2.367262
     22          6           0       -1.674079   -0.781346   -1.967964
     23          6           0       -1.466456   -1.048074   -0.611389
     24          6           0       -2.005183   -0.165190    0.323266
     25          6           0       -2.736659    0.963529   -0.043101
     26          6           0       -2.931820    1.210520   -1.405252
     27          1           0       -2.560237    0.542736   -3.423248
     28          1           0       -1.262836   -1.456651   -2.712871
     29          1           0       -0.905463   -1.911331   -0.274503
     30          1           0       -3.134291    1.618433    0.722673
     31          1           0       -3.498934    2.084626   -1.712442
     32          7           0       -1.791978   -0.437117    1.762363
     33          8           0       -2.276996    0.356135    2.566196
     34          8           0       -1.143888   -1.438354    2.059244
 ---------------------------------------------------------------------

 SCF Done:  E(RHF) =  -669.534925601     A.U. after   15 cycles
 E2 =    -0.2093924937D+01 EUMP2 =    -0.67162885053874D+03

 The electronic state is 1-A.
 Alpha  occ. eigenvalues --  -20.60873 -20.60868 -15.85920 -11.31266 -11.27834
 Alpha  occ. eigenvalues --  -11.27813 -11.27554 -11.26829 -11.26809 -11.21535
 Alpha  occ. eigenvalues --  -11.21493 -11.21296 -11.21260 -11.21219 -11.20977
 Alpha  occ. eigenvalues --   -1.59946  -1.39500  -1.19441  -1.08830  -1.08353
 Alpha  occ. eigenvalues --   -1.04838  -1.03492  -0.95960  -0.95673  -0.86981
 Alpha  occ. eigenvalues --   -0.86238  -0.82500  -0.79555  -0.78201  -0.77538
 Alpha  occ. eigenvalues --   -0.72137  -0.71273  -0.70553  -0.65087  -0.65066
 Alpha  occ. eigenvalues --   -0.64753  -0.62208  -0.60855  -0.59320  -0.57580
 Alpha  occ. eigenvalues --   -0.55337  -0.55268  -0.53216  -0.52926  -0.52644
 Alpha  occ. eigenvalues --   -0.52389  -0.49912  -0.48898  -0.48893  -0.47880
 Alpha  occ. eigenvalues --   -0.46567  -0.45723  -0.45623  -0.44875  -0.43727
 Alpha  occ. eigenvalues --   -0.37396  -0.36353
 Alpha virt. eigenvalues --    0.04958   0.11131   0.16462   0.20235   0.22983
 Alpha virt. eigenvalues --    0.23815   0.25912   0.27027   0.27618   0.27859
 Alpha virt. eigenvalues --    0.29220   0.30323   0.31435   0.31740   0.32044

 Mulliken charges:
               1
     1  C   -0.299306
     2  C   -0.299539
     3  C   -0.475956
     4  H    0.155962
     5  H    0.148692
     6  H    0.151603
     7  H    0.148553
     8  H    0.154754
     9  H    0.158652
    10  H    0.158156
    11  C   -0.303908
    12  C   -0.299912
    13  C   -0.477455
    14  H    0.153570
    15  H    0.143935
    16  H    0.162160
    17  H    0.151289
    18  H    0.151019
    19  H    0.149685
    20  H    0.164362
    21  C   -0.170369
    22  C   -0.218465
    23  C   -0.178992
    24  C    0.160203
    25  C   -0.171033
    26  C   -0.218319
    27  H    0.226066
    28  H    0.224819
    29  H    0.283756
    30  H    0.275869
    31  H    0.223830
    32  N    0.487638
    33  O   -0.459751
    34  O   -0.461569
 Sum of Mulliken charges =  -0.00000

 Dipole moment (field-independent basis, Debye):
    X=             -0.7826    Y=              0.9556    Z=             -4.9704  Tot=              5.1215
 Quadrupole moment (field-independent basis, Debye-Ang):
   XX=            -90.4209   YY=            -93.0665   ZZ=            -97.9450
   XY=             -4.7250   XZ=              9.1945   YZ=              1.7115

 Normal termination of Gaussian 16 at Wed May  5 22:03:22 2021.
