 Gaussian 16, Revision A.03,
 Gaussian 16:  EM64L-G16RevA.03 25-Dec-2016

 -------------
 #p 6-31g* mp2
 -------------

 ------------------------------------------------------
 Input file generated by CHIRIPA (05-May-2021 14:55:23)
 ------------------------------------------------------
 Symbolic Z-matrix:
 Charge =  0 Multiplicity = 1

                         Standard orientation:
 ---------------------------------------------------------------------
 Center     Atomic      Atomic             Coordinates (Angstroms)
 Number     Number       Type             X           Y           Z
 ---------------------------------------------------------------------
      1          6           0       -2.275071   -2.124527    1.516515
      2          6           0       -3.399950   -2.176934    0.686804
      3          6           0       -3.683743   -1.127072   -0.191718
      4          6           0       -2.817398   -0.035188   -0.214621
      5          6           0       -1.688807    0.046383    0.599577
      6          6           0       -1.424589   -1.014992    1.470335
      7          1           0       -2.062217   -2.944557    2.195956
      8          1           0       -4.062202   -3.037359    0.720530
      9          1           0       -4.547665   -1.141740   -0.845050
     10          1           0       -1.047148    0.917325    0.543437
     11          1           0       -0.550267   -0.971577    2.113547
     12          7           0       -3.107476    1.082348   -1.140563
     13          8           0       -2.328601    2.033132   -1.141728
     14          8           0       -4.108221    0.986329   -1.847618
     15          6           0        3.057867    0.463363    0.638601
     16          6           0        2.788635    1.964962    0.742036
     17          6           0        1.812044    2.314439    1.865392
     18          1           0        2.107155   -0.062867    0.476810
     19          1           0        3.455750    0.102376    1.597127
     20          1           0        2.392676    2.323271   -0.216842
     21          1           0        3.740121    2.487695    0.903407
     22          1           0        2.203831    1.984480    2.832983
     23          1           0        0.848731    1.819121    1.706369
     24          1           0        1.633864    3.392851    1.921425
     25          6           0        4.032283    0.098228   -0.479843
     26          6           0        4.301515   -1.403371   -0.583279
     27          6           0        5.278106   -1.752849   -1.706635
     28          1           0        3.634400    0.459214   -1.438370
     29          1           0        4.982995    0.624458   -0.318054
     30          1           0        3.350029   -1.926104   -0.744650
     31          1           0        4.697474   -1.761680    0.375600
     32          1           0        6.241419   -1.257531   -1.547611
     33          1           0        4.886319   -1.422889   -2.674225
     34          1           0        5.456286   -2.831261   -1.762668
 ---------------------------------------------------------------------

 SCF Done:  E(RHF) =  -669.535610162     A.U. after   15 cycles
 E2 =    -0.2091578462D+01 EUMP2 =    -0.67162718862376D+03

 The electronic state is 1-A.
 Alpha  occ. eigenvalues --  -20.60774 -20.60768 -15.85825 -11.31186 -11.27759
 Alpha  occ. eigenvalues --  -11.27744 -11.27497 -11.26775 -11.26755 -11.21958
 Alpha  occ. eigenvalues --  -11.21888 -11.21848 -11.21661 -11.21652 -11.21272
 Alpha  occ. eigenvalues --   -1.59848  -1.39401  -1.19360  -1.08794  -1.08755
 Alpha  occ. eigenvalues --   -1.04766  -1.03886  -0.96352  -0.95591  -0.87368
 Alpha  occ. eigenvalues --   -0.86160  -0.82425  -0.79947  -0.78613  -0.77469
 Alpha  occ. eigenvalues --   -0.72044  -0.71171  -0.70481  -0.65433  -0.65010
 Alpha  occ. eigenvalues --   -0.64765  -0.62185  -0.61226  -0.59704  -0.57953
 Alpha  occ. eigenvalues --   -0.55684  -0.55243  -0.53096  -0.53019  -0.52908
 Alpha  occ. eigenvalues --   -0.52718  -0.50295  -0.48802  -0.48800  -0.48264
 Alpha  occ. eigenvalues --   -0.46970  -0.46158  -0.46056  -0.44808  -0.44134
 Alpha  occ. eigenvalues --   -0.37340  -0.36364
 Alpha virt. eigenvalues --    0.05045   0.11288   0.16494   0.19138   0.22821
 Alpha virt. eigenvalues --    0.23708   0.25468   0.26792   0.27224   0.28013
 Alpha virt. eigenvalues --    0.29290   0.30095   0.31429   0.31513   0.31962

 Mulliken charges:
               1
     1  C   -0.170789
     2  C   -0.218823
     3  C   -0.170357
     4  C    0.160924
     5  C   -0.181319
     6  C   -0.222008
     7  H    0.225808
     8  H    0.223548
     9  H    0.275619
    10  H    0.285021
    11  H    0.225625
    12  N    0.487674
    13  O   -0.460363
    14  O   -0.460396
    15  C   -0.299458
    16  C   -0.301790
    17  C   -0.477595
    18  H    0.143702
    19  H    0.147913
    20  H    0.159671
    21  H    0.154791
    22  H    0.154812
    23  H    0.144471
    24  H    0.168250
    25  C   -0.298776
    26  C   -0.299981
    27  C   -0.476014
    28  H    0.153530
    29  H    0.151197
    30  H    0.151241
    31  H    0.150582
    32  H    0.155873
    33  H    0.157162
    34  H    0.160255
 Sum of Mulliken charges =  -0.00000

 Dipole moment (field-independent basis, Debye):
    X=              1.1411    Y=             -3.8586    Z=              3.2006  Tot=              5.1415
 Quadrupole moment (field-independent basis, Debye-Ang):
   XX=            -96.8424   YY=            -93.6296   ZZ=            -96.5063
   XY=             14.1704   XZ=             -7.0765   YZ=              1.3209

 Normal termination of Gaussian 16 at Thu May  6 12:36:26 2021.
