 Gaussian 16, Revision A.03,
 Gaussian 16:  EM64L-G16RevA.03 25-Dec-2016

 -------------
 #p 6-31g* mp2
 -------------

 ------------------------------------------------------
 Input file generated by CHIRIPA (05-May-2021 14:55:22)
 ------------------------------------------------------
 Symbolic Z-matrix:
 Charge =  0 Multiplicity = 1

                         Standard orientation:
 ---------------------------------------------------------------------
 Center     Atomic      Atomic             Coordinates (Angstroms)
 Number     Number       Type             X           Y           Z
 ---------------------------------------------------------------------
      1          6           0        2.644992    2.590485   -0.117711
      2          6           0        2.459193    1.744698   -1.216185
      3          6           0        2.704078    0.372731   -1.105339
      4          6           0        3.135760   -0.121858    0.124426
      5          6           0        3.330128    0.695123    1.237104
      6          6           0        3.079101    2.063927    1.103275
      7          1           0        2.452374    3.655033   -0.212746
      8          1           0        2.122135    2.150852   -2.165645
      9          1           0        2.568403   -0.304724   -1.939644
     10          1           0        3.666935    0.260978    2.170644
     11          1           0        3.224250    2.718399    1.958051
     12          7           0        3.398260   -1.572624    0.253939
     13          8           0        3.777888   -1.983645    1.348279
     14          8           0        3.219408   -2.271241   -0.741341
     15          6           0       -4.705233   -0.139977   -0.291831
     16          6           0       -5.586557    0.063803    0.940941
     17          6           0       -7.078053    0.081711    0.604917
     18          1           0       -4.909593    0.659569   -1.017025
     19          1           0       -4.983252   -1.083950   -0.780724
     20          1           0       -5.306020    1.006431    1.428146
     21          1           0       -5.379937   -0.736213    1.663367
     22          1           0       -7.379388   -0.862180    0.139226
     23          1           0       -7.305051    0.890365   -0.097331
     24          1           0       -7.689639    0.228551    1.500607
     25          6           0       -3.211559   -0.160171    0.027944
     26          6           0       -2.330235   -0.363952   -1.204828
     27          6           0       -0.838738   -0.381859   -0.868803
     28          1           0       -2.933540    0.783802    0.516838
     29          1           0       -3.007198   -0.959717    0.753139
     30          1           0       -2.536855    0.436064   -1.927252
     31          1           0       -2.610771   -1.306579   -1.692032
     32          1           0       -0.611740   -1.190513   -0.166556
     33          1           0       -0.537404    0.562032   -0.403112
     34          1           0       -0.227153   -0.528700   -1.764493
 ---------------------------------------------------------------------

 SCF Done:  E(RHF) =  -669.535144943     A.U. after   15 cycles
 E2 =    -0.2092035747D+01 EUMP2 =    -0.67162718068996D+03

 The electronic state is 1-A.
 Alpha  occ. eigenvalues --  -20.60735 -20.60729 -15.85789 -11.31143 -11.27726
 Alpha  occ. eigenvalues --  -11.27722 -11.27486 -11.26743 -11.26729 -11.21667
 Alpha  occ. eigenvalues --  -11.21666 -11.21475 -11.21416 -11.21130 -11.21111
 Alpha  occ. eigenvalues --   -1.59809  -1.39363  -1.19331  -1.08727  -1.08498
 Alpha  occ. eigenvalues --   -1.04741  -1.03594  -0.96050  -0.95560  -0.87069
 Alpha  occ. eigenvalues --   -0.86134  -0.82395  -0.79664  -0.78312  -0.77438
 Alpha  occ. eigenvalues --   -0.72009  -0.71130  -0.70452  -0.65129  -0.64987
 Alpha  occ. eigenvalues --   -0.64746  -0.62100  -0.60992  -0.59425  -0.57659
 Alpha  occ. eigenvalues --   -0.55344  -0.55247  -0.53301  -0.52864  -0.52572
 Alpha  occ. eigenvalues --   -0.52376  -0.49964  -0.48767  -0.48762  -0.47972
 Alpha  occ. eigenvalues --   -0.46687  -0.45851  -0.45778  -0.44772  -0.43864
 Alpha  occ. eigenvalues --   -0.37312  -0.36267
 Alpha virt. eigenvalues --    0.05094   0.11274   0.16572   0.21143   0.22819
 Alpha virt. eigenvalues --    0.24145   0.26537   0.26608   0.27418   0.27902
 Alpha virt. eigenvalues --    0.28483   0.30661   0.31323   0.31486   0.31824

 Mulliken charges:
               1
     1  C   -0.171819
     2  C   -0.217817
     3  C   -0.165089
     4  C    0.158678
     5  C   -0.171067
     6  C   -0.218715
     7  H    0.225330
     8  H    0.223236
     9  H    0.275094
    10  H    0.275448
    11  H    0.223186
    12  N    0.488068
    13  O   -0.460827
    14  O   -0.460580
    15  C   -0.298245
    16  C   -0.299645
    17  C   -0.475717
    18  H    0.148360
    19  H    0.150725
    20  H    0.150782
    21  H    0.153050
    22  H    0.155891
    23  H    0.154533
    24  H    0.160357
    25  C   -0.298453
    26  C   -0.300529
    27  C   -0.475863
    28  H    0.147318
    29  H    0.152035
    30  H    0.148337
    31  H    0.154248
    32  H    0.160440
    33  H    0.155087
    34  H    0.154161
 Sum of Mulliken charges =  -0.00000

 Dipole moment (field-independent basis, Debye):
    X=             -0.9125    Y=              5.0738    Z=             -0.4352  Tot=              5.1736
 Quadrupole moment (field-independent basis, Debye-Ang):
   XX=           -102.3814   YY=            -95.5179   ZZ=            -90.4273
   XY=             16.7102   XZ=             -0.3278   YZ=              1.2780

 Normal termination of Gaussian 16 at Thu May  6 12:35:07 2021.
