 Gaussian 16, Revision A.03,
 Gaussian 16:  EM64L-G16RevA.03 25-Dec-2016

 -------------
 #p 6-31g* mp2
 -------------

 ------------------------------------------------------
 Input file generated by CHIRIPA (05-May-2021 14:51:08)
 ------------------------------------------------------
 Symbolic Z-matrix:
 Charge =  0 Multiplicity = 1

                         Standard orientation:
 ---------------------------------------------------------------------
 Center     Atomic      Atomic             Coordinates (Angstroms)
 Number     Number       Type             X           Y           Z
 ---------------------------------------------------------------------
      1          6           0        3.421311    0.736320   -0.222166
      2          6           0        2.094793    1.004437   -0.933817
      3          6           0        1.681933    2.475647   -0.880105
      4          1           0        3.339725    1.057732    0.825204
      5          1           0        4.206041    1.355233   -0.678828
      6          1           0        1.313078    0.384176   -0.476854
      7          1           0        2.179484    0.682173   -1.979565
      8          1           0        2.441136    3.106358   -1.353831
      9          1           0        1.569807    2.806668    0.157417
     10          1           0        0.730989    2.644810   -1.394837
     11          6           0        3.847434   -0.730007   -0.267261
     12          6           0        5.173952   -0.998125    0.444389
     13          6           0        5.586811   -2.469334    0.390678
     14          1           0        3.062704   -1.348920    0.189401
     15          1           0        3.929020   -1.051419   -1.314631
     16          1           0        5.089261   -0.675861    1.490137
     17          1           0        5.955667   -0.377864   -0.012573
     18          1           0        5.698937   -2.800355   -0.646845
     19          1           0        4.827609   -3.100045    0.864404
     20          1           0        6.537755   -2.638498    0.905410
     21          6           0       -3.921190   -0.711083    0.247326
     22          6           0       -5.252362   -0.828744   -0.495723
     23          6           0       -5.813487   -2.250975   -0.481731
     24          1           0       -3.193629   -1.398311   -0.205792
     25          1           0       -4.058615   -1.041827    1.286132
     26          1           0       -5.112790   -0.496570   -1.532446
     27          1           0       -5.976783   -0.141016   -0.040904
     28          1           0       -5.981057   -2.588902    0.546046
     29          1           0       -5.112154   -2.946476   -0.953971
     30          1           0       -6.765329   -2.312315   -1.018475
     31          6           0       -3.347555    0.704771    0.242101
     32          6           0       -2.016383    0.822432    0.985150
     33          6           0       -1.455257    2.244662    0.971159
     34          1           0       -3.210130    1.035515   -0.796705
     35          1           0       -4.075116    1.391999    0.695219
     36          1           0       -1.291962    0.134704    0.530331
     37          1           0       -2.155955    0.490256    2.021873
     38          1           0       -2.156590    2.940163    1.443398
     39          1           0       -1.287688    2.582590   -0.056618
     40          1           0       -0.503416    2.306003    1.507902
 ---------------------------------------------------------------------

 SCF Done:  E(RHF) =  -470.732119253     A.U. after   11 cycles
 E2 =    -0.1583513648D+01 EUMP2 =    -0.47231563290186D+03

 The electronic state is 1-A.
 Alpha  occ. eigenvalues --  -11.21603 -11.21602 -11.21598 -11.21591 -11.21407
 Alpha  occ. eigenvalues --  -11.21405 -11.21348 -11.21346 -11.21073 -11.21072
 Alpha  occ. eigenvalues --  -11.20980 -11.20977  -1.08448  -1.08408  -1.03586
 Alpha  occ. eigenvalues --   -1.03456  -0.96077  -0.95859  -0.87119  -0.86852
 Alpha  occ. eigenvalues --   -0.79693  -0.79480  -0.78271  -0.78211  -0.65156
 Alpha  occ. eigenvalues --   -0.64982  -0.61185  -0.60751  -0.59355  -0.59299
 Alpha  occ. eigenvalues --   -0.57649  -0.57527  -0.55482  -0.55011  -0.52782
 Alpha  occ. eigenvalues --   -0.52627  -0.52411  -0.52274  -0.50086  -0.49673
 Alpha  occ. eigenvalues --   -0.47952  -0.47858  -0.46803  -0.46434  -0.45841
 Alpha  occ. eigenvalues --   -0.45764  -0.45750  -0.45583  -0.43778  -0.43721
 Alpha virt. eigenvalues --    0.20636   0.23140   0.23541   0.25474   0.25838
 Alpha virt. eigenvalues --    0.26152   0.26751   0.27556   0.27957   0.28837
 Alpha virt. eigenvalues --    0.29673   0.30493   0.30828   0.32264   0.32526

 Mulliken charges:
               1
     1  C   -0.298094
     2  C   -0.304374
     3  C   -0.474982
     4  H    0.149362
     5  H    0.149744
     6  H    0.154973
     7  H    0.151618
     8  H    0.153939
     9  H    0.157414
    10  H    0.160483
    11  C   -0.298303
    12  C   -0.299647
    13  C   -0.475717
    14  H    0.149399
    15  H    0.149587
    16  H    0.151956
    17  H    0.151959
    18  H    0.155145
    19  H    0.155198
    20  H    0.160269
    21  C   -0.298324
    22  C   -0.299651
    23  C   -0.475715
    24  H    0.149617
    25  H    0.149481
    26  H    0.151946
    27  H    0.151958
    28  H    0.155157
    29  H    0.155201
    30  H    0.160268
    31  C   -0.298231
    32  C   -0.303315
    33  C   -0.476252
    34  H    0.149370
    35  H    0.149822
    36  H    0.153782
    37  H    0.151630
    38  H    0.154182
    39  H    0.158655
    40  H    0.160488
 Sum of Mulliken charges =  -0.00000

 Dipole moment (field-independent basis, Debye):
    X=             -0.0025    Y=              0.0175    Z=             -0.0000  Tot=              0.0177
 Quadrupole moment (field-independent basis, Debye-Ang):
   XX=            -84.8483   YY=            -86.7007   ZZ=            -83.3041
   XY=             -0.1068   XZ=             -0.8925   YZ=              0.0110

 Normal termination of Gaussian 16 at Thu May  6 16:32:06 2021.
