 Gaussian 16, Revision A.03,
 Gaussian 16:  EM64L-G16RevA.03 25-Dec-2016

 -------------
 #p 6-31g* mp2
 -------------

 ------------------------------------------------------
 Input file generated by CHIRIPA (05-May-2021 14:51:12)
 ------------------------------------------------------
 Symbolic Z-matrix:
 Charge =  0 Multiplicity = 1

                         Standard orientation:
 ---------------------------------------------------------------------
 Center     Atomic      Atomic             Coordinates (Angstroms)
 Number     Number       Type             X           Y           Z
 ---------------------------------------------------------------------
      1          6           0        4.229293   -0.043219    0.305456
      2          6           0        4.944575    0.470621   -0.944474
      3          6           0        6.464309    0.510839   -0.781421
      4          1           0        4.491092    0.596773    1.159163
      5          1           0        4.600163   -1.049674    0.543991
      6          1           0        4.571465    1.475251   -1.181381
      7          1           0        4.680892   -0.170554   -1.795344
      8          1           0        6.855453   -0.489185   -0.567977
      9          1           0        6.745405    1.165971    0.049475
     10          1           0        6.955537    0.881185   -1.686627
     11          6           0        2.709477   -0.089227    0.157910
     12          6           0        1.994195   -0.603068    1.407839
     13          6           0        0.474461   -0.643286    1.244786
     14          1           0        2.338607    0.917228   -0.080625
     15          1           0        2.447678   -0.729220   -0.695798
     16          1           0        2.257878    0.038108    2.258710
     17          1           0        2.367304   -1.607698    1.644747
     18          1           0        0.193364   -1.298418    0.413891
     19          1           0        0.083316    0.356738    1.031343
     20          1           0       -0.016767   -1.013632    2.149993
     21          6           0       -3.754832   -0.611476   -0.438264
     22          6           0       -2.796764   -1.775810   -0.184456
     23          6           0       -3.382053   -3.124943   -0.602867
     24          1           0       -4.692096   -0.790844    0.106079
     25          1           0       -4.013602   -0.584717   -1.505839
     26          1           0       -2.538791   -1.799520    0.882081
     27          1           0       -1.861600   -1.593556   -0.729313
     28          1           0       -3.622966   -3.125808   -1.670838
     29          1           0       -4.304004   -3.332942   -0.050288
     30          1           0       -2.680571   -3.943237   -0.412661
     31          6           0       -3.183938    0.743922   -0.025102
     32          6           0       -4.142006    1.908256   -0.278909
     33          6           0       -3.556717    3.257390    0.139502
     34          1           0       -2.925167    0.717164    1.042474
     35          1           0       -2.246674    0.923290   -0.569445
     36          1           0       -5.077169    1.726003    0.265948
     37          1           0       -4.399979    1.931966   -1.345447
     38          1           0       -2.634766    3.465388   -0.413078
     39          1           0       -3.315803    3.258254    1.207472
     40          1           0       -4.258198    4.075684   -0.050705
 ---------------------------------------------------------------------

 SCF Done:  E(RHF) =  -470.732363537     A.U. after   11 cycles
 E2 =    -0.1583518502D+01 EUMP2 =    -0.47231588203964D+03

 The electronic state is 1-A.
 Alpha  occ. eigenvalues --  -11.21593 -11.21567 -11.21525 -11.21482 -11.21384
 Alpha  occ. eigenvalues --  -11.21342 -11.21325 -11.21283 -11.21064 -11.21061
 Alpha  occ. eigenvalues --  -11.21018 -11.20921  -1.08414  -1.08363  -1.03521
 Alpha  occ. eigenvalues --   -1.03452  -0.95940  -0.95937  -0.87002  -0.86917
 Alpha  occ. eigenvalues --   -0.79703  -0.79444  -0.78299  -0.78065  -0.65044
 Alpha  occ. eigenvalues --   -0.65001  -0.60946  -0.60844  -0.59349  -0.59275
 Alpha  occ. eigenvalues --   -0.57569  -0.57545  -0.55251  -0.55198  -0.52742
 Alpha  occ. eigenvalues --   -0.52585  -0.52378  -0.52329  -0.49952  -0.49840
 Alpha  occ. eigenvalues --   -0.48046  -0.47747  -0.46643  -0.46465  -0.45954
 Alpha  occ. eigenvalues --   -0.45692  -0.45639  -0.45382  -0.43757  -0.43695
 Alpha virt. eigenvalues --    0.22063   0.23051   0.23949   0.24395   0.25867
 Alpha virt. eigenvalues --    0.25978   0.26680   0.27697   0.27892   0.29689
 Alpha virt. eigenvalues --    0.30103   0.30603   0.31792   0.31965   0.32313

 Mulliken charges:
               1
     1  C   -0.298140
     2  C   -0.299611
     3  C   -0.475682
     4  H    0.149693
     5  H    0.149491
     6  H    0.151830
     7  H    0.151778
     8  H    0.155170
     9  H    0.155196
    10  H    0.160179
    11  C   -0.298196
    12  C   -0.300858
    13  C   -0.478181
    14  H    0.149176
    15  H    0.148965
    16  H    0.151248
    17  H    0.151334
    18  H    0.159465
    19  H    0.157752
    20  H    0.158534
    21  C   -0.298230
    22  C   -0.302229
    23  C   -0.475658
    24  H    0.149109
    25  H    0.148858
    26  H    0.155150
    27  H    0.154349
    28  H    0.154656
    29  H    0.154842
    30  H    0.159629
    31  C   -0.299750
    32  C   -0.299531
    33  C   -0.475720
    34  H    0.150874
    35  H    0.150969
    36  H    0.151791
    37  H    0.151737
    38  H    0.154736
    39  H    0.155041
    40  H    0.160235
 Sum of Mulliken charges =  -0.00000

 Dipole moment (field-independent basis, Debye):
    X=             -0.0167    Y=             -0.0030    Z=              0.0042  Tot=              0.0175
 Quadrupole moment (field-independent basis, Debye-Ang):
   XX=            -86.1566   YY=            -85.0460   ZZ=            -83.8828
   XY=             -0.4158   XZ=             -0.5117   YZ=             -0.0383

 Normal termination of Gaussian 16 at Wed May  5 21:32:37 2021.
