 Gaussian 16, Revision A.03,
 Gaussian 16:  EM64L-G16RevA.03 25-Dec-2016

 -------------
 #p 6-31g* mp2
 -------------

 ------------------------------------------------------
 Input file generated by CHIRIPA (05-May-2021 14:53:16)
 ------------------------------------------------------
 Symbolic Z-matrix:
 Charge =  0 Multiplicity = 1

                         Standard orientation:
 ---------------------------------------------------------------------
 Center     Atomic      Atomic             Coordinates (Angstroms)
 Number     Number       Type             X           Y           Z
 ---------------------------------------------------------------------
      1          6           0        4.469301    0.068571   -0.109652
      2          6           0        4.550861   -1.115436   -1.073736
      3          6           0        5.978983   -1.628831   -1.259983
      4          1           0        5.107016    0.881630   -0.482747
      5          1           0        4.882111   -0.230940    0.863629
      6          1           0        4.136750   -0.814200   -2.044501
      7          1           0        3.912728   -1.925700   -0.698403
      8          1           0        6.398598   -1.955991   -0.303171
      9          1           0        6.623893   -0.838176   -1.656918
     10          1           0        6.014161   -2.475207   -1.952999
     11          6           0        3.048009    0.593015    0.086855
     12          6           0        2.966448    1.777022    1.050940
     13          6           0        1.538326    2.290416    1.237187
     14          1           0        2.635198    0.892526   -0.886425
     15          1           0        2.410294   -0.220044    0.459951
     16          1           0        3.604581    2.587286    0.675606
     17          1           0        3.380559    1.475786    2.021705
     18          1           0        0.893416    1.499761    1.634122
     19          1           0        1.118711    2.617577    0.280374
     20          1           0        1.503149    3.136793    1.930202
     21          6           0       -2.032897   -1.648657    1.910692
     22          6           0       -2.960473   -2.199262    1.020210
     23          6           0       -3.467826   -1.438237   -0.037137
     24          6           0       -3.023801   -0.124030   -0.174953
     25          6           0       -2.100619    0.452934    0.695758
     26          6           0       -1.606682   -0.326647    1.745914
     27          1           0       -1.643984   -2.247047    2.729271
     28          1           0       -3.293270   -3.225679    1.145740
     29          1           0       -4.186793   -1.839452   -0.741076
     30          1           0       -1.787754    1.478988    0.544937
     31          1           0       -0.886406    0.103585    2.435948
     32          7           0       -3.553811    0.691455   -1.290512
     33          8           0       -3.146683    1.846850   -1.390242
     34          8           0       -4.366326    0.159796   -2.044035
 ---------------------------------------------------------------------

 SCF Done:  E(RHF) =  -669.535344205     A.U. after   15 cycles
 E2 =    -0.2091551029D+01 EUMP2 =    -0.67162689523386D+03

 The electronic state is 1-A.
 Alpha  occ. eigenvalues --  -20.60733 -20.60728 -15.85787 -11.31142 -11.27731
 Alpha  occ. eigenvalues --  -11.27696 -11.27478 -11.26742 -11.26718 -11.22113
 Alpha  occ. eigenvalues --  -11.21847 -11.21792 -11.21768 -11.21673 -11.21278
 Alpha  occ. eigenvalues --   -1.59809  -1.39362  -1.19325  -1.08805  -1.08724
 Alpha  occ. eigenvalues --   -1.04732  -1.03935  -0.96403  -0.95556  -0.87428
 Alpha  occ. eigenvalues --   -0.86129  -0.82395  -0.80008  -0.78596  -0.77432
 Alpha  occ. eigenvalues --   -0.72006  -0.71132  -0.70436  -0.65451  -0.64980
 Alpha  occ. eigenvalues --   -0.64744  -0.62139  -0.61304  -0.59758  -0.57988
 Alpha  occ. eigenvalues --   -0.55715  -0.55232  -0.53096  -0.53085  -0.52860
 Alpha  occ. eigenvalues --   -0.52760  -0.50335  -0.48766  -0.48760  -0.48312
 Alpha  occ. eigenvalues --   -0.47023  -0.46145  -0.46050  -0.44769  -0.44173
 Alpha  occ. eigenvalues --   -0.37313  -0.36315
 Alpha virt. eigenvalues --    0.05087   0.11291   0.16485   0.20342   0.22660
 Alpha virt. eigenvalues --    0.23948   0.25575   0.26104   0.27311   0.27973
 Alpha virt. eigenvalues --    0.29225   0.29388   0.31381   0.31583   0.32318

 Mulliken charges:
               1
     1  C   -0.298644
     2  C   -0.299873
     3  C   -0.475913
     4  H    0.151268
     5  H    0.148506
     6  H    0.154173
     7  H    0.150799
     8  H    0.154552
     9  H    0.156166
    10  H    0.161113
    11  C   -0.298953
    12  C   -0.299589
    13  C   -0.482473
    14  H    0.153731
    15  H    0.147040
    16  H    0.155917
    17  H    0.150958
    18  H    0.144990
    19  H    0.162891
    20  H    0.163107
    21  C   -0.171021
    22  C   -0.218832
    23  C   -0.170625
    24  C    0.157909
    25  C   -0.170762
    26  C   -0.222302
    27  H    0.225387
    28  H    0.223231
    29  H    0.275485
    30  H    0.278809
    31  H    0.225960
    32  N    0.488149
    33  O   -0.460467
    34  O   -0.460687
 Sum of Mulliken charges =  -0.00000

 Dipole moment (field-independent basis, Debye):
    X=              1.9819    Y=             -2.8293    Z=              3.8482  Tot=              5.1712
 Quadrupole moment (field-independent basis, Debye-Ang):
   XX=           -105.7011   YY=            -90.9481   ZZ=            -95.9005
   XY=             11.7642   XZ=            -11.3567   YZ=              0.5947

 Normal termination of Gaussian 16 at Thu May  6 13:52:36 2021.
