 Gaussian 16, Revision A.03,
 Gaussian 16:  EM64L-G16RevA.03 25-Dec-2016

 -------------
 #p 6-31g* mp2
 -------------

 ------------------------------------------------------
 Input file generated by CHIRIPA (05-May-2021 14:53:18)
 ------------------------------------------------------
 Symbolic Z-matrix:
 Charge =  0 Multiplicity = 1

                         Standard orientation:
 ---------------------------------------------------------------------
 Center     Atomic      Atomic             Coordinates (Angstroms)
 Number     Number       Type             X           Y           Z
 ---------------------------------------------------------------------
      1          6           0       -3.357509   -0.350365   -0.336427
      2          6           0       -2.506084   -1.435646    0.323289
      3          6           0       -1.061164   -1.438880   -0.176701
      4          1           0       -3.345152   -0.494971   -1.425409
      5          1           0       -2.900503    0.630627   -0.146174
      6          1           0       -2.965313   -2.414177    0.133020
      7          1           0       -2.520625   -1.288554    1.410841
      8          1           0       -0.580769   -0.476486    0.027303
      9          1           0       -1.027984   -1.608504   -1.257778
     10          1           0       -0.470393   -2.222443    0.307942
     11          6           0       -4.804511   -0.334456    0.153123
     12          6           0       -5.655936    0.750826   -0.506593
     13          6           0       -7.100856    0.754060   -0.006602
     14          1           0       -5.261517   -1.315447   -0.037129
     15          1           0       -4.816868   -0.189850    1.242105
     16          1           0       -5.641395    0.603733   -1.594144
     17          1           0       -5.196707    1.729356   -0.316324
     18          1           0       -7.134037    0.923683    1.074475
     19          1           0       -7.581251   -0.208335   -0.210606
     20          1           0       -7.691627    1.537622   -0.491246
     21          6           0        3.816357   -2.170451   -0.095153
     22          6           0        4.607355   -1.199611   -0.718301
     23          6           0        4.268916    0.154144   -0.632537
     24          6           0        3.127569    0.503201    0.087724
     25          6           0        2.319291   -0.440603    0.719554
     26          6           0        2.676859   -1.788522    0.620524
     27          1           0        4.086695   -3.219814   -0.166930
     28          1           0        5.492863   -1.493313   -1.274773
     29          1           0        4.863467    0.926443   -1.105276
     30          1           0        1.442455   -0.117159    1.267242
     31          1           0        2.060692   -2.540319    1.105484
     32          7           0        2.759154    1.933271    0.185541
     33          8           0        1.748661    2.214900    0.826029
     34          8           0        3.487861    2.745455   -0.380130
 ---------------------------------------------------------------------

 SCF Done:  E(RHF) =  -669.534630955     A.U. after   15 cycles
 E2 =    -0.2092157209D+01 EUMP2 =    -0.67162678816435D+03

 The electronic state is 1-A.
 Alpha  occ. eigenvalues --  -20.60769 -20.60762 -15.85817 -11.31132 -11.27713
 Alpha  occ. eigenvalues --  -11.27678 -11.27454 -11.26719 -11.26698 -11.21829
 Alpha  occ. eigenvalues --  -11.21515 -11.21494 -11.21412 -11.21343 -11.20989
 Alpha  occ. eigenvalues --   -1.59840  -1.39396  -1.19315  -1.08719  -1.08479
 Alpha  occ. eigenvalues --   -1.04721  -1.03633  -0.96109  -0.95555  -0.87136
 Alpha  occ. eigenvalues --   -0.86118  -0.82395  -0.79711  -0.78265  -0.77438
 Alpha  occ. eigenvalues --   -0.72038  -0.71161  -0.70441  -0.65122  -0.64969
 Alpha  occ. eigenvalues --   -0.64732  -0.62139  -0.60993  -0.59486  -0.57701
 Alpha  occ. eigenvalues --   -0.55454  -0.55163  -0.53201  -0.52922  -0.52654
 Alpha  occ. eigenvalues --   -0.52420  -0.50003  -0.48795  -0.48790  -0.48010
 Alpha  occ. eigenvalues --   -0.46708  -0.45816  -0.45712  -0.44806  -0.43887
 Alpha  occ. eigenvalues --   -0.37298  -0.36255
 Alpha virt. eigenvalues --    0.05072   0.11270   0.16523   0.20538   0.22953
 Alpha virt. eigenvalues --    0.24110   0.26324   0.26463   0.27159   0.27954
 Alpha virt. eigenvalues --    0.28980   0.29779   0.31437   0.31871   0.32460

 Mulliken charges:
               1
     1  C   -0.300247
     2  C   -0.299627
     3  C   -0.480422
     4  H    0.149823
     5  H    0.156203
     6  H    0.151236
     7  H    0.151388
     8  H    0.161501
     9  H    0.159023
    10  H    0.148739
    11  C   -0.298431
    12  C   -0.300196
    13  C   -0.475812
    14  H    0.148272
    15  H    0.150104
    16  H    0.151843
    17  H    0.154772
    18  H    0.155446
    19  H    0.154272
    20  H    0.160855
    21  C   -0.171259
    22  C   -0.218710
    23  C   -0.171033
    24  C    0.156824
    25  C   -0.167030
    26  C   -0.218011
    27  H    0.225362
    28  H    0.223129
    29  H    0.275302
    30  H    0.277000
    31  H    0.223438
    32  N    0.488741
    33  O   -0.462338
    34  O   -0.460160
 Sum of Mulliken charges =  -0.00000

 Dipole moment (field-independent basis, Debye):
    X=              1.2405    Y=             -4.9675    Z=             -0.3883  Tot=              5.1348
 Quadrupole moment (field-independent basis, Debye-Ang):
   XX=            -84.7058   YY=            -99.9541   ZZ=            -93.4425
   XY=            -14.1195   XZ=             -3.0546   YZ=             -0.8832

 Normal termination of Gaussian 16 at Thu May  6 12:21:32 2021.
