 Gaussian 16, Revision A.03,
 Gaussian 16:  EM64L-G16RevA.03 25-Dec-2016

 -------------
 #p 6-31g* mp2
 -------------

 ------------------------------------------------------
 Input file generated by CHIRIPA (05-May-2021 14:51:14)
 ------------------------------------------------------
 Symbolic Z-matrix:
 Charge =  0 Multiplicity = 1

                         Standard orientation:
 ---------------------------------------------------------------------
 Center     Atomic      Atomic             Coordinates (Angstroms)
 Number     Number       Type             X           Y           Z
 ---------------------------------------------------------------------
      1          6           0        2.750394    0.987652   -0.221732
      2          6           0        2.811464    2.420962    0.307304
      3          6           0        1.570247    3.237659   -0.053503
      4          1           0        2.629907    1.011346   -1.313458
      5          1           0        1.855370    0.493440    0.180860
      6          1           0        3.706847    2.911885   -0.095065
      7          1           0        2.932012    2.393853    1.397876
      8          1           0        0.669676    2.773465    0.361342
      9          1           0        1.448913    3.294440   -1.140082
     10          1           0        1.634952    4.259005    0.334473
     11          6           0        3.984132    0.158644    0.130921
     12          6           0        3.923062   -1.274666   -0.398115
     13          6           0        5.164279   -2.091363   -0.037308
     14          1           0        4.879156    0.652856   -0.271671
     15          1           0        4.104619    0.134950    1.222647
     16          1           0        3.802514   -1.247557   -1.488688
     17          1           0        3.027679   -1.765589    0.004254
     18          1           0        5.285613   -2.148144    1.049271
     19          1           0        6.064850   -1.627169   -0.452153
     20          1           0        5.099575   -3.112709   -0.425284
     21          6           0       -4.018817   -0.344004    0.371599
     22          6           0       -5.072197    0.116885   -0.636346
     23          6           0       -6.370059    0.572266    0.031470
     24          1           0       -4.431044   -1.165505    0.973388
     25          1           0       -3.804679    0.477545    1.069164
     26          1           0       -5.283272   -0.704834   -1.332652
     27          1           0       -4.657347    0.937258   -1.235934
     28          1           0       -6.180221    1.408351    0.712296
     29          1           0       -6.809703   -0.243070    0.615030
     30          1           0       -7.109092    0.897486   -0.707395
     31          6           0       -2.715709   -0.802292   -0.280789
     32          6           0       -1.662329   -1.263182    0.727158
     33          6           0       -0.364467   -1.718562    0.059341
     34          1           0       -2.929848   -1.623842   -0.978353
     35          1           0       -2.303482    0.019209   -0.882577
     36          1           0       -2.077179   -2.083553    1.326746
     37          1           0       -1.451254   -0.441463    1.423462
     38          1           0        0.075176   -0.903226   -0.524219
     39          1           0       -0.554305   -2.554647   -0.621485
     40          1           0        0.374565   -2.043781    0.798207
 ---------------------------------------------------------------------

 SCF Done:  E(RHF) =  -470.732916660     A.U. after   11 cycles
 E2 =    -0.1583266443D+01 EUMP2 =    -0.47231618310332D+03

 The electronic state is 1-A.
 Alpha  occ. eigenvalues --  -11.21639 -11.21606 -11.21592 -11.21521 -11.21421
 Alpha  occ. eigenvalues --  -11.21361 -11.21352 -11.21289 -11.21102 -11.21073
 Alpha  occ. eigenvalues --  -11.21071 -11.21024  -1.08453  -1.08390  -1.03550
 Alpha  occ. eigenvalues --   -1.03502  -0.96015  -0.95943  -0.87026  -0.86969
 Alpha  occ. eigenvalues --   -0.79628  -0.79562  -0.78293  -0.78170  -0.65148
 Alpha  occ. eigenvalues --   -0.64974  -0.60982  -0.60878  -0.59398  -0.59294
 Alpha  occ. eigenvalues --   -0.57637  -0.57547  -0.55408  -0.55143  -0.52748
 Alpha  occ. eigenvalues --   -0.52618  -0.52463  -0.52342  -0.50048  -0.49820
 Alpha  occ. eigenvalues --   -0.47972  -0.47848  -0.46736  -0.46582  -0.45886
 Alpha  occ. eigenvalues --   -0.45748  -0.45712  -0.45415  -0.43789  -0.43734
 Alpha virt. eigenvalues --    0.21214   0.23034   0.23925   0.24247   0.26177
 Alpha virt. eigenvalues --    0.26695   0.26817   0.27531   0.28051   0.29262
 Alpha virt. eigenvalues --    0.29973   0.31520   0.31706   0.31759   0.32231

 Mulliken charges:
               1
     1  C   -0.305721
     2  C   -0.299007
     3  C   -0.475790
     4  H    0.148615
     5  H    0.158588
     6  H    0.151896
     7  H    0.151745
     8  H    0.154067
     9  H    0.155065
    10  H    0.160457
    11  C   -0.297608
    12  C   -0.303952
    13  C   -0.475597
    14  H    0.149188
    15  H    0.149042
    16  H    0.151633
    17  H    0.157406
    18  H    0.154764
    19  H    0.154951
    20  H    0.160163
    21  C   -0.298268
    22  C   -0.299701
    23  C   -0.475723
    24  H    0.149646
    25  H    0.149484
    26  H    0.151935
    27  H    0.152163
    28  H    0.155238
    29  H    0.155143
    30  H    0.160312
    31  C   -0.298710
    32  C   -0.300649
    33  C   -0.481340
    34  H    0.149701
    35  H    0.150270
    36  H    0.152190
    37  H    0.151226
    38  H    0.161543
    39  H    0.155714
    40  H    0.159922
 Sum of Mulliken charges =  -0.00000

 Dipole moment (field-independent basis, Debye):
    X=             -0.0264    Y=             -0.0152    Z=             -0.0116  Tot=              0.0326
 Quadrupole moment (field-independent basis, Debye-Ang):
   XX=            -86.2984   YY=            -84.4705   ZZ=            -84.1838
   XY=              1.4337   XZ=             -0.1693   YZ=             -0.1857

 Normal termination of Gaussian 16 at Thu May  6 00:49:48 2021.
