 Gaussian 16, Revision A.03,
 Gaussian 16:  EM64L-G16RevA.03 25-Dec-2016

 -------------
 #p 6-31g* mp2
 -------------

 ------------------------------------------------------
 Input file generated by CHIRIPA (05-May-2021 14:55:23)
 ------------------------------------------------------
 Symbolic Z-matrix:
 Charge =  0 Multiplicity = 1

                         Standard orientation:
 ---------------------------------------------------------------------
 Center     Atomic      Atomic             Coordinates (Angstroms)
 Number     Number       Type             X           Y           Z
 ---------------------------------------------------------------------
      1          6           0        4.001123   -1.438107   -1.352070
      2          6           0        4.048008   -0.042619   -1.268785
      3          6           0        3.241588    0.641577   -0.354395
      4          6           0        2.396126   -0.104662    0.465125
      5          6           0        2.326771   -1.495696    0.405930
      6          6           0        3.142168   -2.158921   -0.515921
      7          1           0        4.631056   -1.961462   -2.065288
      8          1           0        4.714128    0.519771   -1.916896
      9          1           0        3.257906    1.721321   -0.268934
     10          1           0        1.652677   -2.028954    1.065210
     11          1           0        3.103662   -3.242737   -0.578401
     12          7           0        1.537653    0.608565    1.437098
     13          8           0        0.801306   -0.071970    2.147943
     14          8           0        1.617385    1.834623    1.469681
     15          6           0       -3.537630   -0.231647    0.092694
     16          6           0       -4.489292   -1.222918   -0.577908
     17          6           0       -5.060246   -2.249069    0.401285
     18          1           0       -2.715554   -0.785510    0.566371
     19          1           0       -4.070644    0.288288    0.900752
     20          1           0       -3.955039   -1.739836   -1.385363
     21          1           0       -5.309097   -0.666617   -1.050209
     22          1           0       -5.617165   -1.750119    1.200967
     23          1           0       -4.255413   -2.829435    0.863908
     24          1           0       -5.737904   -2.947767   -0.099174
     25          6           0       -2.958660    0.800505   -0.873320
     26          6           0       -2.006997    1.791775   -0.202719
     27          6           0       -1.436043    2.817926   -1.181913
     28          1           0       -2.425645    0.280569   -1.681379
     29          1           0       -3.780735    1.354368   -1.346999
     30          1           0       -1.187193    1.235476    0.269582
     31          1           0       -2.541251    2.308695    0.604736
     32          1           0       -2.240876    3.398293   -1.644536
     33          1           0       -0.879125    2.318976   -1.981594
     34          1           0       -0.758386    3.516625   -0.681452
 ---------------------------------------------------------------------

 SCF Done:  E(RHF) =  -669.536020672     A.U. after   15 cycles
 E2 =    -0.2091750489D+01 EUMP2 =    -0.67162777116071D+03

 The electronic state is 1-A.
 Alpha  occ. eigenvalues --  -20.60942 -20.60935 -15.85961 -11.31296 -11.27864
 Alpha  occ. eigenvalues --  -11.27855 -11.27599 -11.26868 -11.26857 -11.21133
 Alpha  occ. eigenvalues --  -11.20732 -11.20675 -11.20669 -11.20622 -11.20288
 Alpha  occ. eigenvalues --   -1.60004  -1.39555  -1.19466  -1.08869  -1.07757
 Alpha  occ. eigenvalues --   -1.04862  -1.02869  -0.95709  -0.95341  -0.86366
 Alpha  occ. eigenvalues --   -0.86262  -0.82542  -0.78928  -0.77596  -0.77535
 Alpha  occ. eigenvalues --   -0.72182  -0.71340  -0.70573  -0.65119  -0.64863
 Alpha  occ. eigenvalues --   -0.64397  -0.62208  -0.60281  -0.58699  -0.56916
 Alpha  occ. eigenvalues --   -0.55365  -0.54656  -0.53195  -0.52953  -0.52034
 Alpha  occ. eigenvalues --   -0.51762  -0.49322  -0.48950  -0.48946  -0.47233
 Alpha  occ. eigenvalues --   -0.45965  -0.45116  -0.45052  -0.44863  -0.43115
 Alpha  occ. eigenvalues --   -0.37446  -0.36463
 Alpha virt. eigenvalues --    0.04901   0.11190   0.16377   0.21310   0.23449
 Alpha virt. eigenvalues --    0.24863   0.27156   0.27280   0.27928   0.28436
 Alpha virt. eigenvalues --    0.28607   0.30898   0.31953   0.32319   0.32387

 Mulliken charges:
               1
     1  C   -0.170544
     2  C   -0.218649
     3  C   -0.170500
     4  C    0.157669
     5  C   -0.171137
     6  C   -0.218619
     7  H    0.226064
     8  H    0.223970
     9  H    0.276144
    10  H    0.275616
    11  H    0.223836
    12  N    0.487039
    13  O   -0.459445
    14  O   -0.458286
    15  C   -0.298704
    16  C   -0.298977
    17  C   -0.475018
    18  H    0.154531
    19  H    0.151056
    20  H    0.148369
    21  H    0.150564
    22  H    0.156064
    23  H    0.154593
    24  H    0.157585
    25  C   -0.298125
    26  C   -0.300489
    27  C   -0.477145
    28  H    0.143956
    29  H    0.146778
    30  H    0.160589
    31  H    0.154829
    32  H    0.151084
    33  H    0.147331
    34  H    0.167974
 Sum of Mulliken charges =  -0.00000

 Dipole moment (field-independent basis, Debye):
    X=              3.2050    Y=             -2.4682    Z=             -3.2648  Tot=              5.1983
 Quadrupole moment (field-independent basis, Debye-Ang):
   XX=            -80.1662   YY=            -90.8295   ZZ=            -98.7000
   XY=             -5.6300   XZ=             -8.0312   YZ=             -1.5119

 Normal termination of Gaussian 16 at Thu May  6 10:59:30 2021.
