 Gaussian 16, Revision A.03,
 Gaussian 16:  EM64L-G16RevA.03 25-Dec-2016

 -------------
 #p 6-31g* mp2
 -------------

 ------------------------------------------------------
 Input file generated by CHIRIPA (05-May-2021 14:51:12)
 ------------------------------------------------------
 Symbolic Z-matrix:
 Charge =  0 Multiplicity = 1

                         Standard orientation:
 ---------------------------------------------------------------------
 Center     Atomic      Atomic             Coordinates (Angstroms)
 Number     Number       Type             X           Y           Z
 ---------------------------------------------------------------------
      1          6           0        3.116369    0.944960    0.026385
      2          6           0        2.278855    2.222242    0.097848
      3          6           0        3.134807    3.487085    0.170746
      4          1           0        3.772940    0.894918    0.905791
      5          1           0        3.774164    0.994815   -0.852373
      6          1           0        1.621844    2.169385    0.975435
      7          1           0        1.624065    2.269154   -0.781734
      8          1           0        3.779723    3.567119   -0.710321
      9          1           0        3.777489    3.466783    1.056831
     10          1           0        2.515876    4.388332    0.221135
     11          6           0        2.274878   -0.327927   -0.046951
     12          6           0        3.112391   -1.605209   -0.118415
     13          6           0        2.256440   -2.870051   -0.191312
     14          1           0        1.617082   -0.377782    0.831806
     15          1           0        1.618307   -0.277884   -0.926358
     16          1           0        3.767182   -1.652121    0.761167
     17          1           0        3.769403   -1.552352   -0.996001
     18          1           0        1.613757   -2.849750   -1.077398
     19          1           0        1.611524   -2.950086    0.689755
     20          1           0        2.875371   -3.771298   -0.241701
     21          6           0       -2.658316   -1.023575    0.276238
     22          6           0       -1.440176   -1.796299   -0.230733
     23          6           0       -1.379476   -3.225166    0.310051
     24          1           0       -2.639233   -1.001003    1.374450
     25          1           0       -3.571480   -1.563847   -0.009473
     26          1           0       -0.529627   -1.254014    0.054648
     27          1           0       -1.462058   -1.816870   -1.327873
     28          1           0       -2.270786   -3.787499    0.013491
     29          1           0       -1.333057   -3.221445    1.403868
     30          1           0       -0.500938   -3.759379   -0.064981
     31          6           0       -2.732931    0.406542   -0.255671
     32          6           0       -3.951071    1.179266    0.251300
     33          6           0       -4.011770    2.608133   -0.289486
     34          1           0       -1.819766    0.946814    0.030039
     35          1           0       -2.752013    0.383969   -1.353885
     36          1           0       -3.929189    1.199836    1.348439
     37          1           0       -4.861620    0.636980   -0.034083
     38          1           0       -4.058189    2.604411   -1.383301
     39          1           0       -3.120460    3.170465    0.007075
     40          1           0       -4.890308    3.142345    0.085547
 ---------------------------------------------------------------------

 SCF Done:  E(RHF) =  -470.731060256     A.U. after   11 cycles
 E2 =    -0.1585258129D+01 EUMP2 =    -0.47231631838487D+03

 The electronic state is 1-A.
 Alpha  occ. eigenvalues --  -11.21655 -11.21634 -11.21552 -11.21451 -11.21391
 Alpha  occ. eigenvalues --  -11.21380 -11.21317 -11.21250 -11.21109 -11.21045
 Alpha  occ. eigenvalues --  -11.21035 -11.20845  -1.08503  -1.08320  -1.03624
 Alpha  occ. eigenvalues --   -1.03384  -0.96087  -0.95830  -0.87137  -0.86816
 Alpha  occ. eigenvalues --   -0.79682  -0.79502  -0.78456  -0.78002  -0.65136
 Alpha  occ. eigenvalues --   -0.64954  -0.61032  -0.60804  -0.59548  -0.59182
 Alpha  occ. eigenvalues --   -0.57883  -0.57254  -0.55366  -0.55124  -0.52951
 Alpha  occ. eigenvalues --   -0.52689  -0.52458  -0.51963  -0.50011  -0.49769
 Alpha  occ. eigenvalues --   -0.47900  -0.47806  -0.46692  -0.46656  -0.46113
 Alpha  occ. eigenvalues --   -0.45807  -0.45629  -0.45068  -0.43839  -0.43653
 Alpha virt. eigenvalues --    0.21636   0.23077   0.23375   0.25154   0.25348
 Alpha virt. eigenvalues --    0.25859   0.26888   0.27310   0.29445   0.29830
 Alpha virt. eigenvalues --    0.30000   0.30935   0.31455   0.31713   0.32018

 Mulliken charges:
               1
     1  C   -0.296972
     2  C   -0.300306
     3  C   -0.475711
     4  H    0.149631
     5  H    0.149804
     6  H    0.151161
     7  H    0.152705
     8  H    0.155439
     9  H    0.155264
    10  H    0.160435
    11  C   -0.303074
    12  C   -0.299508
    13  C   -0.480470
    14  H    0.149795
    15  H    0.153073
    16  H    0.151732
    17  H    0.151841
    18  H    0.157336
    19  H    0.160621
    20  H    0.159903
    21  C   -0.297279
    22  C   -0.309711
    23  C   -0.480696
    24  H    0.148579
    25  H    0.148978
    26  H    0.165251
    27  H    0.149224
    28  H    0.153954
    29  H    0.152293
    30  H    0.167904
    31  C   -0.298929
    32  C   -0.299458
    33  C   -0.475676
    34  H    0.150135
    35  H    0.149031
    36  H    0.151659
    37  H    0.151855
    38  H    0.154963
    39  H    0.155195
    40  H    0.160029
 Sum of Mulliken charges =  -0.00000

 Dipole moment (field-independent basis, Debye):
    X=              0.0972    Y=              0.0008    Z=             -0.0128  Tot=              0.0981
 Quadrupole moment (field-independent basis, Debye-Ang):
   XX=            -84.9948   YY=            -86.8376   ZZ=            -83.1861
   XY=             -0.2404   XZ=              0.3564   YZ=              0.4833

 Normal termination of Gaussian 16 at Wed May  5 18:19:03 2021.
