 Gaussian 16, Revision A.03,
 Gaussian 16:  EM64L-G16RevA.03 25-Dec-2016

 -------------
 #p 6-31g* mp2
 -------------

 ------------------------------------------------------
 Input file generated by CHIRIPA (05-May-2021 14:53:17)
 ------------------------------------------------------
 Symbolic Z-matrix:
 Charge =  0 Multiplicity = 1

                         Standard orientation:
 ---------------------------------------------------------------------
 Center     Atomic      Atomic             Coordinates (Angstroms)
 Number     Number       Type             X           Y           Z
 ---------------------------------------------------------------------
      1          6           0        5.449298   -0.128450   -0.346999
      2          6           0        5.733569   -1.577866    0.048433
      3          6           0        6.956328   -2.156171   -0.664462
      4          1           0        5.301457   -0.073946   -1.434252
      5          1           0        6.331660    0.485928   -0.120347
      6          1           0        4.850428   -2.189077   -0.177620
      7          1           0        5.880560   -1.628957    1.134894
      8          1           0        7.851471   -1.571075   -0.429981
      9          1           0        6.815486   -2.134377   -1.749952
     10          1           0        7.141280   -3.193106   -0.367107
     11          6           0        4.229878    0.463654    0.357385
     12          6           0        3.945607    1.913071   -0.038047
     13          6           0        2.722848    2.491376    0.674847
     14          1           0        3.347516   -0.150723    0.130732
     15          1           0        4.377718    0.409150    1.444637
     16          1           0        3.798616    1.964161   -1.124509
     17          1           0        4.828748    2.524281    0.188005
     18          1           0        2.863690    2.469582    1.760337
     19          1           0        1.827705    1.906279    0.440366
     20          1           0        2.537896    3.528310    0.377492
     21          6           0       -1.367917    0.559482    0.254049
     22          6           0       -2.229653    1.313487   -0.549324
     23          6           0       -3.568573    0.940305   -0.699587
     24          6           0       -4.014209   -0.197687   -0.029009
     25          6           0       -3.180214   -0.969544    0.778442
     26          6           0       -1.845106   -0.577622    0.914203
     27          1           0       -0.329292    0.856657    0.365143
     28          1           0       -1.861819    2.197046   -1.063197
     29          1           0       -4.257386    1.505832   -1.315326
     30          1           0       -3.575932   -1.845382    1.278175
     31          1           0       -1.178142   -1.165100    1.538763
     32          7           0       -5.429646   -0.602677   -0.180410
     33          8           0       -5.797733   -1.609417    0.420941
     34          8           0       -6.144176    0.094298   -0.897562
 ---------------------------------------------------------------------

 SCF Done:  E(RHF) =  -669.535507618     A.U. after   15 cycles
 E2 =    -0.2090776528D+01 EUMP2 =    -0.67162628414616D+03

 The electronic state is 1-A.
 Alpha  occ. eigenvalues --  -20.60734 -20.60729 -15.85788 -11.31148 -11.27719
 Alpha  occ. eigenvalues --  -11.27715 -11.27442 -11.26730 -11.26720 -11.22540
 Alpha  occ. eigenvalues --  -11.22298 -11.22248 -11.22185 -11.22044 -11.21544
 Alpha  occ. eigenvalues --   -1.59810  -1.39363  -1.19320  -1.09213  -1.08715
 Alpha  occ. eigenvalues --   -1.04724  -1.04323  -0.96790  -0.95552  -0.87808
 Alpha  occ. eigenvalues --   -0.86120  -0.82387  -0.80394  -0.78999  -0.77432
 Alpha  occ. eigenvalues --   -0.72005  -0.71133  -0.70450  -0.65842  -0.64972
 Alpha  occ. eigenvalues --   -0.64728  -0.62072  -0.61727  -0.60164  -0.58390
 Alpha  occ. eigenvalues --   -0.56169  -0.55191  -0.53472  -0.53193  -0.53053
 Alpha  occ. eigenvalues --   -0.52815  -0.50729  -0.48775  -0.48761  -0.48692
 Alpha  occ. eigenvalues --   -0.47420  -0.46547  -0.46451  -0.44770  -0.44562
 Alpha  occ. eigenvalues --   -0.37298  -0.36330
 Alpha virt. eigenvalues --    0.05104   0.11325   0.16597   0.19348   0.22408
 Alpha virt. eigenvalues --    0.23668   0.25129   0.26276   0.26941   0.27426
 Alpha virt. eigenvalues --    0.28679   0.30350   0.30906   0.31338   0.32385

 Mulliken charges:
               1
     1  C   -0.298810
     2  C   -0.300134
     3  C   -0.476128
     4  H    0.150890
     5  H    0.151492
     6  H    0.151477
     7  H    0.152449
     8  H    0.156176
     9  H    0.156067
    10  H    0.161818
    11  C   -0.298148
    12  C   -0.299695
    13  C   -0.480902
    14  H    0.144743
    15  H    0.150883
    16  H    0.153459
    17  H    0.156304
    18  H    0.159531
    19  H    0.145246
    20  H    0.164259
    21  C   -0.178270
    22  C   -0.222417
    23  C   -0.170760
    24  C    0.158226
    25  C   -0.170614
    26  C   -0.221917
    27  H    0.239049
    28  H    0.223712
    29  H    0.275504
    30  H    0.275446
    31  H    0.224176
    32  N    0.487957
    33  O   -0.460531
    34  O   -0.460540
 Sum of Mulliken charges =  -0.00000

 Dipole moment (field-independent basis, Debye):
    X=              5.2408    Y=              1.4588    Z=              0.5341  Tot=              5.4662
 Quadrupole moment (field-independent basis, Debye-Ang):
   XX=           -134.7000   YY=            -92.5523   ZZ=            -93.0918
   XY=             -6.6381   XZ=             -0.8955   YZ=             -2.8852

 Normal termination of Gaussian 16 at Thu May  6 02:46:08 2021.
