 Gaussian 16, Revision A.03,
 Gaussian 16:  EM64L-G16RevA.03 25-Dec-2016

 -------------
 #p 6-31g* mp2
 -------------

 ------------------------------------------------------
 Input file generated by CHIRIPA (05-May-2021 14:53:13)
 ------------------------------------------------------
 Symbolic Z-matrix:
 Charge =  0 Multiplicity = 1

                         Standard orientation:
 ---------------------------------------------------------------------
 Center     Atomic      Atomic             Coordinates (Angstroms)
 Number     Number       Type             X           Y           Z
 ---------------------------------------------------------------------
      1          6           0        3.537859    0.762360   -0.332407
      2          6           0        4.146063    1.830534    0.577031
      3          6           0        3.597382    3.229484    0.294754
      4          1           0        3.731034    1.028940   -1.380530
      5          1           0        2.446318    0.761475   -0.206184
      6          1           0        5.236253    1.828461    0.450156
      7          1           0        3.951584    1.561280    1.623118
      8          1           0        2.512570    3.254409    0.440228
      9          1           0        3.804538    3.523108   -0.739399
     10          1           0        4.045640    3.977520    0.956092
     11          6           0        4.076437   -0.641459   -0.062304
     12          6           0        3.468233   -1.709633   -0.971742
     13          6           0        4.016914   -3.108583   -0.689464
     14          1           0        5.167978   -0.640574   -0.188527
     15          1           0        3.883262   -0.908039    0.985820
     16          1           0        3.662712   -1.440379   -2.017828
     17          1           0        2.378043   -1.707560   -0.844866
     18          1           0        3.809758   -3.402207    0.344689
     19          1           0        5.101726   -3.133508   -0.834938
     20          1           0        3.568656   -3.856619   -1.350802
     21          6           0       -0.781696   -0.563758    1.290606
     22          6           0       -0.837899    0.408984    0.287045
     23          6           0       -2.047336    0.703405   -0.349450
     24          6           0       -3.186311    0.002709    0.044319
     25          6           0       -3.162518   -0.971905    1.040737
     26          6           0       -1.942139   -1.249889    1.663592
     27          1           0        0.162074   -0.786087    1.779752
     28          1           0        0.061725    0.943423   -0.004669
     29          1           0       -2.119264    1.451662   -1.129421
     30          1           0       -4.076075   -1.488007    1.309942
     31          1           0       -1.901469   -2.005837    2.442651
     32          7           0       -4.472480    0.305699   -0.622290
     33          8           0       -5.461761   -0.325674   -0.257151
     34          8           0       -4.466943    1.168818   -1.497293
 ---------------------------------------------------------------------

 SCF Done:  E(RHF) =  -669.535515379     A.U. after   15 cycles
 E2 =    -0.2091583493D+01 EUMP2 =    -0.67162709887169D+03

 The electronic state is 1-A.
 Alpha  occ. eigenvalues --  -20.60762 -20.60757 -15.85815 -11.31191 -11.27761
 Alpha  occ. eigenvalues --  -11.27754 -11.27514 -11.26781 -11.26760 -11.22521
 Alpha  occ. eigenvalues --  -11.22458 -11.22407 -11.22294 -11.21907 -11.21757
 Alpha  occ. eigenvalues --   -1.59837  -1.39390  -1.19365  -1.09369  -1.08760
 Alpha  occ. eigenvalues --   -1.04768  -1.04372  -0.96827  -0.95593  -0.87836
 Alpha  occ. eigenvalues --   -0.86172  -0.82424  -0.80433  -0.79198  -0.77467
 Alpha  occ. eigenvalues --   -0.72034  -0.71160  -0.70477  -0.66065  -0.65016
 Alpha  occ. eigenvalues --   -0.64751  -0.62134  -0.61757  -0.60186  -0.58430
 Alpha  occ. eigenvalues --   -0.56130  -0.55276  -0.53475  -0.53259  -0.53096
 Alpha  occ. eigenvalues --   -0.52863  -0.50772  -0.48811  -0.48788  -0.48728
 Alpha  occ. eigenvalues --   -0.47477  -0.46703  -0.46656  -0.44794  -0.44655
 Alpha  occ. eigenvalues --   -0.37348  -0.36368
 Alpha virt. eigenvalues --    0.05061   0.11225   0.16541   0.18444   0.22666
 Alpha virt. eigenvalues --    0.23287   0.24810   0.26029   0.26866   0.28160
 Alpha virt. eigenvalues --    0.29721   0.30253   0.31063   0.31333   0.31776

 Mulliken charges:
               1
     1  C   -0.303454
     2  C   -0.299949
     3  C   -0.475969
     4  H    0.154677
     5  H    0.141112
     6  H    0.156259
     7  H    0.150836
     8  H    0.150385
     9  H    0.158131
    10  H    0.164442
    11  C   -0.298337
    12  C   -0.301128
    13  C   -0.475845
    14  H    0.154021
    15  H    0.146120
    16  H    0.155304
    17  H    0.149347
    18  H    0.153382
    19  H    0.157472
    20  H    0.163414
    21  C   -0.173511
    22  C   -0.225465
    23  C   -0.171811
    24  C    0.159064
    25  C   -0.171150
    26  C   -0.218467
    27  H    0.225401
    28  H    0.232941
    29  H    0.276408
    30  H    0.275667
    31  H    0.223459
    32  N    0.487915
    33  O   -0.460435
    34  O   -0.460234
 Sum of Mulliken charges =  -0.00000

 Dipole moment (field-independent basis, Debye):
    X=              4.7381    Y=             -1.0663    Z=              2.2884  Tot=              5.3687
 Quadrupole moment (field-independent basis, Debye-Ang):
   XX=           -121.6194   YY=            -93.6210   ZZ=            -92.9411
   XY=              5.8079   XZ=             -9.5931   YZ=             -2.3012

 Normal termination of Gaussian 16 at Thu May  6 10:29:16 2021.
