 Gaussian 16, Revision A.03,
 Gaussian 16:  EM64L-G16RevA.03 25-Dec-2016

 -------------
 #p 6-31g* mp2
 -------------

 ------------------------------------------------------
 Input file generated by CHIRIPA (05-May-2021 14:53:17)
 ------------------------------------------------------
 Symbolic Z-matrix:
 Charge =  0 Multiplicity = 1

                         Standard orientation:
 ---------------------------------------------------------------------
 Center     Atomic      Atomic             Coordinates (Angstroms)
 Number     Number       Type             X           Y           Z
 ---------------------------------------------------------------------
      1          6           0       -3.182728    0.929603   -0.705788
      2          6           0       -2.490191    2.051158    0.069126
      3          6           0       -2.125517    3.243420   -0.815927
      4          1           0       -2.525879    0.595809   -1.520696
      5          1           0       -4.091006    1.327252   -1.179391
      6          1           0       -1.584226    1.651179    0.542266
      7          1           0       -3.148685    2.382190    0.882403
      8          1           0       -3.022398    3.669359   -1.277209
      9          1           0       -1.449051    2.934195   -1.619278
     10          1           0       -1.631533    4.033432   -0.241712
     11          6           0       -3.553513   -0.269278    0.165378
     12          6           0       -4.246050   -1.390834   -0.609535
     13          6           0       -4.610724   -2.583096    0.275517
     14          1           0       -2.645235   -0.666927    0.638982
     15          1           0       -4.210362    0.064516    0.980287
     16          1           0       -3.587556   -1.721865   -1.422812
     17          1           0       -5.152015   -0.990855   -1.082675
     18          1           0       -5.287190   -2.273870    1.078869
     19          1           0       -3.713843   -3.009034    0.736800
     20          1           0       -5.104708   -3.373107   -0.298697
     21          6           0        4.612567   -0.451592   -1.339122
     22          6           0        4.761867    0.147080   -0.083804
     23          6           0        3.671028    0.259779    0.783327
     24          6           0        2.439807   -0.239217    0.360967
     25          6           0        2.259238   -0.840909   -0.883482
     26          6           0        3.363929   -0.942809   -1.734258
     27          1           0        5.465337   -0.534945   -2.006378
     28          1           0        5.730388    0.529452    0.225716
     29          1           0        3.758536    0.718643    1.760672
     30          1           0        1.281266   -1.212736   -1.164079
     31          1           0        3.245038   -1.408227   -2.708576
     32          7           0        1.277651   -0.125624    1.270303
     33          8           0        0.203499   -0.573127    0.874608
     34          8           0        1.462912    0.408762    2.361516
 ---------------------------------------------------------------------

 SCF Done:  E(RHF) =  -669.536456720     A.U. after   15 cycles
 E2 =    -0.2092016147D+01 EUMP2 =    -0.67162847286653D+03

 The electronic state is 1-A.
 Alpha  occ. eigenvalues --  -20.61132 -20.61126 -15.86148 -11.31398 -11.27953
 Alpha  occ. eigenvalues --  -11.27946 -11.27675 -11.26941 -11.26932 -11.20655
 Alpha  occ. eigenvalues --  -11.20339 -11.20275 -11.20232 -11.20227 -11.19980
 Alpha  occ. eigenvalues --   -1.60181  -1.39741  -1.19558  -1.08976  -1.07280
 Alpha  occ. eigenvalues --   -1.04943  -1.02516  -0.95830  -0.94985  -0.86347
 Alpha  occ. eigenvalues --   -0.86009  -0.82670  -0.78560  -0.77734  -0.77066
 Alpha  occ. eigenvalues --   -0.72378  -0.71489  -0.70667  -0.65221  -0.64946
 Alpha  occ. eigenvalues --   -0.63880  -0.62291  -0.59920  -0.58358  -0.56591
 Alpha  occ. eigenvalues --   -0.55450  -0.54277  -0.53278  -0.53034  -0.51730
 Alpha  occ. eigenvalues --   -0.51417  -0.49165  -0.49120  -0.48935  -0.46900
 Alpha  occ. eigenvalues --   -0.45656  -0.45157  -0.44668  -0.44282  -0.42724
 Alpha  occ. eigenvalues --   -0.37530  -0.36540
 Alpha virt. eigenvalues --    0.04763   0.11116   0.16259   0.21183   0.23926
 Alpha virt. eigenvalues --    0.25211   0.27081   0.27491   0.28313   0.28699
 Alpha virt. eigenvalues --    0.29221   0.30960   0.32253   0.32501   0.32759

 Mulliken charges:
               1
     1  C   -0.293075
     2  C   -0.307209
     3  C   -0.474978
     4  H    0.142961
     5  H    0.142964
     6  H    0.171603
     7  H    0.149210
     8  H    0.151488
     9  H    0.149199
    10  H    0.157863
    11  C   -0.310008
    12  C   -0.297537
    13  C   -0.475414
    14  H    0.178912
    15  H    0.145559
    16  H    0.146626
    17  H    0.147218
    18  H    0.154218
    19  H    0.158081
    20  H    0.155126
    21  C   -0.170293
    22  C   -0.218596
    23  C   -0.170195
    24  C    0.157584
    25  C   -0.170568
    26  C   -0.218496
    27  H    0.226465
    28  H    0.224234
    29  H    0.276142
    30  H    0.275511
    31  H    0.224284
    32  N    0.493592
    33  O   -0.465340
    34  O   -0.457131
 Sum of Mulliken charges =  -0.00000

 Dipole moment (field-independent basis, Debye):
    X=              4.4973    Y=             -0.5017    Z=             -2.9861  Tot=              5.4217
 Quadrupole moment (field-independent basis, Debye-Ang):
   XX=            -73.8266   YY=            -95.7047   ZZ=            -95.4262
   XY=             -1.0661   XZ=             -4.8626   YZ=              3.2147

 Normal termination of Gaussian 16 at Thu May  6 13:57:05 2021.
