 Gaussian 16, Revision A.03,
 Gaussian 16:  EM64L-G16RevA.03 25-Dec-2016

 -------------
 #p 6-31g* mp2
 -------------

 ------------------------------------------------------
 Input file generated by CHIRIPA (05-May-2021 14:57:22)
 ------------------------------------------------------
 Symbolic Z-matrix:
 Charge =  0 Multiplicity = 1

                         Standard orientation:
 ---------------------------------------------------------------------
 Center     Atomic      Atomic             Coordinates (Angstroms)
 Number     Number       Type             X           Y           Z
 ---------------------------------------------------------------------
      1          6           0        2.088954    2.407105    0.958519
      2          6           0        2.428187    1.339555    1.796242
      3          6           0        2.948000    0.156217    1.263274
      4          6           0        3.116240    0.074340   -0.118131
      5          6           0        2.787730    1.120486   -0.978916
      6          6           0        2.269490    2.294362   -0.423948
      7          1           0        1.685762    3.322676    1.381086
      8          1           0        2.289056    1.424297    2.870256
      9          1           0        3.218984   -0.685669    1.888745
     10          1           0        2.937759    1.006334   -2.045630
     11          1           0        2.006913    3.121819   -1.076952
     12          7           0        3.665711   -1.173399   -0.694005
     13          8           0        3.804360   -1.220478   -1.914331
     14          8           0        3.947332   -2.080671    0.085856
     15          6           0       -0.746811   -1.163596    0.649239
     16          6           0       -1.892594   -1.908264    0.947854
     17          6           0       -3.160372   -1.428475    0.605666
     18          6           0       -3.245994   -0.194558   -0.037301
     19          6           0       -2.123121    0.570775   -0.348287
     20          6           0       -0.865522    0.071370    0.003261
     21          1           0        0.234076   -1.543926    0.918695
     22          1           0       -1.803421   -2.867677    1.449470
     23          1           0       -4.063899   -1.984324    0.824959
     24          1           0       -2.243834    1.523765   -0.848945
     25          1           0        0.022579    0.651854   -0.229893
     26          7           0       -4.582745    0.323757   -0.404514
     27          8           0       -4.631314    1.413711   -0.970445
     28          8           0       -5.556612   -0.369758   -0.119454
 ---------------------------------------------------------------------

 SCF Done:  E(RHF) =  -868.337224069     A.U. after   16 cycles
 E2 =    -0.2603636299D+01 EUMP2 =    -0.87094086036823D+03

 The electronic state is 1-A.
 Alpha  occ. eigenvalues --  -20.61930 -20.61905 -20.60800 -20.60790 -15.86978
 Alpha  occ. eigenvalues --  -15.85845 -11.32566 -11.31149 -11.29120 -11.29071
 Alpha  occ. eigenvalues --  -11.28767 -11.28089 -11.28070 -11.27689 -11.27677
 Alpha  occ. eigenvalues --  -11.27337 -11.26677 -11.26509  -1.60995  -1.59874
 Alpha  occ. eigenvalues --   -1.40540  -1.39430  -1.20763  -1.19287  -1.10064
 Alpha  occ. eigenvalues --   -1.08686  -1.06139  -1.04678  -0.96858  -0.95544
 Alpha  occ. eigenvalues --   -0.87484  -0.86078  -0.83660  -0.82381  -0.78704
 Alpha  occ. eigenvalues --   -0.77457  -0.73171  -0.72352  -0.72064  -0.71727
 Alpha  occ. eigenvalues --   -0.71196  -0.70394  -0.66328  -0.66043  -0.64931
 Alpha  occ. eigenvalues --   -0.64754  -0.63423  -0.62107  -0.56523  -0.55186
 Alpha  occ. eigenvalues --   -0.54620  -0.54141  -0.53022  -0.52451  -0.49954
 Alpha  occ. eigenvalues --   -0.49926  -0.48829  -0.48806  -0.45892  -0.44850
 Alpha  occ. eigenvalues --   -0.38763  -0.37865  -0.37156  -0.36240
 Alpha virt. eigenvalues --    0.03764   0.05092   0.09772   0.11358   0.15235
 Alpha virt. eigenvalues --    0.16642   0.20259   0.21762   0.26056   0.27060
 Alpha virt. eigenvalues --    0.27749   0.28113   0.30104   0.31060   0.31867

 Mulliken charges:
               1
     1  C   -0.171830
     2  C   -0.215084
     3  C   -0.180551
     4  C    0.158882
     5  C   -0.176299
     6  C   -0.230299
     7  H    0.233112
     8  H    0.229962
     9  H    0.278169
    10  H    0.281392
    11  H    0.230501
    12  N    0.487891
    13  O   -0.454493
    14  O   -0.459805
    15  C   -0.177052
    16  C   -0.218307
    17  C   -0.172172
    18  C    0.159246
    19  C   -0.177522
    20  C   -0.224492
    21  H    0.226401
    22  H    0.224388
    23  H    0.275175
    24  H    0.271188
    25  H    0.236099
    26  N    0.488102
    27  O   -0.462439
    28  O   -0.460162
 Sum of Mulliken charges =  -0.00000

 Dipole moment (field-independent basis, Debye):
    X=              3.1807    Y=              2.6798    Z=              3.3535  Tot=              5.3427
 Quadrupole moment (field-independent basis, Debye-Ang):
   XX=           -147.5116   YY=            -99.5453   ZZ=           -100.8271
   XY=             20.9538   XZ=              1.4860   YZ=             -4.2711

 Normal termination of Gaussian 16 at Wed May  5 19:22:49 2021.
