 Gaussian 16, Revision A.03,
 Gaussian 16:  EM64L-G16RevA.03 25-Dec-2016

 -------------
 #p 6-31g* mp2
 -------------

 ------------------------------------------------------
 Input file generated by CHIRIPA (05-May-2021 14:53:18)
 ------------------------------------------------------
 Symbolic Z-matrix:
 Charge =  0 Multiplicity = 1

                         Standard orientation:
 ---------------------------------------------------------------------
 Center     Atomic      Atomic             Coordinates (Angstroms)
 Number     Number       Type             X           Y           Z
 ---------------------------------------------------------------------
      1          6           0       -2.767557    0.743463   -0.014547
      2          6           0       -2.817320    1.942467    0.933027
      3          6           0       -1.547802    2.792792    0.877656
      4          1           0       -1.897020    0.121960    0.236141
      5          1           0       -2.610091    1.102497   -1.041043
      6          1           0       -2.976028    1.581362    1.957249
      7          1           0       -3.687949    2.561086    0.680178
      8          1           0       -1.387834    3.180819   -0.133505
      9          1           0       -0.671869    2.195529    1.150822
     10          1           0       -1.604812    3.644402    1.562761
     11          6           0       -4.029574   -0.116250    0.029441
     12          6           0       -3.979811   -1.315254   -0.918134
     13          6           0       -5.249329   -2.165579   -0.862762
     14          1           0       -4.187040   -0.475284    1.055936
     15          1           0       -4.900111    0.505253   -0.221247
     16          1           0       -3.109182   -1.933873   -0.665284
     17          1           0       -3.821103   -0.954150   -1.942356
     18          1           0       -6.125262   -1.568316   -1.135929
     19          1           0       -5.409296   -2.553606    0.148399
     20          1           0       -5.192319   -3.017189   -1.547868
     21          6           0        2.572686   -2.566967    0.977858
     22          6           0        3.540884   -2.246222    0.020656
     23          6           0        3.595933   -0.962863   -0.531165
     24          6           0        2.663099   -0.020526   -0.100916
     25          6           0        1.686547   -0.309537    0.850981
     26          6           0        1.650234   -1.599306    1.389241
     27          1           0        2.537201   -3.566401    1.401259
     28          1           0        4.258547   -2.995707   -0.300713
     29          1           0        4.334967   -0.687592   -1.273776
     30          1           0        0.984565    0.458800    1.151478
     31          1           0        0.897217   -1.845575    2.132451
     32          7           0        2.711459    1.341502   -0.677926
     33          8           0        1.878302    2.153792   -0.282109
     34          8           0        3.581605    1.570980   -1.515078
 ---------------------------------------------------------------------

 SCF Done:  E(RHF) =  -669.535150556     A.U. after   15 cycles
 E2 =    -0.2092154332D+01 EUMP2 =    -0.67162730488804D+03

 The electronic state is 1-A.
 Alpha  occ. eigenvalues --  -20.60790 -20.60783 -15.85834 -11.31221 -11.27795
 Alpha  occ. eigenvalues --  -11.27789 -11.27538 -11.26820 -11.26807 -11.21692
 Alpha  occ. eigenvalues --  -11.21435 -11.21401 -11.21331 -11.21182 -11.20513
 Alpha  occ. eigenvalues --   -1.59863  -1.39416  -1.19398  -1.08788  -1.08404
 Alpha  occ. eigenvalues --   -1.04806  -1.03431  -0.95860  -0.95615  -0.86858
 Alpha  occ. eigenvalues --   -0.86203  -0.82453  -0.79494  -0.78224  -0.77482
 Alpha  occ. eigenvalues --   -0.72058  -0.71182  -0.70514  -0.65078  -0.65052
 Alpha  occ. eigenvalues --   -0.64798  -0.62189  -0.60820  -0.59249  -0.57457
 Alpha  occ. eigenvalues --   -0.55328  -0.55134  -0.53129  -0.52916  -0.52527
 Alpha  occ. eigenvalues --   -0.52239  -0.49813  -0.48818  -0.48815  -0.47750
 Alpha  occ. eigenvalues --   -0.46537  -0.45738  -0.45676  -0.44803  -0.43699
 Alpha  occ. eigenvalues --   -0.37375  -0.36403
 Alpha virt. eigenvalues --    0.05016   0.11223   0.16496   0.20217   0.22936
 Alpha virt. eigenvalues --    0.23871   0.25847   0.27135   0.27474   0.27911
 Alpha virt. eigenvalues --    0.29389   0.30422   0.31504   0.31847   0.32149

 Mulliken charges:
               1
     1  C   -0.296598
     2  C   -0.302286
     3  C   -0.477352
     4  H    0.140462
     5  H    0.154489
     6  H    0.146349
     7  H    0.152388
     8  H    0.165903
     9  H    0.157996
    10  H    0.159231
    11  C   -0.297985
    12  C   -0.299104
    13  C   -0.475568
    14  H    0.146709
    15  H    0.151254
    16  H    0.148703
    17  H    0.153955
    18  H    0.156313
    19  H    0.153727
    20  H    0.159882
    21  C   -0.170216
    22  C   -0.218976
    23  C   -0.169563
    24  C    0.154095
    25  C   -0.173313
    26  C   -0.223534
    27  H    0.225795
    28  H    0.223634
    29  H    0.275859
    30  H    0.288634
    31  H    0.224047
    32  N    0.488458
    33  O   -0.463098
    34  O   -0.460292
 Sum of Mulliken charges =  -0.00000

 Dipole moment (field-independent basis, Debye):
    X=             -0.0997    Y=             -4.6772    Z=              1.9259  Tot=              5.0592
 Quadrupole moment (field-independent basis, Debye-Ang):
   XX=            -93.6429   YY=            -94.5953   ZZ=            -93.7030
   XY=            -15.2139   XZ=              3.4291   YZ=              0.6107

 Normal termination of Gaussian 16 at Thu May  6 01:14:53 2021.
