 Gaussian 16, Revision A.03,
 Gaussian 16:  EM64L-G16RevA.03 25-Dec-2016

 -------------
 #p 6-31g* mp2
 -------------

 ------------------------------------------------------
 Input file generated by CHIRIPA (05-May-2021 14:55:21)
 ------------------------------------------------------
 Symbolic Z-matrix:
 Charge =  0 Multiplicity = 1

                         Standard orientation:
 ---------------------------------------------------------------------
 Center     Atomic      Atomic             Coordinates (Angstroms)
 Number     Number       Type             X           Y           Z
 ---------------------------------------------------------------------
      1          6           0        2.181763    2.318368   -0.153798
      2          6           0        3.500910    2.330101    0.311213
      3          6           0        4.267217    1.160807    0.302566
      4          6           0        3.680042   -0.007734   -0.180163
      5          6           0        2.368366   -0.051474   -0.650143
      6          6           0        1.620690    1.129714   -0.632148
      7          1           0        1.593714    3.231324   -0.143449
      8          1           0        3.939252    3.251769    0.683273
      9          1           0        5.290770    1.141609    0.656668
     10          1           0        1.958853   -0.985583   -1.015051
     11          1           0        0.596466    1.117638   -0.993899
     12          7           0        4.481435   -1.251909   -0.194266
     13          8           0        3.940961   -2.268441   -0.624600
     14          8           0        5.634866   -1.187003    0.225282
     15          6           0       -3.862942    0.016027    0.453447
     16          6           0       -2.841726   -1.084066    0.744819
     17          6           0       -1.489396   -0.530990    1.195492
     18          1           0       -3.461868    0.684042   -0.321047
     19          1           0       -3.998560    0.628980    1.355273
     20          1           0       -2.709106   -1.695606   -0.156872
     21          1           0       -3.245358   -1.749650    1.518573
     22          1           0       -1.600917    0.062627    2.108610
     23          1           0       -1.061619    0.116977    0.423646
     24          1           0       -0.774492   -1.334485    1.398391
     25          6           0       -5.219844   -0.521168    0.001822
     26          6           0       -6.241061    0.578924   -0.289550
     27          6           0       -7.593389    0.025848   -0.740224
     28          1           0       -5.084226   -1.134122   -0.900006
     29          1           0       -5.620919   -1.189183    0.776316
     30          1           0       -5.837427    1.244508   -1.063304
     31          1           0       -6.373679    1.190466    0.612140
     32          1           0       -8.021167   -0.622118    0.031622
     33          1           0       -7.481868   -0.567768   -1.653342
     34          1           0       -8.308294    0.829342   -0.943123
 ---------------------------------------------------------------------

 SCF Done:  E(RHF) =  -669.535148097     A.U. after   15 cycles
 E2 =    -0.2091248468D+01 EUMP2 =    -0.67162639656471D+03

 The electronic state is 1-A.
 Alpha  occ. eigenvalues --  -20.60745 -20.60739 -15.85798 -11.31159 -11.27731
 Alpha  occ. eigenvalues --  -11.27726 -11.27473 -11.26748 -11.26733 -11.22105
 Alpha  occ. eigenvalues --  -11.21978 -11.21912 -11.21777 -11.21691 -11.21375
 Alpha  occ. eigenvalues --   -1.59820  -1.39374  -1.19335  -1.08894  -1.08731
 Alpha  occ. eigenvalues --   -1.04741  -1.03987  -0.96445  -0.95565  -0.87465
 Alpha  occ. eigenvalues --   -0.86139  -0.82402  -0.80050  -0.78702  -0.77447
 Alpha  occ. eigenvalues --   -0.72017  -0.71143  -0.70442  -0.65542  -0.64988
 Alpha  occ. eigenvalues --   -0.64766  -0.62142  -0.61356  -0.59802  -0.58046
 Alpha  occ. eigenvalues --   -0.55775  -0.55230  -0.53213  -0.53043  -0.52957
 Alpha  occ. eigenvalues --   -0.52680  -0.50374  -0.48778  -0.48771  -0.48356
 Alpha  occ. eigenvalues --   -0.47082  -0.46246  -0.46164  -0.44780  -0.44235
 Alpha  occ. eigenvalues --   -0.37310  -0.36312
 Alpha virt. eigenvalues --    0.05084   0.11255   0.16508   0.20326   0.22603
 Alpha virt. eigenvalues --    0.23864   0.25649   0.26616   0.27156   0.28206
 Alpha virt. eigenvalues --    0.28922   0.29814   0.31268   0.31604   0.32113

 Mulliken charges:
               1
     1  C   -0.171661
     2  C   -0.218590
     3  C   -0.170853
     4  C    0.158220
     5  C   -0.170717
     6  C   -0.215844
     7  H    0.225613
     8  H    0.223321
     9  H    0.275512
    10  H    0.275700
    11  H    0.223845
    12  N    0.488127
    13  O   -0.460558
    14  O   -0.460528
    15  C   -0.297549
    16  C   -0.300512
    17  C   -0.476987
    18  H    0.144494
    19  H    0.150239
    20  H    0.152243
    21  H    0.155552
    22  H    0.157570
    23  H    0.144472
    24  H    0.165587
    25  C   -0.298578
    26  C   -0.299769
    27  C   -0.475951
    28  H    0.150297
    29  H    0.151517
    30  H    0.150779
    31  H    0.152135
    32  H    0.156191
    33  H    0.155795
    34  H    0.160889
 Sum of Mulliken charges =  -0.00000

 Dipole moment (field-independent basis, Debye):
    X=             -2.9128    Y=              4.3458    Z=              0.1120  Tot=              5.2328
 Quadrupole moment (field-independent basis, Debye-Ang):
   XX=           -113.3761   YY=            -94.0863   ZZ=            -93.8528
   XY=             18.4398   XZ=              1.7027   YZ=              0.1773

 Normal termination of Gaussian 16 at Thu May  6 01:25:03 2021.
