 Gaussian 16, Revision A.03,
 Gaussian 16:  EM64L-G16RevA.03 25-Dec-2016

 -------------
 #p 6-31g* mp2
 -------------

 ------------------------------------------------------
 Input file generated by CHIRIPA (05-May-2021 14:51:13)
 ------------------------------------------------------
 Symbolic Z-matrix:
 Charge =  0 Multiplicity = 1

                         Standard orientation:
 ---------------------------------------------------------------------
 Center     Atomic      Atomic             Coordinates (Angstroms)
 Number     Number       Type             X           Y           Z
 ---------------------------------------------------------------------
      1          6           0        2.599196   -0.291306    0.577017
      2          6           0        1.630149   -1.462640    0.412982
      3          6           0        0.326028   -1.263667    1.185945
      4          1           0        2.821109   -0.153972    1.644181
      5          1           0        2.108415    0.631702    0.238512
      6          1           0        2.123096   -2.383382    0.750402
      7          1           0        1.410667   -1.597322   -0.653932
      8          1           0       -0.190479   -0.360894    0.844152
      9          1           0        0.525999   -1.151420    2.256465
     10          1           0       -0.352010   -2.112721    1.054671
     11          6           0        3.907543   -0.475495   -0.189815
     12          6           0        4.876591    0.695839   -0.025780
     13          6           0        6.180712    0.496867   -0.798744
     14          1           0        4.398325   -1.398502    0.148689
     15          1           0        3.685630   -0.612828   -1.256980
     16          1           0        5.096073    0.830522    1.041133
     17          1           0        4.383643    1.616581   -0.363201
     18          1           0        5.980740    0.384619   -1.869264
     19          1           0        6.697218   -0.405906   -0.456951
     20          1           0        6.858749    1.345921   -0.667470
     21          6           0       -3.344957    1.048531    0.170603
     22          6           0       -2.527418    2.189514   -0.435838
     23          6           0       -2.721209    3.513648    0.303693
     24          1           0       -4.408694    1.322985    0.161468
     25          1           0       -3.063041    0.925119    1.225443
     26          1           0       -2.809798    2.309827   -1.489594
     27          1           0       -1.465521    1.912232   -0.425433
     28          1           0       -2.421090    3.416868    1.352103
     29          1           0       -3.773005    3.816722    0.281895
     30          1           0       -2.127695    4.315497   -0.146461
     31          6           0       -3.161782   -0.281731   -0.557805
     32          6           0       -3.979323   -1.422713    0.048637
     33          6           0       -3.785530   -2.746848   -0.690894
     34          1           0       -3.443698   -0.158319   -1.612645
     35          1           0       -2.098044   -0.556185   -0.548669
     36          1           0       -5.041218   -1.145431    0.038232
     37          1           0       -3.696941   -1.543026    1.102393
     38          1           0       -2.733734   -3.049921   -0.669097
     39          1           0       -4.085649   -2.650067   -1.739304
     40          1           0       -4.379044   -3.548697   -0.240740
 ---------------------------------------------------------------------

 SCF Done:  E(RHF) =  -470.732945736     A.U. after   11 cycles
 E2 =    -0.1583494026D+01 EUMP2 =    -0.47231643976204D+03

 The electronic state is 1-A.
 Alpha  occ. eigenvalues --  -11.21685 -11.21632 -11.21621 -11.21541 -11.21461
 Alpha  occ. eigenvalues --  -11.21397 -11.21347 -11.21244 -11.21172 -11.21093
 Alpha  occ. eigenvalues --  -11.21074 -11.21046  -1.08492  -1.08386  -1.03596
 Alpha  occ. eigenvalues --   -1.03503  -0.96059  -0.95940  -0.87076  -0.86960
 Alpha  occ. eigenvalues --   -0.79667  -0.79564  -0.78306  -0.78192  -0.65237
 Alpha  occ. eigenvalues --   -0.64946  -0.61000  -0.60913  -0.59418  -0.59299
 Alpha  occ. eigenvalues --   -0.57661  -0.57557  -0.55503  -0.55090  -0.52743
 Alpha  occ. eigenvalues --   -0.52654  -0.52475  -0.52362  -0.50067  -0.49832
 Alpha  occ. eigenvalues --   -0.47987  -0.47874  -0.46760  -0.46598  -0.45892
 Alpha  occ. eigenvalues --   -0.45798  -0.45702  -0.45460  -0.43836  -0.43747
 Alpha virt. eigenvalues --    0.20060   0.22887   0.23139   0.24503   0.26114
 Alpha virt. eigenvalues --    0.26721   0.27006   0.27600   0.27707   0.29531
 Alpha virt. eigenvalues --    0.30373   0.31627   0.31694   0.31758   0.31976

 Mulliken charges:
               1
     1  C   -0.298545
     2  C   -0.300562
     3  C   -0.483051
     4  H    0.149894
     5  H    0.149448
     6  H    0.152619
     7  H    0.152497
     8  H    0.160283
     9  H    0.155893
    10  H    0.161770
    11  C   -0.298377
    12  C   -0.299732
    13  C   -0.475755
    14  H    0.149695
    15  H    0.149895
    16  H    0.151991
    17  H    0.152063
    18  H    0.155284
    19  H    0.155227
    20  H    0.160382
    21  C   -0.298887
    22  C   -0.301353
    23  C   -0.475613
    24  H    0.149737
    25  H    0.150335
    26  H    0.152165
    27  H    0.151412
    28  H    0.155476
    29  H    0.155384
    30  H    0.160058
    31  C   -0.304163
    32  C   -0.299513
    33  C   -0.476957
    34  H    0.148561
    35  H    0.157486
    36  H    0.151644
    37  H    0.152550
    38  H    0.155514
    39  H    0.155131
    40  H    0.160112
 Sum of Mulliken charges =  -0.00000

 Dipole moment (field-independent basis, Debye):
    X=              0.0373    Y=             -0.0056    Z=              0.0146  Tot=              0.0405
 Quadrupole moment (field-independent basis, Debye-Ang):
   XX=            -85.0211   YY=            -85.6209   ZZ=            -84.1665
   XY=             -0.3777   XZ=              1.3036   YZ=             -0.9718

 Normal termination of Gaussian 16 at Thu May  6 02:23:06 2021.
