 Gaussian 16, Revision A.03,
 Gaussian 16:  EM64L-G16RevA.03 25-Dec-2016

 -------------
 #p 6-31g* mp2
 -------------

 ------------------------------------------------------
 Input file generated by CHIRIPA (05-May-2021 14:55:24)
 ------------------------------------------------------
 Symbolic Z-matrix:
 Charge =  0 Multiplicity = 1

                         Standard orientation:
 ---------------------------------------------------------------------
 Center     Atomic      Atomic             Coordinates (Angstroms)
 Number     Number       Type             X           Y           Z
 ---------------------------------------------------------------------
      1          6           0        1.665267   -1.565137    2.095701
      2          6           0        2.382324   -2.212187    1.083931
      3          6           0        2.795531   -1.511344   -0.053007
      4          6           0        2.473055   -0.158319   -0.145868
      5          6           0        1.759968    0.514430    0.845194
      6          6           0        1.356922   -0.206290    1.973319
      7          1           0        1.348225   -2.117289    2.975478
      8          1           0        2.623201   -3.267409    1.176286
      9          1           0        3.351830   -1.987493   -0.851275
     10          1           0        1.534725    1.567135    0.724800
     11          1           0        0.800169    0.298814    2.757501
     12          7           0        2.905121    0.594153   -1.344828
     13          8           0        2.608460    1.785487   -1.402721
     14          8           0        3.532254   -0.021642   -2.203978
     15          6           0       -3.191294   -0.393152   -0.045565
     16          6           0       -4.229597   -0.873840   -1.059886
     17          6           0       -4.452532   -2.385540   -1.006420
     18          1           0       -2.240645   -0.912151   -0.229554
     19          1           0       -3.514525   -0.681561    0.964255
     20          1           0       -3.905186   -0.583397   -2.067366
     21          1           0       -5.177831   -0.353494   -0.873582
     22          1           0       -4.799776   -2.688852   -0.013433
     23          1           0       -3.519901   -2.920060   -1.213999
     24          1           0       -5.198527   -2.707516   -1.739688
     25          6           0       -2.957431    1.115932   -0.086876
     26          6           0       -1.919127    1.596620    0.927445
     27          6           0       -1.696193    3.108320    0.873979
     28          1           0       -2.634199    1.404342   -1.096696
     29          1           0       -3.908079    1.634931    0.097113
     30          1           0       -0.970893    1.076274    0.741140
     31          1           0       -2.243537    1.306176    1.934924
     32          1           0       -2.628824    3.642840    1.081558
     33          1           0       -1.348948    3.411631   -0.119010
     34          1           0       -0.950198    3.430295    1.607247
 ---------------------------------------------------------------------

 SCF Done:  E(RHF) =  -669.534689450     A.U. after   15 cycles
 E2 =    -0.2093095649D+01 EUMP2 =    -0.67162778509880D+03

 The electronic state is 1-A.
 Alpha  occ. eigenvalues --  -20.60815 -20.60810 -15.85869 -11.31238 -11.27799
 Alpha  occ. eigenvalues --  -11.27782 -11.27531 -11.26820 -11.26794 -11.21909
 Alpha  occ. eigenvalues --  -11.21748 -11.21610 -11.21550 -11.21386 -11.21242
 Alpha  occ. eigenvalues --   -1.59891  -1.39444  -1.19418  -1.08804  -1.08659
 Alpha  occ. eigenvalues --   -1.04831  -1.03778  -0.96221  -0.95639  -0.87230
 Alpha  occ. eigenvalues --   -0.86207  -0.82482  -0.79863  -0.78491  -0.77502
 Alpha  occ. eigenvalues --   -0.72086  -0.71217  -0.70518  -0.65322  -0.65048
 Alpha  occ. eigenvalues --   -0.64799  -0.62219  -0.61136  -0.59598  -0.57842
 Alpha  occ. eigenvalues --   -0.55497  -0.55292  -0.53209  -0.52913  -0.52895
 Alpha  occ. eigenvalues --   -0.52631  -0.50138  -0.48845  -0.48841  -0.48168
 Alpha  occ. eigenvalues --   -0.46880  -0.46017  -0.45927  -0.44846  -0.44025
 Alpha  occ. eigenvalues --   -0.37395  -0.36315
 Alpha virt. eigenvalues --    0.04978   0.11193   0.16400   0.20443   0.22817
 Alpha virt. eigenvalues --    0.23833   0.26313   0.26448   0.27309   0.28073
 Alpha virt. eigenvalues --    0.29484   0.30386   0.31300   0.31726   0.32195

 Mulliken charges:
               1
     1  C   -0.171524
     2  C   -0.218493
     3  C   -0.171594
     4  C    0.157394
     5  C   -0.174637
     6  C   -0.215713
     7  H    0.226064
     8  H    0.223716
     9  H    0.275694
    10  H    0.279189
    11  H    0.226470
    12  N    0.488056
    13  O   -0.460404
    14  O   -0.460266
    15  C   -0.298910
    16  C   -0.300066
    17  C   -0.475761
    18  H    0.150938
    19  H    0.146472
    20  H    0.154566
    21  H    0.152227
    22  H    0.153660
    23  H    0.154914
    24  H    0.161384
    25  C   -0.297814
    26  C   -0.310095
    27  C   -0.478127
    28  H    0.154458
    29  H    0.150083
    30  H    0.156745
    31  H    0.146083
    32  H    0.157716
    33  H    0.164255
    34  H    0.153318
 Sum of Mulliken charges =  -0.00000

 Dipole moment (field-independent basis, Debye):
    X=             -1.5205    Y=             -2.6577    Z=              4.1394  Tot=              5.1488
 Quadrupole moment (field-independent basis, Debye-Ang):
   XX=           -101.5973   YY=            -91.7435   ZZ=            -95.4699
   XY=             -8.9242   XZ=              9.6172   YZ=              1.1892

 Normal termination of Gaussian 16 at Thu May  6 03:09:56 2021.
