 Gaussian 16, Revision A.03,
 Gaussian 16:  EM64L-G16RevA.03 25-Dec-2016

 -------------
 #p 6-31g* mp2
 -------------

 ------------------------------------------------------
 Input file generated by CHIRIPA (05-May-2021 14:51:10)
 ------------------------------------------------------
 Symbolic Z-matrix:
 Charge =  0 Multiplicity = 1

                         Standard orientation:
 ---------------------------------------------------------------------
 Center     Atomic      Atomic             Coordinates (Angstroms)
 Number     Number       Type             X           Y           Z
 ---------------------------------------------------------------------
      1          6           0       -2.658610   -0.412784    0.272415
      2          6           0       -1.637903   -1.169633   -0.578068
      3          6           0       -0.235197   -1.155743    0.030222
      4          1           0       -2.322726    0.625486    0.399385
      5          1           0       -2.689264   -0.856476    1.277199
      6          1           0       -1.610186   -0.725523   -1.581370
      7          1           0       -1.976352   -2.206172   -0.703189
      8          1           0       -0.241176   -1.617488    1.022873
      9          1           0        0.127071   -0.128427    0.139702
     10          1           0        0.478504   -1.702448   -0.593961
     11          6           0       -4.065609   -0.417747   -0.322614
     12          6           0       -5.086316    0.339101    0.527869
     13          6           0       -6.489022    0.325211   -0.080421
     14          1           0       -4.034955    0.025945   -1.327399
     15          1           0       -4.401493   -1.456017   -0.449584
     16          1           0       -4.747867    1.375640    0.652989
     17          1           0       -5.114033   -0.105008    1.531171
     18          1           0       -6.851290   -0.702104   -0.189901
     19          1           0       -6.483043    0.786957   -1.073073
     20          1           0       -7.202723    0.871917    0.543761
     21          6           0        3.472072   -0.238838    0.403899
     22          6           0        4.113206   -1.333483   -0.449732
     23          6           0        4.326798   -2.635987    0.322056
     24          1           0        4.106228   -0.047588    1.280377
     25          1           0        2.508357   -0.600593    0.788323
     26          1           0        5.074784   -0.969262   -0.833565
     27          1           0        3.477547   -1.522014   -1.324380
     28          1           0        3.372799   -3.025544    0.691830
     29          1           0        4.979111   -2.469651    1.185433
     30          1           0        4.786176   -3.404738   -0.307114
     31          6           0        3.252147    1.069369   -0.353699
     32          6           0        2.611013    2.164014    0.499931
     33          6           0        2.397421    3.466518   -0.271856
     34          1           0        4.215861    1.431124   -0.738124
     35          1           0        2.617990    0.878120   -1.230178
     36          1           0        3.246672    2.352545    1.374579
     37          1           0        1.649435    1.799793    0.883764
     38          1           0        1.745108    3.300183   -1.135234
     39          1           0        3.351420    3.856075   -0.641630
     40          1           0        1.938043    4.235269    0.357314
 ---------------------------------------------------------------------

 SCF Done:  E(RHF) =  -470.732689967     A.U. after   11 cycles
 E2 =    -0.1583859857D+01 EUMP2 =    -0.47231654982409D+03

 The electronic state is 1-A.
 Alpha  occ. eigenvalues --  -11.21682 -11.21636 -11.21583 -11.21523 -11.21464
 Alpha  occ. eigenvalues --  -11.21401 -11.21311 -11.21193 -11.21182 -11.21097
 Alpha  occ. eigenvalues --  -11.21071 -11.21009  -1.08498  -1.08350  -1.03601
 Alpha  occ. eigenvalues --   -1.03481  -0.96078  -0.95904  -0.87094  -0.86934
 Alpha  occ. eigenvalues --   -0.79691  -0.79541  -0.78323  -0.78132  -0.65196
 Alpha  occ. eigenvalues --   -0.64952  -0.61049  -0.60859  -0.59408  -0.59285
 Alpha  occ. eigenvalues --   -0.57670  -0.57527  -0.55427  -0.55138  -0.52764
 Alpha  occ. eigenvalues --   -0.52648  -0.52479  -0.52326  -0.50014  -0.49846
 Alpha  occ. eigenvalues --   -0.48023  -0.47856  -0.46735  -0.46561  -0.45968
 Alpha  occ. eigenvalues --   -0.45770  -0.45684  -0.45410  -0.43817  -0.43713
 Alpha virt. eigenvalues --    0.20524   0.22916   0.23358   0.24806   0.25833
 Alpha virt. eigenvalues --    0.26656   0.26881   0.27794   0.27916   0.29635
 Alpha virt. eigenvalues --    0.29768   0.30857   0.31732   0.32016   0.32265

 Mulliken charges:
               1
     1  C   -0.298556
     2  C   -0.300624
     3  C   -0.483499
     4  H    0.149585
     5  H    0.149728
     6  H    0.152052
     7  H    0.152316
     8  H    0.155578
     9  H    0.160922
    10  H    0.162183
    11  C   -0.298341
    12  C   -0.299704
    13  C   -0.475750
    14  H    0.149634
    15  H    0.149812
    16  H    0.152074
    17  H    0.152009
    18  H    0.155229
    19  H    0.155252
    20  H    0.160404
    21  C   -0.305857
    22  C   -0.299936
    23  C   -0.476156
    24  H    0.148573
    25  H    0.162092
    26  H    0.151501
    27  H    0.151315
    28  H    0.155531
    29  H    0.155082
    30  H    0.159754
    31  C   -0.298668
    32  C   -0.303485
    33  C   -0.475522
    34  H    0.149451
    35  H    0.149741
    36  H    0.152375
    37  H    0.153823
    38  H    0.154606
    39  H    0.155453
    40  H    0.160021
 Sum of Mulliken charges =  -0.00000

 Dipole moment (field-independent basis, Debye):
    X=             -0.0516    Y=             -0.0125    Z=              0.0164  Tot=              0.0556
 Quadrupole moment (field-independent basis, Debye-Ang):
   XX=            -85.2237   YY=            -85.0226   ZZ=            -84.7373
   XY=              0.8147   XZ=             -0.2369   YZ=              0.0811

 Normal termination of Gaussian 16 at Wed May  5 23:01:28 2021.
