 Gaussian 16, Revision A.03,
 Gaussian 16:  EM64L-G16RevA.03 25-Dec-2016

 -------------
 #p 6-31g* mp2
 -------------

 ------------------------------------------------------
 Input file generated by CHIRIPA (05-May-2021 14:57:23)
 ------------------------------------------------------
 Symbolic Z-matrix:
 Charge =  0 Multiplicity = 1

                         Standard orientation:
 ---------------------------------------------------------------------
 Center     Atomic      Atomic             Coordinates (Angstroms)
 Number     Number       Type             X           Y           Z
 ---------------------------------------------------------------------
      1          6           0        1.485655    0.592346   -1.359366
      2          6           0        1.831451   -0.762464   -1.321475
      3          6           0        3.002165   -1.178775   -0.680646
      4          6           0        3.807536   -0.209045   -0.085423
      5          6           0        3.490147    1.148203   -0.106223
      6          6           0        2.314646    1.541682   -0.752688
      7          1           0        0.574357    0.906879   -1.859366
      8          1           0        1.189548   -1.501939   -1.791776
      9          1           0        3.293812   -2.221079   -0.636355
     10          1           0        4.150077    1.862072    0.371586
     11          1           0        2.048606    2.594531   -0.780547
     12          7           0        5.049453   -0.637690    0.595977
     13          8           0        5.742059    0.236295    1.112779
     14          8           0        5.306745   -1.839529    0.600355
     15          6           0       -5.137399   -1.854741    0.001555
     16          6           0       -4.763299   -1.380833    1.263292
     17          6           0       -3.913542   -0.277247    1.383951
     18          6           0       -3.454499    0.331089    0.216691
     19          6           0       -3.809232   -0.117547   -1.054600
     20          6           0       -4.660013   -1.222700   -1.151331
     21          1           0       -5.797907   -2.712642   -0.082883
     22          1           0       -5.132509   -1.869708    2.160360
     23          1           0       -3.608052    0.110399    2.348226
     24          1           0       -3.425019    0.390626   -1.930703
     25          1           0       -4.948879   -1.588567   -2.132526
     26          7           0       -2.554357    1.500236    0.331762
     27          8           0       -2.163589    2.018587   -0.711908
     28          8           0       -2.256640    1.876123    1.463447
 ---------------------------------------------------------------------

 SCF Done:  E(RHF) =  -868.339607825     A.U. after   16 cycles
 E2 =    -0.2598580776D+01 EUMP2 =    -0.87093818860094D+03

 The electronic state is 1-A.
 Alpha  occ. eigenvalues --  -20.61762 -20.61683 -20.60248 -20.60236 -15.86752
 Alpha  occ. eigenvalues --  -15.85294 -11.31935 -11.30511 -11.28514 -11.28440
 Alpha  occ. eigenvalues --  -11.28163 -11.27462 -11.27411 -11.27121 -11.27026
 Alpha  occ. eigenvalues --  -11.26646 -11.26089 -11.25912  -1.60783  -1.59324
 Alpha  occ. eigenvalues --   -1.40345  -1.38882  -1.20085  -1.18659  -1.09509
 Alpha  occ. eigenvalues --   -1.08055  -1.05459  -1.04048  -0.96377  -0.94918
 Alpha  occ. eigenvalues --   -0.86864  -0.85436  -0.83216  -0.81766  -0.78291
 Alpha  occ. eigenvalues --   -0.76858  -0.72983  -0.72094  -0.71515  -0.71183
 Alpha  occ. eigenvalues --   -0.70646  -0.69685  -0.65737  -0.65453  -0.64300
 Alpha  occ. eigenvalues --   -0.64036  -0.62810  -0.61406  -0.55951  -0.54451
 Alpha  occ. eigenvalues --   -0.53797  -0.53544  -0.52379  -0.52127  -0.49751
 Alpha  occ. eigenvalues --   -0.49712  -0.48279  -0.48258  -0.45781  -0.44322
 Alpha  occ. eigenvalues --   -0.38046  -0.37057  -0.36591  -0.35661
 Alpha virt. eigenvalues --    0.04203   0.05682   0.10598   0.12004   0.15715
 Alpha virt. eigenvalues --    0.17225   0.20734   0.22258   0.26651   0.27488
 Alpha virt. eigenvalues --    0.28046   0.29098   0.30445   0.31460   0.32594

 Mulliken charges:
               1
     1  C   -0.173586
     2  C   -0.220599
     3  C   -0.171966
     4  C    0.157533
     5  C   -0.171636
     6  C   -0.217143
     7  H    0.237043
     8  H    0.217638
     9  H    0.271983
    10  H    0.274519
    11  H    0.230274
    12  N    0.488252
    13  O   -0.461280
    14  O   -0.463455
    15  C   -0.170122
    16  C   -0.218291
    17  C   -0.170023
    18  C    0.158329
    19  C   -0.173197
    20  C   -0.218568
    21  H    0.228203
    22  H    0.226488
    23  H    0.277845
    24  H    0.272179
    25  H    0.224672
    26  N    0.489376
    27  O   -0.470265
    28  O   -0.454201
 Sum of Mulliken charges =  -0.00000

 Dipole moment (field-independent basis, Debye):
    X=             -7.9209    Y=             -2.5000    Z=             -2.6834  Tot=              8.7287
 Quadrupole moment (field-independent basis, Debye-Ang):
   XX=           -117.4834   YY=           -104.2414   ZZ=            -99.9661
   XY=             22.0716   XZ=             -8.4378   YZ=              0.2133

 Normal termination of Gaussian 16 at Fri May  7 09:27:50 2021.
