 Gaussian 16, Revision A.03,
 Gaussian 16:  EM64L-G16RevA.03 25-Dec-2016

 -------------
 #p 6-31g* mp2
 -------------

 ------------------------------------------------------
 Input file generated by CHIRIPA (05-May-2021 14:55:23)
 ------------------------------------------------------
 Symbolic Z-matrix:
 Charge =  0 Multiplicity = 1

                         Standard orientation:
 ---------------------------------------------------------------------
 Center     Atomic      Atomic             Coordinates (Angstroms)
 Number     Number       Type             X           Y           Z
 ---------------------------------------------------------------------
      1          6           0        3.701547   -2.282682   -0.624323
      2          6           0        2.406776   -1.754034   -0.649260
      3          6           0        2.190040   -0.394705   -0.404723
      4          6           0        3.295951    0.410774   -0.137416
      5          6           0        4.597991   -0.086184   -0.105556
      6          6           0        4.791101   -1.448540   -0.353028
      7          1           0        3.860736   -3.339817   -0.815425
      8          1           0        1.558731   -2.399472   -0.859674
      9          1           0        1.198285    0.040804   -0.417839
     10          1           0        5.423521    0.582166    0.107110
     11          1           0        5.797749   -1.856344   -0.333013
     12          7           0        3.079008    1.851437    0.123018
     13          8           0        4.070071    2.540004    0.356055
     14          8           0        1.922013    2.264782    0.089178
     15          6           0       -3.523832   -0.106276    0.376972
     16          6           0       -2.865744   -1.264890    1.126985
     17          6           0       -1.383860   -1.018812    1.412044
     18          1           0       -2.989853    0.060488   -0.568545
     19          1           0       -3.410780    0.814190    0.966342
     20          1           0       -2.981213   -2.183165    0.537024
     21          1           0       -3.401470   -1.429040    2.070738
     22          1           0       -1.253003   -0.118216    2.020652
     23          1           0       -0.830358   -0.876627    0.478224
     24          1           0       -0.933300   -1.859464    1.948850
     25          6           0       -5.005336   -0.337462    0.084695
     26          6           0       -5.663424    0.821152   -0.665318
     27          6           0       -7.145308    0.575074   -0.950377
     28          1           0       -5.118388   -1.257928   -0.504674
     29          1           0       -5.539315   -0.504225    1.030212
     30          1           0       -5.127698    0.985302   -1.609070
     31          1           0       -5.547955    1.739426   -0.075356
     32          1           0       -7.698809    0.432888   -0.016557
     33          1           0       -7.276164   -0.325522   -1.558985
     34          1           0       -7.595868    1.415726   -1.487183
 ---------------------------------------------------------------------

 SCF Done:  E(RHF) =  -669.535328783     A.U. after   15 cycles
 E2 =    -0.2091144635D+01 EUMP2 =    -0.67162647341773D+03

 The electronic state is 1-A.
 Alpha  occ. eigenvalues --  -20.60717 -20.60711 -15.85769 -11.31123 -11.27705
 Alpha  occ. eigenvalues --  -11.27671 -11.27452 -11.26722 -11.26704 -11.21902
 Alpha  occ. eigenvalues --  -11.21613 -11.21541 -11.21524 -11.21452 -11.21081
 Alpha  occ. eigenvalues --   -1.59792  -1.39345  -1.19303  -1.08701  -1.08576
 Alpha  occ. eigenvalues --   -1.04708  -1.03712  -0.96172  -0.95536  -0.87194
 Alpha  occ. eigenvalues --   -0.86104  -0.82370  -0.79778  -0.78364  -0.77413
 Alpha  occ. eigenvalues --   -0.71989  -0.71114  -0.70425  -0.65215  -0.64956
 Alpha  occ. eigenvalues --   -0.64716  -0.62112  -0.61086  -0.59537  -0.57764
 Alpha  occ. eigenvalues --   -0.55498  -0.55186  -0.53063  -0.52880  -0.52846
 Alpha  occ. eigenvalues --   -0.52504  -0.50114  -0.48747  -0.48742  -0.48081
 Alpha  occ. eigenvalues --   -0.46802  -0.45912  -0.45822  -0.44753  -0.43950
 Alpha  occ. eigenvalues --   -0.37289  -0.36298
 Alpha virt. eigenvalues --    0.05107   0.11339   0.16585   0.20306   0.22843
 Alpha virt. eigenvalues --    0.23967   0.25592   0.26772   0.27489   0.28016
 Alpha virt. eigenvalues --    0.29247   0.30825   0.31487   0.31675   0.31804

 Mulliken charges:
               1
     1  C   -0.170931
     2  C   -0.219463
     3  C   -0.174502
     4  C    0.159213
     5  C   -0.170782
     6  C   -0.218811
     7  H    0.225298
     8  H    0.223440
     9  H    0.280686
    10  H    0.275374
    11  H    0.223197
    12  N    0.487892
    13  O   -0.460777
    14  O   -0.460251
    15  C   -0.298596
    16  C   -0.299883
    17  C   -0.477270
    18  H    0.148540
    19  H    0.154457
    20  H    0.149154
    21  H    0.154361
    22  H    0.165536
    23  H    0.143199
    24  H    0.159740
    25  C   -0.298489
    26  C   -0.299988
    27  C   -0.475840
    28  H    0.148076
    29  H    0.150089
    30  H    0.152444
    31  H    0.154112
    32  H    0.155255
    33  H    0.154361
    34  H    0.161159
 Sum of Mulliken charges =  -0.00000

 Dipole moment (field-independent basis, Debye):
    X=              0.6614    Y=             -5.0148    Z=             -0.8405  Tot=              5.1275
 Quadrupole moment (field-independent basis, Debye-Ang):
   XX=            -85.7156   YY=            -99.4127   ZZ=            -94.4474
   XY=            -16.2743   XZ=             -3.1426   YZ=              0.8652

 Normal termination of Gaussian 16 at Wed May  5 23:55:11 2021.
