 Gaussian 16, Revision A.03,
 Gaussian 16:  EM64L-G16RevA.03 25-Dec-2016

 -------------
 #p 6-31g* mp2
 -------------

 ------------------------------------------------------
 Input file generated by CHIRIPA (05-May-2021 14:55:23)
 ------------------------------------------------------
 Symbolic Z-matrix:
 Charge =  0 Multiplicity = 1

                         Standard orientation:
 ---------------------------------------------------------------------
 Center     Atomic      Atomic             Coordinates (Angstroms)
 Number     Number       Type             X           Y           Z
 ---------------------------------------------------------------------
      1          6           0       -2.154838    1.655591    1.898095
      2          6           0       -3.086909    0.613641    1.943980
      3          6           0       -3.165353   -0.315219    0.902052
      4          6           0       -2.292501   -0.171490   -0.175335
      5          6           0       -1.353081    0.855735   -0.250102
      6          6           0       -1.292419    1.773105    0.803131
      7          1           0       -2.100807    2.372689    2.711881
      8          1           0       -3.757932    0.519914    2.793090
      9          1           0       -3.877424   -1.131475    0.911941
     10          1           0       -0.697429    0.923198   -1.109745
     11          1           0       -0.567564    2.581289    0.764809
     12          7           0       -2.366133   -1.148751   -1.284361
     13          8           0       -1.585958   -1.000202   -2.222389
     14          8           0       -3.202628   -2.044773   -1.194589
     15          6           0        3.194967   -0.428542    0.548982
     16          6           0        2.988242   -1.922669    0.298315
     17          6           0        3.545898   -2.793716    1.424410
     18          1           0        4.268291   -0.228881    0.671682
     19          1           0        2.715295   -0.153344    1.498496
     20          1           0        3.466974   -2.194688   -0.651126
     21          1           0        1.915301   -2.118767    0.176006
     22          1           0        3.060908   -2.550944    2.375434
     23          1           0        4.621396   -2.627296    1.543602
     24          1           0        3.387374   -3.858073    1.224721
     25          6           0        2.642769    0.455233   -0.568044
     26          6           0        2.849493    1.949359   -0.317377
     27          6           0        2.291837    2.820407   -1.443472
     28          1           0        3.122440    0.180034   -1.517558
     29          1           0        1.569445    0.255571   -0.690744
     30          1           0        3.922434    2.145457   -0.195068
     31          1           0        2.370762    2.221378    0.632064
     32          1           0        1.216338    2.653986   -1.562664
     33          1           0        2.776828    2.577634   -2.394496
     34          1           0        2.450361    3.884763   -1.243782
 ---------------------------------------------------------------------

 SCF Done:  E(RHF) =  -669.534992537     A.U. after   15 cycles
 E2 =    -0.2093173985D+01 EUMP2 =    -0.67162816652187D+03

 The electronic state is 1-A.
 Alpha  occ. eigenvalues --  -20.60809 -20.60803 -15.85859 -11.31239 -11.27808
 Alpha  occ. eigenvalues --  -11.27786 -11.27547 -11.26827 -11.26810 -11.22172
 Alpha  occ. eigenvalues --  -11.21790 -11.21665 -11.21571 -11.21512 -11.21039
 Alpha  occ. eigenvalues --   -1.59883  -1.39435  -1.19415  -1.08804  -1.08705
 Alpha  occ. eigenvalues --   -1.04823  -1.03824  -0.96277  -0.95638  -0.87297
 Alpha  occ. eigenvalues --   -0.86217  -0.82470  -0.79895  -0.78473  -0.77512
 Alpha  occ. eigenvalues --   -0.72077  -0.71207  -0.70537  -0.65412  -0.65044
 Alpha  occ. eigenvalues --   -0.64820  -0.62246  -0.61129  -0.59662  -0.57862
 Alpha  occ. eigenvalues --   -0.55603  -0.55313  -0.53151  -0.52993  -0.52912
 Alpha  occ. eigenvalues --   -0.52681  -0.50253  -0.48838  -0.48833  -0.48189
 Alpha  occ. eigenvalues --   -0.46924  -0.45998  -0.45901  -0.44828  -0.44049
 Alpha  occ. eigenvalues --   -0.37391  -0.36397
 Alpha virt. eigenvalues --    0.04973   0.11144   0.16434   0.19013   0.23088
 Alpha virt. eigenvalues --    0.23771   0.25485   0.26317   0.27450   0.28151
 Alpha virt. eigenvalues --    0.29469   0.29753   0.31372   0.31439   0.32219

 Mulliken charges:
               1
     1  C   -0.170939
     2  C   -0.218334
     3  C   -0.170754
     4  C    0.159005
     5  C   -0.176662
     6  C   -0.222366
     7  H    0.225959
     8  H    0.223752
     9  H    0.275804
    10  H    0.280979
    11  H    0.227460
    12  N    0.488112
    13  O   -0.460403
    14  O   -0.460186
    15  C   -0.298106
    16  C   -0.300255
    17  C   -0.476044
    18  H    0.149636
    19  H    0.147338
    20  H    0.154639
    21  H    0.156129
    22  H    0.153550
    23  H    0.154308
    24  H    0.162614
    25  C   -0.302648
    26  C   -0.302267
    27  C   -0.478292
    28  H    0.154771
    29  H    0.151047
    30  H    0.156031
    31  H    0.145185
    32  H    0.146440
    33  H    0.163207
    34  H    0.161287
 Sum of Mulliken charges =  -0.00000

 Dipole moment (field-independent basis, Debye):
    X=              0.3351    Y=              3.3533    Z=              3.8516  Tot=              5.1178
 Quadrupole moment (field-independent basis, Debye-Ang):
   XX=            -92.4229   YY=            -95.9171   ZZ=            -95.7752
   XY=             -5.7584   XZ=            -12.2335   YZ=             -1.9284

 Normal termination of Gaussian 16 at Thu May  6 06:17:15 2021.
