 Gaussian 16, Revision A.03,
 Gaussian 16:  EM64L-G16RevA.03 25-Dec-2016

 -------------
 #p 6-31g* mp2
 -------------

 ------------------------------------------------------
 Input file generated by CHIRIPA (05-May-2021 14:51:09)
 ------------------------------------------------------
 Symbolic Z-matrix:
 Charge =  0 Multiplicity = 1

                         Standard orientation:
 ---------------------------------------------------------------------
 Center     Atomic      Atomic             Coordinates (Angstroms)
 Number     Number       Type             X           Y           Z
 ---------------------------------------------------------------------
      1          6           0        2.786885   -0.356708   -0.236310
      2          6           0        3.768264   -0.862593   -1.294119
      3          6           0        3.749636   -2.384681   -1.437980
      4          1           0        3.027753   -0.820737    0.729922
      5          1           0        1.772763   -0.688784   -0.498373
      6          1           0        4.780041   -0.528490   -1.030876
      7          1           0        3.525150   -0.397159   -2.257905
      8          1           0        2.751706   -2.732415   -1.724016
      9          1           0        4.013727   -2.864492   -0.490015
     10          1           0        4.458541   -2.724677   -2.199372
     11          6           0        2.793933    1.163001   -0.080862
     12          6           0        1.812554    1.668886    0.976947
     13          6           0        1.831181    3.190974    1.120808
     14          1           0        3.808055    1.495077    0.181201
     15          1           0        2.553064    1.627030   -1.047094
     16          1           0        2.055668    1.203452    1.940733
     17          1           0        0.800776    1.334783    0.713704
     18          1           0        1.567090    3.670785    0.172842
     19          1           0        2.829112    3.538708    1.406843
     20          1           0        1.122277    3.530970    1.882200
     21          6           0       -2.832190   -0.704519    0.859201
     22          6           0       -1.472398   -1.116671    1.424077
     23          6           0       -1.572409   -1.717872    2.826342
     24          1           0       -3.299501    0.021511    1.538499
     25          1           0       -3.493277   -1.581932    0.836682
     26          1           0       -0.813629   -0.239042    1.444232
     27          1           0       -1.008186   -1.841659    0.743257
     28          1           0       -2.207849   -2.609366    2.818855
     29          1           0       -2.012187   -0.997643    3.523814
     30          1           0       -0.588925   -2.005480    3.210921
     31          6           0       -2.748628   -0.101774   -0.542028
     32          6           0       -4.108419    0.310377   -1.106904
     33          6           0       -4.008409    0.911579   -2.509170
     34          1           0       -2.087541    0.775638   -0.519510
     35          1           0       -2.281316   -0.827804   -1.221328
     36          1           0       -4.572631    1.035365   -0.426085
     37          1           0       -4.767188   -0.567252   -1.127060
     38          1           0       -3.568631    0.191349   -3.206642
     39          1           0       -3.372968    1.803073   -2.501684
     40          1           0       -4.991892    1.199186   -2.893749
 ---------------------------------------------------------------------

 SCF Done:  E(RHF) =  -470.733279188     A.U. after   11 cycles
 E2 =    -0.1583276839D+01 EUMP2 =    -0.47231655602667D+03

 The electronic state is 1-A.
 Alpha  occ. eigenvalues --  -11.21632 -11.21612 -11.21589 -11.21548 -11.21437
 Alpha  occ. eigenvalues --  -11.21395 -11.21363 -11.21328 -11.21101 -11.21101
 Alpha  occ. eigenvalues --  -11.21067 -11.21047  -1.08459  -1.08414  -1.03553
 Alpha  occ. eigenvalues --   -1.03517  -0.95986  -0.95982  -0.87009  -0.86993
 Alpha  occ. eigenvalues --   -0.79678  -0.79540  -0.78372  -0.78123  -0.65145
 Alpha  occ. eigenvalues --   -0.64997  -0.61019  -0.60858  -0.59399  -0.59306
 Alpha  occ. eigenvalues --   -0.57596  -0.57592  -0.55276  -0.55267  -0.52699
 Alpha  occ. eigenvalues --   -0.52662  -0.52419  -0.52402  -0.49971  -0.49895
 Alpha  occ. eigenvalues --   -0.48101  -0.47836  -0.46830  -0.46502  -0.46100
 Alpha  occ. eigenvalues --   -0.45754  -0.45722  -0.45218  -0.43797  -0.43775
 Alpha virt. eigenvalues --    0.21001   0.23305   0.23835   0.24161   0.25173
 Alpha virt. eigenvalues --    0.26416   0.26860   0.27920   0.28069   0.29638
 Alpha virt. eigenvalues --    0.30571   0.31547   0.31812   0.31875   0.32024

 Mulliken charges:
               1
     1  C   -0.299960
     2  C   -0.299675
     3  C   -0.475587
     4  H    0.149328
     5  H    0.152136
     6  H    0.151837
     7  H    0.151927
     8  H    0.154960
     9  H    0.155139
    10  H    0.160202
    11  C   -0.297714
    12  C   -0.307163
    13  C   -0.475174
    14  H    0.149483
    15  H    0.149530
    16  H    0.151896
    17  H    0.158668
    18  H    0.155032
    19  H    0.155457
    20  H    0.159852
    21  C   -0.297808
    22  C   -0.308604
    23  C   -0.475146
    24  H    0.149520
    25  H    0.149548
    26  H    0.161393
    27  H    0.151896
    28  H    0.154916
    29  H    0.154878
    30  H    0.160409
    31  C   -0.299588
    32  C   -0.299591
    33  C   -0.475750
    34  H    0.149466
    35  H    0.149267
    36  H    0.152157
    37  H    0.152247
    38  H    0.155091
    39  H    0.155081
    40  H    0.160444
 Sum of Mulliken charges =  -0.00000

 Dipole moment (field-independent basis, Debye):
    X=              0.0012    Y=              0.0030    Z=              0.0039  Tot=              0.0051
 Quadrupole moment (field-independent basis, Debye-Ang):
   XX=            -84.2784   YY=            -85.3429   ZZ=            -85.1917
   XY=              0.1853   XZ=              0.5263   YZ=              0.5547

 Normal termination of Gaussian 16 at Thu May  6 05:18:37 2021.
