 Gaussian 16, Revision A.03,
 Gaussian 16:  EM64L-G16RevA.03 25-Dec-2016

 -------------
 #p 6-31g* mp2
 -------------

 ------------------------------------------------------
 Input file generated by CHIRIPA (05-May-2021 14:53:16)
 ------------------------------------------------------
 Symbolic Z-matrix:
 Charge =  0 Multiplicity = 1

                         Standard orientation:
 ---------------------------------------------------------------------
 Center     Atomic      Atomic             Coordinates (Angstroms)
 Number     Number       Type             X           Y           Z
 ---------------------------------------------------------------------
      1          6           0       -4.242216   -0.016396    0.334900
      2          6           0       -4.762003   -1.099365   -0.611136
      3          6           0       -5.741200   -2.057329    0.068035
      4          1           0       -3.753288   -0.493777    1.195133
      5          1           0       -5.094002    0.551042    0.734739
      6          1           0       -3.909397   -1.663698   -1.010144
      7          1           0       -5.249582   -0.619347   -1.469312
      8          1           0       -6.610082   -1.512455    0.451124
      9          1           0       -5.262282   -2.562740    0.912901
     10          1           0       -6.100248   -2.823370   -0.626318
     11          6           0       -3.262278    0.949013   -0.329505
     12          6           0       -2.742491    2.031982    0.616531
     13          6           0       -1.763295    2.989947   -0.062640
     14          1           0       -2.410492    0.381576   -0.729345
     15          1           0       -3.751206    1.426395   -1.189738
     16          1           0       -2.254912    1.551965    1.474707
     17          1           0       -3.595097    2.596316    1.015539
     18          1           0       -2.242212    3.495358   -0.907506
     19          1           0       -0.894412    2.445073   -0.445729
     20          1           0       -1.404246    3.755987    0.631713
     21          6           0        0.445968   -0.788292    0.090466
     22          6           0        1.066171   -0.526122   -1.135558
     23          6           0        2.442649   -0.289764   -1.198746
     24          6           0        3.171730   -0.323314   -0.011057
     25          6           0        2.582752   -0.581707    1.225724
     26          6           0        1.204899   -0.815201    1.265123
     27          1           0       -0.623847   -0.970788    0.130312
     28          1           0        0.479278   -0.504601   -2.049417
     29          1           0        2.948331   -0.084318   -2.134425
     30          1           0        3.194169   -0.596592    2.119796
     31          1           0        0.725918   -1.018546    2.218681
     32          7           0        4.629672   -0.074609   -0.065359
     33          8           0        5.249727   -0.109713    0.995272
     34          8           0        5.124747    0.150721   -1.167522
 ---------------------------------------------------------------------

 SCF Done:  E(RHF) =  -669.535517799     A.U. after   15 cycles
 E2 =    -0.2092217308D+01 EUMP2 =    -0.67162773510755D+03

 The electronic state is 1-A.
 Alpha  occ. eigenvalues --  -20.60790 -20.60784 -15.85844 -11.31231 -11.27805
 Alpha  occ. eigenvalues --  -11.27800 -11.27541 -11.26834 -11.26816 -11.22525
 Alpha  occ. eigenvalues --  -11.22465 -11.22407 -11.22350 -11.21832 -11.21663
 Alpha  occ. eigenvalues --   -1.59865  -1.39417  -1.19409  -1.09383  -1.08799
 Alpha  occ. eigenvalues --   -1.04814  -1.04352  -0.96793  -0.95632  -0.87801
 Alpha  occ. eigenvalues --   -0.86210  -0.82463  -0.80419  -0.79209  -0.77502
 Alpha  occ. eigenvalues --   -0.72062  -0.71188  -0.70560  -0.66036  -0.65061
 Alpha  occ. eigenvalues --   -0.64803  -0.62158  -0.61753  -0.60157  -0.58406
 Alpha  occ. eigenvalues --   -0.56152  -0.55263  -0.53436  -0.53219  -0.53117
 Alpha  occ. eigenvalues --   -0.52903  -0.50730  -0.48823  -0.48816  -0.48723
 Alpha  occ. eigenvalues --   -0.47470  -0.46715  -0.46692  -0.44818  -0.44644
 Alpha  occ. eigenvalues --   -0.37370  -0.36412
 Alpha virt. eigenvalues --    0.05007   0.11159   0.16397   0.18658   0.22827
 Alpha virt. eigenvalues --    0.23705   0.25154   0.25720   0.26819   0.27769
 Alpha virt. eigenvalues --    0.29817   0.30827   0.31068   0.31304   0.31789

 Mulliken charges:
               1
     1  C   -0.299520
     2  C   -0.299315
     3  C   -0.475941
     4  H    0.145189
     5  H    0.154653
     6  H    0.146132
     7  H    0.155194
     8  H    0.157793
     9  H    0.154704
    10  H    0.162828
    11  C   -0.300849
    12  C   -0.299234
    13  C   -0.478475
    14  H    0.138372
    15  H    0.154728
    16  H    0.148285
    17  H    0.155650
    18  H    0.156130
    19  H    0.157166
    20  H    0.163829
    21  C   -0.172985
    22  C   -0.220864
    23  C   -0.170710
    24  C    0.158552
    25  C   -0.170556
    26  C   -0.219516
    27  H    0.231324
    28  H    0.224290
    29  H    0.276019
    30  H    0.275840
    31  H    0.223673
    32  N    0.488072
    33  O   -0.460250
    34  O   -0.460209
 Sum of Mulliken charges =  -0.00000

 Dipole moment (field-independent basis, Debye):
    X=             -5.2644    Y=             -0.8049    Z=              0.1970  Tot=              5.3293
 Quadrupole moment (field-independent basis, Debye-Ang):
   XX=           -126.9580   YY=            -94.8983   ZZ=            -89.8819
   XY=             -2.3363   XZ=              1.4719   YZ=             -0.6252

 Normal termination of Gaussian 16 at Thu May  6 15:32:21 2021.
