 Gaussian 16, Revision A.03,
 Gaussian 16:  EM64L-G16RevA.03 25-Dec-2016

 -------------
 #p 6-31g* mp2
 -------------

 ------------------------------------------------------
 Input file generated by CHIRIPA (05-May-2021 14:55:19)
 ------------------------------------------------------
 Symbolic Z-matrix:
 Charge =  0 Multiplicity = 1

                         Standard orientation:
 ---------------------------------------------------------------------
 Center     Atomic      Atomic             Coordinates (Angstroms)
 Number     Number       Type             X           Y           Z
 ---------------------------------------------------------------------
      1          6           0        1.845805    2.162758    0.833155
      2          6           0        1.216537    1.038963    1.378708
      3          6           0        1.615613   -0.248459    1.007452
      4          6           0        2.652020   -0.375935    0.083926
      5          6           0        3.298577    0.724189   -0.477305
      6          6           0        2.882988    2.002067   -0.091481
      7          1           0        1.529379    3.159151    1.127214
      8          1           0        0.410766    1.160740    2.097004
      9          1           0        1.145751   -1.135705    1.414198
     10          1           0        4.098851    0.571002   -1.191108
     11          1           0        3.373499    2.873014   -0.516800
     12          7           0        3.083245   -1.733820   -0.316818
     13          8           0        3.998819   -1.819284   -1.132328
     14          8           0        2.497499   -2.686953    0.192178
     15          6           0       -3.388120   -0.445132    0.216514
     16          6           0       -4.354760   -1.445993   -0.417418
     17          6           0       -4.513329   -2.720977    0.411475
     18          1           0       -2.407890   -0.923822    0.346705
     19          1           0       -3.746131   -0.187195    1.222840
     20          1           0       -3.995774   -1.700908   -1.422784
     21          1           0       -5.332750   -0.964803   -0.546290
     22          1           0       -4.893845   -2.485976    1.410767
     23          1           0       -3.549272   -3.226263    0.529293
     24          1           0       -5.208650   -3.422469   -0.060012
     25          6           0       -3.219110    0.834610   -0.600447
     26          6           0       -2.252470    1.835470    0.033485
     27          6           0       -2.093900    3.110454   -0.795408
     28          1           0       -2.861099    0.576672   -1.606773
     29          1           0       -4.199340    1.313299   -0.730638
     30          1           0       -1.274480    1.354280    0.162357
     31          1           0       -2.611456    2.090386    1.038852
     32          1           0       -3.057959    3.615741   -0.913225
     33          1           0       -1.713385    2.875453   -1.794699
     34          1           0       -1.398581    3.811946   -0.323921
 ---------------------------------------------------------------------

 SCF Done:  E(RHF) =  -669.535075553     A.U. after   15 cycles
 E2 =    -0.2092725831D+01 EUMP2 =    -0.67162780138428D+03

 The electronic state is 1-A.
 Alpha  occ. eigenvalues --  -20.60824 -20.60819 -15.85877 -11.31262 -11.27818
 Alpha  occ. eigenvalues --  -11.27814 -11.27556 -11.26841 -11.26814 -11.22072
 Alpha  occ. eigenvalues --  -11.21799 -11.21761 -11.21699 -11.21676 -11.21169
 Alpha  occ. eigenvalues --   -1.59899  -1.39452  -1.19436  -1.08846  -1.08770
 Alpha  occ. eigenvalues --   -1.04844  -1.03882  -0.96333  -0.95652  -0.87350
 Alpha  occ. eigenvalues --   -0.86234  -0.82487  -0.79975  -0.78618  -0.77523
 Alpha  occ. eigenvalues --   -0.72094  -0.71223  -0.70526  -0.65434  -0.65082
 Alpha  occ. eigenvalues --   -0.64828  -0.62188  -0.61272  -0.59736  -0.57955
 Alpha  occ. eigenvalues --   -0.55607  -0.55328  -0.53222  -0.53013  -0.52935
 Alpha  occ. eigenvalues --   -0.52738  -0.50257  -0.48860  -0.48849  -0.48269
 Alpha  occ. eigenvalues --   -0.46985  -0.46147  -0.46057  -0.44853  -0.44143
 Alpha  occ. eigenvalues --   -0.37377  -0.36375
 Alpha virt. eigenvalues --    0.04977   0.11145   0.16401   0.20576   0.22754
 Alpha virt. eigenvalues --    0.23899   0.25843   0.26285   0.26752   0.28544
 Alpha virt. eigenvalues --    0.28878   0.30151   0.31138   0.31609   0.32411

 Mulliken charges:
               1
     1  C   -0.170460
     2  C   -0.218758
     3  C   -0.173227
     4  C    0.158999
     5  C   -0.171016
     6  C   -0.218212
     7  H    0.226613
     8  H    0.227792
     9  H    0.276074
    10  H    0.275850
    11  H    0.223956
    12  N    0.488061
    13  O   -0.460136
    14  O   -0.460357
    15  C   -0.298813
    16  C   -0.299915
    17  C   -0.476610
    18  H    0.148025
    19  H    0.147503
    20  H    0.154456
    21  H    0.152055
    22  H    0.153989
    23  H    0.157857
    24  H    0.161888
    25  C   -0.297226
    26  C   -0.310847
    27  C   -0.473384
    28  H    0.152428
    29  H    0.150335
    30  H    0.159420
    31  H    0.146488
    32  H    0.157420
    33  H    0.158439
    34  H    0.151313
 Sum of Mulliken charges =  -0.00000

 Dipole moment (field-independent basis, Debye):
    X=             -1.5012    Y=              4.7203    Z=              1.3542  Tot=              5.1351
 Quadrupole moment (field-independent basis, Debye-Ang):
   XX=           -100.1618   YY=            -98.9937   ZZ=            -93.1130
   XY=             14.7234   XZ=              1.1638   YZ=             -0.8423

 Normal termination of Gaussian 16 at Thu May  6 04:28:23 2021.
