 Gaussian 16, Revision A.03,
 Gaussian 16:  EM64L-G16RevA.03 25-Dec-2016

 -------------
 #p 6-31g* mp2
 -------------

 ------------------------------------------------------
 Input file generated by CHIRIPA (05-May-2021 14:57:22)
 ------------------------------------------------------
 Symbolic Z-matrix:
 Charge =  0 Multiplicity = 1

                         Standard orientation:
 ---------------------------------------------------------------------
 Center     Atomic      Atomic             Coordinates (Angstroms)
 Number     Number       Type             X           Y           Z
 ---------------------------------------------------------------------
      1          6           0        1.680368    2.466622   -0.666570
      2          6           0        2.936161    2.351660   -0.061353
      3          6           0        3.529525    1.097447    0.110161
      4          6           0        2.835891   -0.025899   -0.337336
      5          6           0        1.583497    0.056028   -0.944037
      6          6           0        1.009227    1.320459   -1.105208
      7          1           0        1.226845    3.444893   -0.795789
      8          1           0        3.459686    3.240064    0.280267
      9          1           0        4.500645    0.979673    0.575429
     10          1           0        1.085945   -0.847707   -1.274375
     11          1           0        0.033849    1.406723   -1.575570
     12          7           0        3.453952   -1.359087   -0.161237
     13          8           0        2.822323   -2.333450   -0.564100
     14          8           0        4.558314   -1.404432    0.376317
     15          6           0       -0.627623   -0.220005    1.754991
     16          6           0       -1.421562    0.930681    1.709139
     17          6           0       -2.590767    0.956517    0.943082
     18          6           0       -2.937666   -0.191295    0.232112
     19          6           0       -2.167531   -1.352990    0.257540
     20          6           0       -1.002480   -1.356165    1.030324
     21          1           0        0.279029   -0.231273    2.352696
     22          1           0       -1.132902    1.814502    2.270905
     23          1           0       -3.223837    1.833894    0.889710
     24          1           0       -2.481185   -2.218602   -0.313211
     25          1           0       -0.387827   -2.251212    1.064061
     26          7           0       -4.173252   -0.175939   -0.582439
     27          8           0       -4.457002   -1.200186   -1.199725
     28          8           0       -4.834557    0.860052   -0.588174
 ---------------------------------------------------------------------

 SCF Done:  E(RHF) =  -868.337284322     A.U. after   16 cycles
 E2 =    -0.2603841871D+01 EUMP2 =    -0.87094112619329D+03

 The electronic state is 1-A.
 Alpha  occ. eigenvalues --  -20.61520 -20.61495 -20.61208 -20.61194 -15.86551
 Alpha  occ. eigenvalues --  -15.86259 -11.31782 -11.31652 -11.28342 -11.28265
 Alpha  occ. eigenvalues --  -11.28242 -11.28163 -11.28017 -11.27830 -11.27331
 Alpha  occ. eigenvalues --  -11.27207 -11.27179 -11.27039  -1.60589  -1.60285
 Alpha  occ. eigenvalues --   -1.40144  -1.39835  -1.19975  -1.19789  -1.09365
 Alpha  occ. eigenvalues --   -1.09173  -1.05311  -1.05188  -0.96222  -0.96004
 Alpha  occ. eigenvalues --   -0.86747  -0.86532  -0.83037  -0.82829  -0.78114
 Alpha  occ. eigenvalues --   -0.77889  -0.72761  -0.72464  -0.71931  -0.71624
 Alpha  occ. eigenvalues --   -0.71040  -0.70848  -0.65582  -0.65423  -0.65304
 Alpha  occ. eigenvalues --   -0.65109  -0.62675  -0.62492  -0.55818  -0.55633
 Alpha  occ. eigenvalues --   -0.54289  -0.53385  -0.53223  -0.52962  -0.49531
 Alpha  occ. eigenvalues --   -0.49505  -0.49228  -0.49223  -0.45572  -0.45236
 Alpha  occ. eigenvalues --   -0.38293  -0.38078  -0.36721  -0.36235
 Alpha virt. eigenvalues --    0.04276   0.04686   0.09963   0.11642   0.15834
 Alpha virt. eigenvalues --    0.16099   0.20751   0.21311   0.26518   0.27000
 Alpha virt. eigenvalues --    0.27877   0.28079   0.30175   0.30898   0.31907

 Mulliken charges:
               1
     1  C   -0.174947
     2  C   -0.220390
     3  C   -0.174096
     4  C    0.152391
     5  C   -0.168838
     6  C   -0.212845
     7  H    0.226948
     8  H    0.224310
     9  H    0.275857
    10  H    0.274503
    11  H    0.228746
    12  N    0.487505
    13  O   -0.463761
    14  O   -0.458156
    15  C   -0.165246
    16  C   -0.217657
    17  C   -0.176899
    18  C    0.155637
    19  C   -0.176580
    20  C   -0.227904
    21  H    0.229744
    22  H    0.222402
    23  H    0.274695
    24  H    0.278732
    25  H    0.237494
    26  N    0.487760
    27  O   -0.458277
    28  O   -0.461128
 Sum of Mulliken charges =  -0.00000

 Dipole moment (field-independent basis, Debye):
    X=              2.1737    Y=              4.5934    Z=              2.2826  Tot=              5.5709
 Quadrupole moment (field-independent basis, Debye-Ang):
   XX=           -140.9258   YY=           -100.1157   ZZ=           -102.9099
   XY=             13.9874   XZ=             -6.8104   YZ=              0.2568

 Normal termination of Gaussian 16 at Thu May  6 03:21:16 2021.
