 Gaussian 16, Revision A.03,
 Gaussian 16:  EM64L-G16RevA.03 25-Dec-2016

 -------------
 #p 6-31g* mp2
 -------------

 ------------------------------------------------------
 Input file generated by CHIRIPA (05-May-2021 14:51:11)
 ------------------------------------------------------
 Symbolic Z-matrix:
 Charge =  0 Multiplicity = 1

                         Standard orientation:
 ---------------------------------------------------------------------
 Center     Atomic      Atomic             Coordinates (Angstroms)
 Number     Number       Type             X           Y           Z
 ---------------------------------------------------------------------
      1          6           0       -3.222631    0.915214    0.146050
      2          6           0       -4.129424    2.103753   -0.175023
      3          6           0       -3.573577    3.429224    0.346470
      4          1           0       -3.081942    0.852846    1.233828
      5          1           0       -2.228983    1.093298   -0.287936
      6          1           0       -5.121471    1.922852    0.258259
      7          1           0       -4.268126    2.163185   -1.262150
      8          1           0       -2.593426    3.636321   -0.095136
      9          1           0       -3.451619    3.394623    1.433912
     10          1           0       -4.237547    4.265389    0.105983
     11          6           0       -3.764844   -0.416933   -0.368846
     12          6           0       -2.858051   -1.605472   -0.047772
     13          6           0       -3.413898   -2.930943   -0.569265
     14          1           0       -4.758492   -0.595016    0.065140
     15          1           0       -3.905533   -0.354564   -1.456624
     16          1           0       -2.719349   -1.664903    1.039355
     17          1           0       -1.866004   -1.424571   -0.481054
     18          1           0       -3.535856   -2.896341   -1.656707
     19          1           0       -4.394049   -3.138039   -0.127660
     20          1           0       -2.749929   -3.767107   -0.328779
     21          6           0        3.140732   -0.922285    0.186872
     22          6           0        1.661678   -0.793681    0.552721
     23          6           0        0.969191   -2.148858    0.700197
     24          1           0        3.232103   -1.486381   -0.751419
     25          1           0        3.652015   -1.514305    0.958556
     26          1           0        1.153615   -0.200908   -0.218711
     27          1           0        1.573807   -0.229660    1.490152
     28          1           0        1.449840   -2.743872    1.483482
     29          1           0        1.027260   -2.714957   -0.235090
     30          1           0       -0.087248   -2.033500    0.961905
     31          6           0        3.846743    0.424003    0.035922
     32          6           0        5.325797    0.295399   -0.329926
     33          6           0        6.018284    1.650577   -0.477401
     34          1           0        3.335459    1.016024   -0.735761
     35          1           0        3.755372    0.988099    0.974214
     36          1           0        5.413667   -0.268622   -1.267356
     37          1           0        5.833859   -0.297373    0.441507
     38          1           0        5.960214    2.216676    0.457885
     39          1           0        5.537635    2.245590   -1.260687
     40          1           0        7.074722    1.535219   -0.739110
 ---------------------------------------------------------------------

 SCF Done:  E(RHF) =  -470.732802552     A.U. after   11 cycles
 E2 =    -0.1583037654D+01 EUMP2 =    -0.47231584020634D+03

 The electronic state is 1-A.
 Alpha  occ. eigenvalues --  -11.21606 -11.21593 -11.21590 -11.21574 -11.21409
 Alpha  occ. eigenvalues --  -11.21388 -11.21350 -11.21328 -11.21072 -11.21068
 Alpha  occ. eigenvalues --  -11.21065 -11.20933  -1.08447  -1.08402  -1.03564
 Alpha  occ. eigenvalues --   -1.03475  -0.96000  -0.95929  -0.87022  -0.86944
 Alpha  occ. eigenvalues --   -0.79676  -0.79505  -0.78262  -0.78222  -0.65098
 Alpha  occ. eigenvalues --   -0.65015  -0.60993  -0.60850  -0.59582  -0.59140
 Alpha  occ. eigenvalues --   -0.57707  -0.57431  -0.55286  -0.55214  -0.52742
 Alpha  occ. eigenvalues --   -0.52597  -0.52443  -0.52326  -0.49945  -0.49868
 Alpha  occ. eigenvalues --   -0.48065  -0.47707  -0.46648  -0.46582  -0.45783
 Alpha  occ. eigenvalues --   -0.45774  -0.45724  -0.45661  -0.43824  -0.43667
 Alpha virt. eigenvalues --    0.21553   0.23141   0.23606   0.24678   0.25884
 Alpha virt. eigenvalues --    0.26567   0.26956   0.27336   0.28145   0.29094
 Alpha virt. eigenvalues --    0.30221   0.31392   0.31520   0.31717   0.32221

 Mulliken charges:
               1
     1  C   -0.298700
     2  C   -0.299618
     3  C   -0.475685
     4  H    0.149569
     5  H    0.149685
     6  H    0.151980
     7  H    0.151883
     8  H    0.155267
     9  H    0.155210
    10  H    0.160236
    11  C   -0.297468
    12  C   -0.305366
    13  C   -0.476174
    14  H    0.149429
    15  H    0.149520
    16  H    0.151430
    17  H    0.158361
    18  H    0.155081
    19  H    0.155170
    20  H    0.161287
    21  C   -0.298179
    22  C   -0.299968
    23  C   -0.483456
    24  H    0.149445
    25  H    0.149655
    26  H    0.151027
    27  H    0.152099
    28  H    0.154259
    29  H    0.153701
    30  H    0.170597
    31  C   -0.298178
    32  C   -0.299625
    33  C   -0.475683
    34  H    0.149197
    35  H    0.149690
    36  H    0.151866
    37  H    0.151944
    38  H    0.155200
    39  H    0.155094
    40  H    0.160218
 Sum of Mulliken charges =  -0.00000

 Dipole moment (field-independent basis, Debye):
    X=             -0.0330    Y=             -0.0037    Z=              0.0036  Tot=              0.0334
 Quadrupole moment (field-independent basis, Debye-Ang):
   XX=            -85.0665   YY=            -86.6849   ZZ=            -83.0990
   XY=             -0.7223   XZ=             -0.1896   YZ=             -0.3286

 Normal termination of Gaussian 16 at Thu May  6 05:25:32 2021.
