 Gaussian 16, Revision A.03,
 Gaussian 16:  EM64L-G16RevA.03 25-Dec-2016

 -------------
 #p 6-31g* mp2
 -------------

 ------------------------------------------------------
 Input file generated by CHIRIPA (05-May-2021 14:55:24)
 ------------------------------------------------------
 Symbolic Z-matrix:
 Charge =  0 Multiplicity = 1

                         Standard orientation:
 ---------------------------------------------------------------------
 Center     Atomic      Atomic             Coordinates (Angstroms)
 Number     Number       Type             X           Y           Z
 ---------------------------------------------------------------------
      1          6           0       -2.657858    2.762660   -0.539718
      2          6           0       -2.934036    1.782879   -1.499028
      3          6           0       -2.925522    0.428291   -1.153243
      4          6           0       -2.635480    0.087527    0.167002
      5          6           0       -2.356260    1.040340    1.145508
      6          6           0       -2.370358    2.388922    0.777167
      7          1           0       -2.666641    3.812603   -0.817094
      8          1           0       -3.157644    2.070206   -2.522497
      9          1           0       -3.135748   -0.350841   -1.875860
     10          1           0       -2.136862    0.723122    2.157760
     11          1           0       -2.155500    3.147672    1.524281
     12          7           0       -2.623511   -1.343335    0.545009
     13          8           0       -2.365023   -1.617549    1.714893
     14          8           0       -2.872844   -2.163538   -0.335750
     15          6           0        4.041374   -0.090243   -0.323446
     16          6           0        4.431366    1.073051    0.589043
     17          6           0        5.764942    1.710210    0.197382
     18          1           0        4.834234   -0.850263   -0.297191
     19          1           0        3.986727    0.268741   -1.360528
     20          1           0        4.483910    0.712290    1.624275
     21          1           0        3.637397    1.830303    0.560761
     22          1           0        5.721315    2.096951   -0.825912
     23          1           0        6.572637    0.972586    0.243645
     24          1           0        6.024388    2.539575    0.862738
     25          6           0        2.710505   -0.737534    0.055409
     26          6           0        2.320514   -1.900828   -0.857080
     27          6           0        0.986938   -2.537987   -0.465418
     28          1           0        2.765153   -1.096518    1.092491
     29          1           0        1.917646    0.022486    0.029154
     30          1           0        3.114483   -2.658080   -0.828797
     31          1           0        2.267970   -1.540067   -1.892313
     32          1           0        0.179243   -1.800363   -0.511682
     33          1           0        1.030565   -2.924728    0.557875
     34          1           0        0.727492   -3.367352   -1.130775
 ---------------------------------------------------------------------

 SCF Done:  E(RHF) =  -669.535579355     A.U. after   15 cycles
 E2 =    -0.2091577354D+01 EUMP2 =    -0.67162715670921D+03

 The electronic state is 1-A.
 Alpha  occ. eigenvalues --  -20.60780 -20.60774 -15.85821 -11.31230 -11.27798
 Alpha  occ. eigenvalues --  -11.27793 -11.27544 -11.26816 -11.26806 -11.21559
 Alpha  occ. eigenvalues --  -11.21236 -11.21167 -11.21088 -11.21068 -11.20337
 Alpha  occ. eigenvalues --   -1.59850  -1.39402  -1.19402  -1.08791  -1.08202
 Alpha  occ. eigenvalues --   -1.04805  -1.03247  -0.95674  -0.95619  -0.86681
 Alpha  occ. eigenvalues --   -0.86201  -0.82448  -0.79322  -0.78006  -0.77491
 Alpha  occ. eigenvalues --   -0.72045  -0.71189  -0.70504  -0.65052  -0.64839
 Alpha  occ. eigenvalues --   -0.64805  -0.62149  -0.60649  -0.59069  -0.57283
 Alpha  occ. eigenvalues --   -0.55305  -0.54965  -0.53137  -0.52895  -0.52340
 Alpha  occ. eigenvalues --   -0.52090  -0.49627  -0.48809  -0.48799  -0.47623
 Alpha  occ. eigenvalues --   -0.46386  -0.45543  -0.45475  -0.44770  -0.43494
 Alpha  occ. eigenvalues --   -0.37383  -0.36409
 Alpha virt. eigenvalues --    0.05036   0.11234   0.16502   0.21386   0.23037
 Alpha virt. eigenvalues --    0.24525   0.26774   0.27293   0.27604   0.28052
 Alpha virt. eigenvalues --    0.28395   0.30774   0.31571   0.32004   0.32435

 Mulliken charges:
               1
     1  C   -0.170846
     2  C   -0.218607
     3  C   -0.171797
     4  C    0.155681
     5  C   -0.170962
     6  C   -0.218709
     7  H    0.225743
     8  H    0.223602
     9  H    0.276140
    10  H    0.276111
    11  H    0.223713
    12  N    0.489808
    13  O   -0.459085
    14  O   -0.458852
    15  C   -0.297744
    16  C   -0.299039
    17  C   -0.475430
    18  H    0.150149
    19  H    0.147953
    20  H    0.152409
    21  H    0.149036
    22  H    0.154269
    23  H    0.155930
    24  H    0.159021
    25  C   -0.297759
    26  C   -0.301007
    27  C   -0.470568
    28  H    0.151134
    29  H    0.146460
    30  H    0.151144
    31  H    0.148512
    32  H    0.147984
    33  H    0.161568
    34  H    0.164039
 Sum of Mulliken charges =  -0.00000

 Dipole moment (field-independent basis, Debye):
    X=             -0.1386    Y=              4.9396    Z=             -1.2896  Tot=              5.1070
 Quadrupole moment (field-independent basis, Debye-Ang):
   XX=            -96.0682   YY=            -93.6976   ZZ=            -90.5202
   XY=            -14.1104   XZ=              5.3863   YZ=              1.6718

 Normal termination of Gaussian 16 at Wed May  5 19:09:08 2021.
