 Gaussian 16, Revision A.03,
 Gaussian 16:  EM64L-G16RevA.03 25-Dec-2016

 -------------
 #p 6-31g* mp2
 -------------

 ------------------------------------------------------
 Input file generated by CHIRIPA (05-May-2021 14:53:11)
 ------------------------------------------------------
 Symbolic Z-matrix:
 Charge =  0 Multiplicity = 1

                         Standard orientation:
 ---------------------------------------------------------------------
 Center     Atomic      Atomic             Coordinates (Angstroms)
 Number     Number       Type             X           Y           Z
 ---------------------------------------------------------------------
      1          6           0       -3.847634   -0.710619   -0.123000
      2          6           0       -5.017524   -1.675105   -0.320756
      3          6           0       -4.569011   -3.132012   -0.439305
      4          1           0       -3.149537   -0.813491   -0.965035
      5          1           0       -3.292440   -0.998981    0.780329
      6          1           0       -5.571163   -1.384174   -1.222676
      7          1           0       -5.713014   -1.569788    0.521751
      8          1           0       -4.035132   -3.445425    0.463661
      9          1           0       -3.892475   -3.258757   -1.290678
     10          1           0       -5.421166   -3.804218   -0.580124
     11          6           0       -4.280020    0.749627   -0.002784
     12          6           0       -3.110130    1.714113    0.194972
     13          6           0       -3.558643    3.171020    0.313521
     14          1           0       -4.835213    1.037989   -0.906113
     15          1           0       -4.978117    0.852499    0.839251
     16          1           0       -2.414640    1.608796   -0.647535
     17          1           0       -2.556491    1.423182    1.096892
     18          1           0       -4.235178    3.297765    1.164894
     19          1           0       -4.092521    3.484433   -0.589444
     20          1           0       -2.706488    3.843227    0.454341
     21          6           0        0.746615    0.581001    0.386815
     22          6           0        1.352568   -0.377284    1.205980
     23          6           0        2.697353   -0.715507    1.027922
     24          6           0        3.409619   -0.072880    0.016489
     25          6           0        2.834173    0.885936   -0.815872
     26          6           0        1.488044    1.208447   -0.619722
     27          1           0       -0.298568    0.837638    0.532162
     28          1           0        0.779210   -0.866184    1.988465
     29          1           0        3.191414   -1.453803    1.647794
     30          1           0        3.431490    1.356252   -1.587514
     31          1           0        1.020069    1.953038   -1.257395
     32          7           0        4.833994   -0.422625   -0.181589
     33          8           0        5.439747    0.157921   -1.079737
     34          8           0        5.317695   -1.270677    0.565053
 ---------------------------------------------------------------------

 SCF Done:  E(RHF) =  -669.535385337     A.U. after   15 cycles
 E2 =    -0.2091629827D+01 EUMP2 =    -0.67162701516430D+03

 The electronic state is 1-A.
 Alpha  occ. eigenvalues --  -20.60681 -20.60676 -15.85735 -11.31070 -11.27650
 Alpha  occ. eigenvalues --  -11.27646 -11.27269 -11.26638 -11.26626 -11.23023
 Alpha  occ. eigenvalues --  -11.22447 -11.22374 -11.22317 -11.22171 -11.21693
 Alpha  occ. eigenvalues --   -1.59758  -1.39312  -1.19239  -1.09470  -1.08627
 Alpha  occ. eigenvalues --   -1.04646  -1.04522  -0.96916  -0.95471  -0.87938
 Alpha  occ. eigenvalues --   -0.86039  -0.82325  -0.80658  -0.79280  -0.77371
 Alpha  occ. eigenvalues --   -0.71952  -0.71082  -0.70326  -0.66090  -0.64886
 Alpha  occ. eigenvalues --   -0.64656  -0.62005  -0.61905  -0.60335  -0.58549
 Alpha  occ. eigenvalues --   -0.56178  -0.55159  -0.53606  -0.53323  -0.52971
 Alpha  occ. eigenvalues --   -0.52735  -0.50860  -0.48909  -0.48710  -0.48691
 Alpha  occ. eigenvalues --   -0.47686  -0.46770  -0.46703  -0.44765  -0.44725
 Alpha  occ. eigenvalues --   -0.37199  -0.36261
 Alpha virt. eigenvalues --    0.05167   0.11391   0.16645   0.20039   0.22380
 Alpha virt. eigenvalues --    0.23596   0.24806   0.25691   0.26939   0.27631
 Alpha virt. eigenvalues --    0.29507   0.29906   0.30789   0.31161   0.31781

 Mulliken charges:
               1
     1  C   -0.299872
     2  C   -0.300278
     3  C   -0.476312
     4  H    0.150602
     5  H    0.145369
     6  H    0.154171
     7  H    0.153548
     8  H    0.154815
     9  H    0.156732
    10  H    0.163099
    11  C   -0.297148
    12  C   -0.308691
    13  C   -0.475226
    14  H    0.153728
    15  H    0.153353
    16  H    0.148488
    17  H    0.147661
    18  H    0.159739
    19  H    0.159505
    20  H    0.160412
    21  C   -0.178639
    22  C   -0.222048
    23  C   -0.170586
    24  C    0.157788
    25  C   -0.170642
    26  C   -0.223352
    27  H    0.241867
    28  H    0.222762
    29  H    0.275052
    30  H    0.275033
    31  H    0.222721
    32  N    0.488044
    33  O   -0.460872
    34  O   -0.460822
 Sum of Mulliken charges =  -0.00000

 Dipole moment (field-independent basis, Debye):
    X=             -5.3731    Y=              1.2451    Z=              0.6642  Tot=              5.5553
 Quadrupole moment (field-independent basis, Debye-Ang):
   XX=           -128.5689   YY=            -94.0449   ZZ=            -91.2461
   XY=              4.8539   XZ=              2.1007   YZ=             -3.0864

 Normal termination of Gaussian 16 at Wed May  5 23:18:39 2021.
