 Gaussian 16, Revision A.03,
 Gaussian 16:  EM64L-G16RevA.03 25-Dec-2016

 -------------
 #p 6-31g* mp2
 -------------

 ------------------------------------------------------
 Input file generated by CHIRIPA (05-May-2021 14:55:22)
 ------------------------------------------------------
 Symbolic Z-matrix:
 Charge =  0 Multiplicity = 1

                         Standard orientation:
 ---------------------------------------------------------------------
 Center     Atomic      Atomic             Coordinates (Angstroms)
 Number     Number       Type             X           Y           Z
 ---------------------------------------------------------------------
      1          6           0       -2.268883    2.020279   -0.800785
      2          6           0       -1.769608    1.148420    0.172410
      3          6           0       -2.491335    0.009931    0.543220
      4          6           0       -3.714330   -0.227134   -0.082379
      5          6           0       -4.238370    0.622552   -1.055368
      6          6           0       -3.499501    1.755030   -1.410493
      7          1           0       -1.701570    2.902350   -1.082747
      8          1           0       -0.814181    1.351900    0.647594
      9          1           0       -2.128284   -0.681771    1.293660
     10          1           0       -5.193809    0.393196   -1.511384
     11          1           0       -3.889704    2.430373   -2.166600
     12          7           0       -4.487464   -1.429219    0.301878
     13          8           0       -5.562373   -1.615686   -0.264194
     14          8           0       -4.003898   -2.162186    1.161856
     15          6           0        4.890651   -0.298150   -0.431041
     16          6           0        6.301574   -0.841182   -0.202141
     17          6           0        6.887081   -1.509052   -1.446700
     18          1           0        4.235538   -1.120254   -0.750285
     19          1           0        4.912933    0.423464   -1.259396
     20          1           0        6.276887   -1.560525    0.626445
     21          1           0        6.953361   -0.017726    0.116781
     22          1           0        6.940733   -0.797187   -2.276743
     23          1           0        6.260416   -2.348751   -1.764184
     24          1           0        7.896102   -1.890053   -1.260760
     25          6           0        4.291834    0.372429    0.804058
     26          6           0        2.880911    0.915463    0.575157
     27          6           0        2.295404    1.583331    1.819717
     28          1           0        4.269553   -0.349184    1.632413
     29          1           0        4.946947    1.194533    1.123302
     30          1           0        2.229125    0.092006    0.256236
     31          1           0        2.905599    1.634805   -0.253428
     32          1           0        2.922069    2.423031    2.137200
     33          1           0        2.241751    0.871466    2.649760
     34          1           0        1.286383    1.964333    1.633776
 ---------------------------------------------------------------------

 SCF Done:  E(RHF) =  -669.535523210     A.U. after   15 cycles
 E2 =    -0.2090806595D+01 EUMP2 =    -0.67162632980458D+03

 The electronic state is 1-A.
 Alpha  occ. eigenvalues --  -20.60739 -20.60733 -15.85792 -11.31151 -11.27721
 Alpha  occ. eigenvalues --  -11.27712 -11.27460 -11.26737 -11.26704 -11.22442
 Alpha  occ. eigenvalues --  -11.22114 -11.21997 -11.21966 -11.21837 -11.21362
 Alpha  occ. eigenvalues --   -1.59814  -1.39368  -1.19322  -1.09014  -1.08719
 Alpha  occ. eigenvalues --   -1.04725  -1.04151  -0.96604  -0.95555  -0.87621
 Alpha  occ. eigenvalues --   -0.86124  -0.82387  -0.80218  -0.78785  -0.77437
 Alpha  occ. eigenvalues --   -0.72010  -0.71137  -0.70433  -0.65637  -0.64974
 Alpha  occ. eigenvalues --   -0.64764  -0.62121  -0.61529  -0.60002  -0.58206
 Alpha  occ. eigenvalues --   -0.55866  -0.55228  -0.53406  -0.53091  -0.53055
 Alpha  occ. eigenvalues --   -0.52653  -0.50521  -0.48771  -0.48765  -0.48529
 Alpha  occ. eigenvalues --   -0.47237  -0.46335  -0.46231  -0.44775  -0.44396
 Alpha  occ. eigenvalues --   -0.37304  -0.36327
 Alpha virt. eigenvalues --    0.05098   0.11317   0.16585   0.19526   0.22554
 Alpha virt. eigenvalues --    0.23660   0.25891   0.26137   0.26993   0.28278
 Alpha virt. eigenvalues --    0.28668   0.30064   0.30843   0.31500   0.32031

 Mulliken charges:
               1
     1  C   -0.173185
     2  C   -0.226955
     3  C   -0.173752
     4  C    0.158938
     5  C   -0.171256
     6  C   -0.218513
     7  H    0.225739
     8  H    0.236471
     9  H    0.276012
    10  H    0.275444
    11  H    0.223245
    12  N    0.488062
    13  O   -0.460619
    14  O   -0.460528
    15  C   -0.298923
    16  C   -0.300213
    17  C   -0.476092
    18  H    0.151160
    19  H    0.149442
    20  H    0.153171
    21  H    0.152280
    22  H    0.155179
    23  H    0.156243
    24  H    0.161588
    25  C   -0.298737
    26  C   -0.301624
    27  C   -0.480220
    28  H    0.151828
    29  H    0.151064
    30  H    0.152207
    31  H    0.151424
    32  H    0.160673
    33  H    0.159995
    34  H    0.150451
 Sum of Mulliken charges =  -0.00000

 Dipole moment (field-independent basis, Debye):
    X=              2.9400    Y=              4.2040    Z=             -1.3483  Tot=              5.3042
 Quadrupole moment (field-independent basis, Debye-Ang):
   XX=           -112.1848   YY=            -96.5162   ZZ=            -93.3739
   XY=            -16.9055   XZ=              8.0375   YZ=             -1.7487

 Normal termination of Gaussian 16 at Thu May  6 09:21:59 2021.
