 Gaussian 16, Revision A.03,
 Gaussian 16:  EM64L-G16RevA.03 25-Dec-2016

 -------------
 #p 6-31g* mp2
 -------------

 ------------------------------------------------------
 Input file generated by CHIRIPA (05-May-2021 14:53:12)
 ------------------------------------------------------
 Symbolic Z-matrix:
 Charge =  0 Multiplicity = 1

                         Standard orientation:
 ---------------------------------------------------------------------
 Center     Atomic      Atomic             Coordinates (Angstroms)
 Number     Number       Type             X           Y           Z
 ---------------------------------------------------------------------
      1          6           0        3.066579   -0.452053   -0.405479
      2          6           0        4.390626   -1.215805   -0.445060
      3          6           0        4.197565   -2.727738   -0.565810
      4          1           0        2.466283   -0.815160    0.439945
      5          1           0        2.493651   -0.677953   -1.315489
      6          1           0        4.961490   -0.987450    0.464107
      7          1           0        4.987921   -0.850704   -1.290374
      8          1           0        3.649716   -2.974267   -1.481062
      9          1           0        3.623135   -3.111790    0.283387
     10          1           0        5.156785   -3.254094   -0.592384
     11          6           0        3.243104    1.060572   -0.284924
     12          6           0        1.919057    1.824324   -0.245343
     13          6           0        2.112118    3.336257   -0.124593
     14          1           0        3.816032    1.286472    0.625085
     15          1           0        3.843401    1.423679   -1.130348
     16          1           0        1.321762    1.459223    0.599971
     17          1           0        1.348193    1.595969   -1.154510
     18          1           0        2.686548    3.720309   -0.973790
     19          1           0        2.659967    3.582785    0.790659
     20          1           0        1.152898    3.862612   -0.098019
     21          6           0       -0.841557   -0.314003    2.199831
     22          6           0       -1.208507    0.915085    1.641966
     23          6           0       -2.107051    0.969331    0.572281
     24          6           0       -2.621641   -0.230326    0.083090
     25          6           0       -2.275462   -1.470446    0.617461
     26          6           0       -1.375265   -1.500754    1.686702
     27          1           0       -0.142905   -0.346845    3.030614
     28          1           0       -0.795610    1.838328    2.038429
     29          1           0       -2.408267    1.907130    0.121481
     30          1           0       -2.703777   -2.373951    0.200757
     31          1           0       -1.092084   -2.456717    2.117963
     32          7           0       -3.573764   -0.185570   -1.049103
     33          8           0       -4.013004   -1.256677   -1.461938
     34          8           0       -3.862770    0.919771   -1.502241
 ---------------------------------------------------------------------

 SCF Done:  E(RHF) =  -669.534769229     A.U. after   15 cycles
 E2 =    -0.2092982700D+01 EUMP2 =    -0.67162775192927D+03

 The electronic state is 1-A.
 Alpha  occ. eigenvalues --  -20.60801 -20.60796 -15.85854 -11.31241 -11.27790
 Alpha  occ. eigenvalues --  -11.27785 -11.27555 -11.26837 -11.26818 -11.21955
 Alpha  occ. eigenvalues --  -11.21938 -11.21785 -11.21724 -11.21574 -11.21426
 Alpha  occ. eigenvalues --   -1.59876  -1.39429  -1.19413  -1.08851  -1.08779
 Alpha  occ. eigenvalues --   -1.04822  -1.03930  -0.96391  -0.95638  -0.87402
 Alpha  occ. eigenvalues --   -0.86224  -0.82470  -0.79990  -0.78629  -0.77506
 Alpha  occ. eigenvalues --   -0.72073  -0.71198  -0.70519  -0.65492  -0.65067
 Alpha  occ. eigenvalues --   -0.64815  -0.62184  -0.61323  -0.59764  -0.58001
 Alpha  occ. eigenvalues --   -0.55687  -0.55319  -0.53242  -0.53036  -0.52911
 Alpha  occ. eigenvalues --   -0.52798  -0.50328  -0.48835  -0.48826  -0.48300
 Alpha  occ. eigenvalues --   -0.47024  -0.46164  -0.46095  -0.44829  -0.44181
 Alpha  occ. eigenvalues --   -0.37349  -0.36339
 Alpha virt. eigenvalues --    0.04996   0.11129   0.16435   0.20558   0.22764
 Alpha virt. eigenvalues --    0.23771   0.26204   0.26565   0.26997   0.28340
 Alpha virt. eigenvalues --    0.28540   0.30822   0.31028   0.31476   0.31859

 Mulliken charges:
               1
     1  C   -0.297713
     2  C   -0.299971
     3  C   -0.475299
     4  H    0.145145
     5  H    0.152809
     6  H    0.150627
     7  H    0.153817
     8  H    0.157250
     9  H    0.151739
    10  H    0.161369
    11  C   -0.298207
    12  C   -0.304722
    13  C   -0.476430
    14  H    0.146924
    15  H    0.151580
    16  H    0.151308
    17  H    0.155804
    18  H    0.159329
    19  H    0.153038
    20  H    0.156238
    21  C   -0.171139
    22  C   -0.216798
    23  C   -0.170397
    24  C    0.158648
    25  C   -0.170831
    26  C   -0.217754
    27  H    0.225643
    28  H    0.225140
    29  H    0.275747
    30  H    0.275819
    31  H    0.223753
    32  N    0.487981
    33  O   -0.460217
    34  O   -0.460230
 Sum of Mulliken charges =  -0.00000

 Dipole moment (field-independent basis, Debye):
    X=              3.3265    Y=             -0.1944    Z=              3.9212  Tot=              5.1458
 Quadrupole moment (field-independent basis, Debye-Ang):
   XX=           -113.1717   YY=            -91.0583   ZZ=            -93.6886
   XY=              0.0143   XZ=            -10.5078   YZ=             -1.2875

 Normal termination of Gaussian 16 at Thu May  6 13:38:54 2021.
