 Gaussian 16, Revision A.03,
 Gaussian 16:  EM64L-G16RevA.03 25-Dec-2016

 -------------
 #p 6-31g* mp2
 -------------

 ------------------------------------------------------
 Input file generated by CHIRIPA (05-May-2021 14:55:25)
 ------------------------------------------------------
 Symbolic Z-matrix:
 Charge =  0 Multiplicity = 1

                         Standard orientation:
 ---------------------------------------------------------------------
 Center     Atomic      Atomic             Coordinates (Angstroms)
 Number     Number       Type             X           Y           Z
 ---------------------------------------------------------------------
      1          6           0        0.978265   -0.824709    1.923864
      2          6           0        0.750202   -1.154906    0.583910
      3          6           0        1.704277   -0.855999   -0.393302
      4          6           0        2.880535   -0.223636    0.006479
      5          6           0        3.136939    0.118074    1.333423
      6          6           0        2.168806   -0.190391    2.293692
      7          1           0        0.231656   -1.060620    2.676406
      8          1           0       -0.173472   -1.647560    0.293801
      9          1           0        1.553465   -1.100397   -1.437784
     10          1           0        4.067358    0.608809    1.592103
     11          1           0        2.348622    0.067221    3.333571
     12          7           0        3.898012    0.097863   -1.019084
     13          8           0        4.926145    0.655284   -0.641114
     14          8           0        3.648112   -0.213655   -2.181471
     15          6           0       -3.950914   -0.220808   -0.069726
     16          6           0       -3.499687   -1.559605   -0.654536
     17          6           0       -4.467190   -2.699934   -0.336126
     18          1           0       -4.056645   -0.320582    1.019222
     19          1           0       -4.948672    0.024017   -0.459515
     20          1           0       -2.502491   -1.801163   -0.264839
     21          1           0       -3.394833   -1.456580   -1.742197
     22          1           0       -5.462064   -2.484979   -0.739388
     23          1           0       -4.564651   -2.831519    0.746365
     24          1           0       -4.125322   -3.647666   -0.763669
     25          6           0       -2.993963    0.928963   -0.379562
     26          6           0       -3.445189    2.267761    0.205246
     27          6           0       -2.477687    3.408090   -0.113163
     28          1           0       -1.996205    0.684139    0.010226
     29          1           0       -2.888230    1.028737   -1.468512
     30          1           0       -3.550044    2.164736    1.292908
     31          1           0       -4.442386    2.509318   -0.184450
     32          1           0       -2.380224    3.539674   -1.195655
     33          1           0       -1.482812    3.193135    0.290098
     34          1           0       -2.819554    4.355821    0.314379
 ---------------------------------------------------------------------

 SCF Done:  E(RHF) =  -669.535569832     A.U. after   15 cycles
 E2 =    -0.2091858401D+01 EUMP2 =    -0.67162742823261D+03

 The electronic state is 1-A.
 Alpha  occ. eigenvalues --  -20.60772 -20.60766 -15.85826 -11.31207 -11.27784
 Alpha  occ. eigenvalues --  -11.27777 -11.27540 -11.26799 -11.26780 -11.22540
 Alpha  occ. eigenvalues --  -11.22102 -11.22065 -11.21936 -11.21821 -11.21386
 Alpha  occ. eigenvalues --   -1.59847  -1.39399  -1.19387  -1.09097  -1.08778
 Alpha  occ. eigenvalues --   -1.04790  -1.04155  -0.96569  -0.95609  -0.87586
 Alpha  occ. eigenvalues --   -0.86191  -0.82441  -0.80249  -0.78898  -0.77479
 Alpha  occ. eigenvalues --   -0.72044  -0.71169  -0.70494  -0.65793  -0.65037
 Alpha  occ. eigenvalues --   -0.64763  -0.62159  -0.61536  -0.59953  -0.58185
 Alpha  occ. eigenvalues --   -0.55851  -0.55297  -0.53281  -0.53132  -0.52981
 Alpha  occ. eigenvalues --   -0.52880  -0.50514  -0.48816  -0.48797  -0.48532
 Alpha  occ. eigenvalues --   -0.47294  -0.46413  -0.46338  -0.44801  -0.44405
 Alpha  occ. eigenvalues --   -0.37365  -0.36377
 Alpha virt. eigenvalues --    0.05054   0.11146   0.16508   0.19545   0.22749
 Alpha virt. eigenvalues --    0.23684   0.24925   0.26379   0.27426   0.28258
 Alpha virt. eigenvalues --    0.28981   0.29924   0.31136   0.31339   0.32064

 Mulliken charges:
               1
     1  C   -0.174389
     2  C   -0.224835
     3  C   -0.173603
     4  C    0.158775
     5  C   -0.170814
     6  C   -0.218609
     7  H    0.225835
     8  H    0.235935
     9  H    0.276714
    10  H    0.275774
    11  H    0.223524
    12  N    0.488091
    13  O   -0.460471
    14  O   -0.460145
    15  C   -0.298185
    16  C   -0.304467
    17  C   -0.475413
    18  H    0.147717
    19  H    0.153357
    20  H    0.142306
    21  H    0.156356
    22  H    0.159243
    23  H    0.154606
    24  H    0.161628
    25  C   -0.302339
    26  C   -0.299637
    27  C   -0.476428
    28  H    0.148366
    29  H    0.152232
    30  H    0.150181
    31  H    0.153440
    32  H    0.157497
    33  H    0.156409
    34  H    0.161348
 Sum of Mulliken charges =  -0.00000

 Dipole moment (field-independent basis, Debye):
    X=             -3.6857    Y=             -1.0777    Z=              3.5572  Tot=              5.2345
 Quadrupole moment (field-independent basis, Debye-Ang):
   XX=           -113.6778   YY=            -94.8055   ZZ=            -91.7287
   XY=             -1.7697   XZ=             13.6261   YZ=              0.7683

 Normal termination of Gaussian 16 at Thu May  6 12:45:05 2021.
