 Gaussian 16, Revision A.03,
 Gaussian 16:  EM64L-G16RevA.03 25-Dec-2016

 -------------
 #p 6-31g* mp2
 -------------

 ------------------------------------------------------
 Input file generated by CHIRIPA (05-May-2021 14:53:17)
 ------------------------------------------------------
 Symbolic Z-matrix:
 Charge =  0 Multiplicity = 1

                         Standard orientation:
 ---------------------------------------------------------------------
 Center     Atomic      Atomic             Coordinates (Angstroms)
 Number     Number       Type             X           Y           Z
 ---------------------------------------------------------------------
      1          6           0       -2.377011    1.480911   -0.166225
      2          6           0       -1.033268    1.531196   -0.894107
      3          6           0       -0.499991    2.955325   -1.053060
      4          1           0       -3.108123    2.088396   -0.717027
      5          1           0       -2.267476    1.945041    0.823714
      6          1           0       -1.144966    1.065867   -1.881836
      7          1           0       -0.305321    0.923365   -0.341612
      8          1           0       -0.360233    3.425820   -0.074437
      9          1           0       -1.204648    3.569131   -1.623412
     10          1           0        0.461391    2.967986   -1.575980
     11          6           0       -2.923098    0.063956    0.000374
     12          6           0       -4.266840    0.013671    0.728256
     13          6           0       -4.800118   -1.410458    0.887208
     14          1           0       -3.032633   -0.400174   -0.989566
     15          1           0       -2.191986   -0.543529    0.551176
     16          1           0       -4.994788    0.621501    0.175761
     17          1           0       -4.155143    0.479000    1.715985
     18          1           0       -4.095461   -2.024264    1.457561
     19          1           0       -4.939876   -1.880953   -0.091415
     20          1           0       -5.761499   -1.423119    1.410129
     21          6           0        3.293999    0.822956    1.748218
     22          6           0        3.564120    0.964175    0.383077
     23          6           0        2.892158    0.179138   -0.558588
     24          6           0        1.952057   -0.741365   -0.097962
     25          6           0        1.660862   -0.905431    1.255395
     26          6           0        2.344906   -0.109752    2.179261
     27          1           0        3.820690    1.436924    2.472813
     28          1           0        4.300690    1.687716    0.045441
     29          1           0        3.081804    0.267849   -1.621406
     30          1           0        0.921247   -1.635247    1.561593
     31          1           0        2.133085   -0.221587    3.238822
     32          7           0        1.234286   -1.578081   -1.085439
     33          8           0        0.410586   -2.381823   -0.653984
     34          8           0        1.508987   -1.414312   -2.272181
 ---------------------------------------------------------------------

 SCF Done:  E(RHF) =  -669.535087691     A.U. after   15 cycles
 E2 =    -0.2094171967D+01 EUMP2 =    -0.67162925965746D+03

 The electronic state is 1-A.
 Alpha  occ. eigenvalues --  -20.60843 -20.60836 -15.85868 -11.31235 -11.27817
 Alpha  occ. eigenvalues --  -11.27810 -11.27564 -11.26860 -11.26847 -11.21259
 Alpha  occ. eigenvalues --  -11.21218 -11.21057 -11.20949 -11.20844 -11.20641
 Alpha  occ. eigenvalues --   -1.59897  -1.39452  -1.19441  -1.08830  -1.08055
 Alpha  occ. eigenvalues --   -1.04839  -1.03203  -0.95656  -0.95649  -0.86670
 Alpha  occ. eigenvalues --   -0.86234  -0.82489  -0.79288  -0.77861  -0.77527
 Alpha  occ. eigenvalues --   -0.72097  -0.71212  -0.70534  -0.65086  -0.64840
 Alpha  occ. eigenvalues --   -0.64700  -0.62184  -0.60627  -0.59037  -0.57266
 Alpha  occ. eigenvalues --   -0.55333  -0.54952  -0.53190  -0.52928  -0.52362
 Alpha  occ. eigenvalues --   -0.52067  -0.49589  -0.48861  -0.48856  -0.47587
 Alpha  occ. eigenvalues --   -0.46307  -0.45443  -0.45318  -0.44765  -0.43441
 Alpha  occ. eigenvalues --   -0.37330  -0.36440
 Alpha virt. eigenvalues --    0.04973   0.11124   0.16465   0.21230   0.23128
 Alpha virt. eigenvalues --    0.24499   0.26347   0.27334   0.27487   0.28277
 Alpha virt. eigenvalues --    0.28467   0.31046   0.31466   0.31796   0.32258

 Mulliken charges:
               1
     1  C   -0.297398
     2  C   -0.307560
     3  C   -0.473424
     4  H    0.148960
     5  H    0.144819
     6  H    0.161065
     7  H    0.151558
     8  H    0.151526
     9  H    0.155665
    10  H    0.156215
    11  C   -0.299131
    12  C   -0.299760
    13  C   -0.474861
    14  H    0.156922
    15  H    0.151095
    16  H    0.150869
    17  H    0.147672
    18  H    0.155287
    19  H    0.158510
    20  H    0.157535
    21  C   -0.171277
    22  C   -0.216862
    23  C   -0.171429
    24  C    0.156367
    25  C   -0.174170
    26  C   -0.216656
    27  H    0.225967
    28  H    0.223984
    29  H    0.275788
    30  H    0.275604
    31  H    0.223778
    32  N    0.493630
    33  O   -0.460199
    34  O   -0.460090
 Sum of Mulliken charges =  -0.00000

 Dipole moment (field-independent basis, Debye):
    X=              2.6002    Y=              2.8253    Z=              3.3856  Tot=              5.1191
 Quadrupole moment (field-independent basis, Debye-Ang):
   XX=            -84.2522   YY=           -100.0034   ZZ=            -92.1387
   XY=              5.0147   XZ=              5.4102   YZ=             -4.5907

 Normal termination of Gaussian 16 at Thu May  6 07:33:40 2021.
