 Gaussian 16, Revision A.03,
 Gaussian 16:  EM64L-G16RevA.03 25-Dec-2016

 -------------
 #p 6-31g* mp2
 -------------

 ------------------------------------------------------
 Input file generated by CHIRIPA (05-May-2021 14:53:14)
 ------------------------------------------------------
 Symbolic Z-matrix:
 Charge =  0 Multiplicity = 1

                         Standard orientation:
 ---------------------------------------------------------------------
 Center     Atomic      Atomic             Coordinates (Angstroms)
 Number     Number       Type             X           Y           Z
 ---------------------------------------------------------------------
      1          6           0       -3.348999    0.412439    0.043073
      2          6           0       -3.357781   -1.050557   -0.401393
      3          6           0       -4.622644   -1.792391    0.031732
      4          1           0       -3.445929    0.457437    1.136473
      5          1           0       -4.232072    0.919236   -0.370127
      6          1           0       -2.474222   -1.554100    0.011382
      7          1           0       -3.260625   -1.092083   -1.493846
      8          1           0       -5.512746   -1.316018   -0.391810
      9          1           0       -4.721874   -1.780660    1.121969
     10          1           0       -4.607983   -2.836415   -0.296382
     11          6           0       -2.090927    1.167340   -0.382494
     12          6           0       -2.082145    2.630337    0.061972
     13          6           0       -0.817282    3.372171   -0.371154
     14          1           0       -1.207854    0.660544    0.030705
     15          1           0       -1.993996    1.122343   -1.475895
     16          1           0       -2.179300    2.671863    1.154424
     17          1           0       -2.965704    3.133880   -0.350803
     18          1           0       -0.718051    3.360440   -1.461391
     19          1           0        0.072820    2.895798    0.052389
     20          1           0       -0.831943    4.416195   -0.043040
     21          6           0        0.714995   -2.707784    0.215859
     22          6           0        0.392305   -1.613170    1.024692
     23          6           0        1.166478   -0.449655    0.986796
     24          6           0        2.261282   -0.414982    0.124536
     25          6           0        2.608369   -1.489008   -0.693564
     26          6           0        1.820049   -2.642326   -0.639180
     27          1           0        0.108103   -3.607670    0.251701
     28          1           0       -0.465322   -1.661181    1.689685
     29          1           0        0.939237    0.412376    1.602168
     30          1           0        3.469326   -1.411379   -1.346363
     31          1           0        2.073019   -3.490886   -1.268463
     32          7           0        3.088353    0.811381    0.075689
     33          8           0        4.047785    0.816796   -0.692489
     34          8           0        2.761519    1.743970    0.806508
 ---------------------------------------------------------------------

 SCF Done:  E(RHF) =  -669.534486166     A.U. after   15 cycles
 E2 =    -0.2095311438D+01 EUMP2 =    -0.67162979760380D+03

 The electronic state is 1-A.
 Alpha  occ. eigenvalues --  -20.60961 -20.60956 -15.85983 -11.31330 -11.27894
 Alpha  occ. eigenvalues --  -11.27882 -11.27622 -11.26898 -11.26886 -11.22110
 Alpha  occ. eigenvalues --  -11.21728 -11.21615 -11.21516 -11.21410 -11.20598
 Alpha  occ. eigenvalues --   -1.60011  -1.39569  -1.19510  -1.08902  -1.08661
 Alpha  occ. eigenvalues --   -1.04919  -1.03694  -0.96111  -0.95739  -0.87124
 Alpha  occ. eigenvalues --   -0.86307  -0.82578  -0.79786  -0.78470  -0.77604
 Alpha  occ. eigenvalues --   -0.72206  -0.71319  -0.70609  -0.65396  -0.65161
 Alpha  occ. eigenvalues --   -0.64902  -0.62239  -0.61100  -0.59536  -0.57716
 Alpha  occ. eigenvalues --   -0.55421  -0.55396  -0.53307  -0.53008  -0.52775
 Alpha  occ. eigenvalues --   -0.52495  -0.50076  -0.48969  -0.48953  -0.48076
 Alpha  occ. eigenvalues --   -0.46861  -0.45986  -0.45924  -0.44882  -0.43936
 Alpha  occ. eigenvalues --   -0.37453  -0.36361
 Alpha virt. eigenvalues --    0.04848   0.10930   0.16249   0.19903   0.23220
 Alpha virt. eigenvalues --    0.23511   0.25992   0.27021   0.27462   0.28076
 Alpha virt. eigenvalues --    0.29779   0.30205   0.31266   0.31732   0.31770

 Mulliken charges:
               1
     1  C   -0.297938
     2  C   -0.301871
     3  C   -0.475638
     4  H    0.145268
     5  H    0.152048
     6  H    0.144642
     7  H    0.154444
     8  H    0.158548
     9  H    0.153335
    10  H    0.158091
    11  C   -0.305622
    12  C   -0.300045
    13  C   -0.482875
    14  H    0.152293
    15  H    0.150859
    16  H    0.148101
    17  H    0.151298
    18  H    0.154175
    19  H    0.168179
    20  H    0.161665
    21  C   -0.170192
    22  C   -0.214920
    23  C   -0.173705
    24  C    0.159178
    25  C   -0.170779
    26  C   -0.218285
    27  H    0.226821
    28  H    0.225303
    29  H    0.277054
    30  H    0.276098
    31  H    0.224189
    32  N    0.488616
    33  O   -0.458284
    34  O   -0.460053
 Sum of Mulliken charges =  -0.00000

 Dipole moment (field-independent basis, Debye):
    X=             -2.7002    Y=             -4.3140    Z=              0.1088  Tot=              5.0905
 Quadrupole moment (field-independent basis, Debye-Ang):
   XX=           -107.3056   YY=            -91.0292   ZZ=            -92.0958
   XY=            -10.7577   XZ=             -1.5823   YZ=              1.0252

 Normal termination of Gaussian 16 at Thu May  6 15:26:42 2021.
