 Gaussian 16, Revision A.03,
 Gaussian 16:  EM64L-G16RevA.03 25-Dec-2016

 -------------
 #p 6-31g* mp2
 -------------

 ------------------------------------------------------
 Input file generated by CHIRIPA (05-May-2021 14:55:24)
 ------------------------------------------------------
 Symbolic Z-matrix:
 Charge =  0 Multiplicity = 1

                         Standard orientation:
 ---------------------------------------------------------------------
 Center     Atomic      Atomic             Coordinates (Angstroms)
 Number     Number       Type             X           Y           Z
 ---------------------------------------------------------------------
      1          6           0       -0.046152   -2.643479    0.575111
      2          6           0       -0.506049   -1.786998    1.580823
      3          6           0       -1.453766   -0.799929    1.294334
      4          6           0       -1.922215   -0.696957   -0.014575
      5          6           0       -1.483482   -1.535237   -1.038337
      6          6           0       -0.535474   -2.515091   -0.728960
      7          1           0        0.690170   -3.407455    0.806553
      8          1           0       -0.127800   -1.884398    2.594473
      9          1           0       -1.826986   -0.123588    2.053734
     10          1           0       -1.879129   -1.413834   -2.039408
     11          1           0       -0.180113   -3.178853   -1.512020
     12          7           0       -2.925674    0.344190   -0.329983
     13          8           0       -3.322684    0.414386   -1.491057
     14          8           0       -3.296175    1.070331    0.589846
     15          6           0        2.872153    0.832854   -0.389958
     16          6           0        3.306819   -0.527221    0.157076
     17          6           0        4.555356   -1.072062   -0.537258
     18          1           0        2.684230    0.744004   -1.468724
     19          1           0        3.698527    1.547814   -0.274482
     20          1           0        2.479387   -1.239047    0.041865
     21          1           0        3.493545   -0.435165    1.234700
     22          1           0        5.397507   -0.383956   -0.411197
     23          1           0        4.377587   -1.192405   -1.610810
     24          1           0        4.848471   -2.045045   -0.130749
     25          6           0        1.625337    1.390634    0.294193
     26          6           0        1.190672    2.750709   -0.252841
     27          6           0       -0.057865    3.295551    0.441492
     28          1           0        0.798964    0.675675    0.178717
     29          1           0        1.813261    1.479485    1.372958
     30          1           0        1.003947    2.658654   -1.330466
     31          1           0        2.018104    3.462537   -0.137630
     32          1           0        0.119904    3.415894    1.515045
     33          1           0       -0.900016    2.607444    0.315432
     34          1           0       -0.350979    4.268533    0.034983
 ---------------------------------------------------------------------

 SCF Done:  E(RHF) =  -669.534582207     A.U. after   15 cycles
 E2 =    -0.2096428385D+01 EUMP2 =    -0.67163101059212D+03

 The electronic state is 1-A.
 Alpha  occ. eigenvalues --  -20.61005 -20.60991 -15.86012 -11.31350 -11.27944
 Alpha  occ. eigenvalues --  -11.27890 -11.27660 -11.26951 -11.26889 -11.21857
 Alpha  occ. eigenvalues --  -11.21470 -11.21447 -11.21321 -11.21215 -11.20525
 Alpha  occ. eigenvalues --   -1.60059  -1.39612  -1.19554  -1.08948  -1.08436
 Alpha  occ. eigenvalues --   -1.04932  -1.03513  -0.95941  -0.95778  -0.86954
 Alpha  occ. eigenvalues --   -0.86327  -0.82600  -0.79605  -0.78248  -0.77651
 Alpha  occ. eigenvalues --   -0.72239  -0.71394  -0.70640  -0.65188  -0.65101
 Alpha  occ. eigenvalues --   -0.64917  -0.62267  -0.60920  -0.59370  -0.57556
 Alpha  occ. eigenvalues --   -0.55430  -0.55266  -0.53430  -0.53010  -0.52607
 Alpha  occ. eigenvalues --   -0.52327  -0.49909  -0.49008  -0.48996  -0.47931
 Alpha  occ. eigenvalues --   -0.46698  -0.45765  -0.45604  -0.44840  -0.43744
 Alpha  occ. eigenvalues --   -0.37452  -0.36487
 Alpha virt. eigenvalues --    0.04835   0.11051   0.16229   0.21074   0.22923
 Alpha virt. eigenvalues --    0.24110   0.26466   0.27036   0.27557   0.27863
 Alpha virt. eigenvalues --    0.28257   0.30937   0.31386   0.31586   0.32181

 Mulliken charges:
               1
     1  C   -0.170689
     2  C   -0.213570
     3  C   -0.174316
     4  C    0.158587
     5  C   -0.171974
     6  C   -0.218439
     7  H    0.227713
     8  H    0.225011
     9  H    0.276955
    10  H    0.276292
    11  H    0.224723
    12  N    0.487450
    13  O   -0.458019
    14  O   -0.456902
    15  C   -0.296186
    16  C   -0.304820
    17  C   -0.475172
    18  H    0.149034
    19  H    0.149653
    20  H    0.151717
    21  H    0.148398
    22  H    0.157391
    23  H    0.154649
    24  H    0.155832
    25  C   -0.305117
    26  C   -0.300612
    27  C   -0.479643
    28  H    0.158570
    29  H    0.144432
    30  H    0.152233
    31  H    0.149970
    32  H    0.150889
    33  H    0.163108
    34  H    0.162853
 Sum of Mulliken charges =  -0.00000

 Dipole moment (field-independent basis, Debye):
    X=              3.2808    Y=             -3.7256    Z=              1.1084  Tot=              5.0865
 Quadrupole moment (field-independent basis, Debye-Ang):
   XX=           -110.0058   YY=            -89.7812   ZZ=            -89.9302
   XY=              5.3001   XZ=             -1.4082   YZ=              0.8914

 Normal termination of Gaussian 16 at Thu May  6 11:03:40 2021.
