 Gaussian 16, Revision A.03,
 Gaussian 16:  EM64L-G16RevA.03 25-Dec-2016

 -------------
 #p 6-31g* mp2
 -------------

 ------------------------------------------------------
 Input file generated by CHIRIPA (05-May-2021 14:55:20)
 ------------------------------------------------------
 Symbolic Z-matrix:
 Charge =  0 Multiplicity = 1

                         Standard orientation:
 ---------------------------------------------------------------------
 Center     Atomic      Atomic             Coordinates (Angstroms)
 Number     Number       Type             X           Y           Z
 ---------------------------------------------------------------------
      1          6           0       -1.443618    1.897361    1.369438
      2          6           0       -1.821504    1.987331    0.025701
      3          6           0       -2.359809    0.879758   -0.636157
      4          6           0       -2.506927   -0.307515    0.079405
      5          6           0       -2.139875   -0.428607    1.418770
      6          6           0       -1.603728    0.691804    2.060466
      7          1           0       -1.026287    2.762737    1.875754
      8          1           0       -1.698308    2.922301   -0.513464
      9          1           0       -2.660690    0.921658   -1.675933
     10          1           0       -2.274771   -1.374132    1.929852
     11          1           0       -1.311130    0.619023    3.104082
     12          7           0       -3.075665   -1.486849   -0.610602
     13          8           0       -3.195071   -2.521440    0.042085
     14          8           0       -3.391267   -1.354289   -1.791051
     15          6           0        3.092395   -0.613234   -0.153600
     16          6           0        4.474905   -1.177100    0.176107
     17          6           0        4.465705   -2.694903    0.360458
     18          1           0        2.392635   -0.882255    0.649461
     19          1           0        2.717319   -1.092388   -1.068546
     20          1           0        4.847855   -0.696019    1.089390
     21          1           0        5.171501   -0.906543   -0.627739
     22          1           0        4.118260   -3.191604   -0.551228
     23          1           0        3.792774   -2.979884    1.175658
     24          1           0        5.464085   -3.076835    0.595460
     25          6           0        3.085377    0.902890   -0.340803
     26          6           0        1.702867    1.466755   -0.670511
     27          6           0        1.712067    2.984558   -0.854862
     28          1           0        3.460453    1.382043    0.574142
     29          1           0        3.785138    1.171910   -1.143865
     30          1           0        1.006271    1.196198    0.133335
     31          1           0        1.329917    0.985675   -1.583794
     32          1           0        2.384998    3.269540   -1.670062
     33          1           0        2.059513    3.481259    0.056824
     34          1           0        0.713688    3.366490   -1.089863
 ---------------------------------------------------------------------

 SCF Done:  E(RHF) =  -669.533899182     A.U. after   15 cycles
 E2 =    -0.2094183066D+01 EUMP2 =    -0.67162808224802D+03

 The electronic state is 1-A.
 Alpha  occ. eigenvalues --  -20.60808 -20.60802 -15.85862 -11.31255 -11.27839
 Alpha  occ. eigenvalues --  -11.27804 -11.27542 -11.26861 -11.26798 -11.21817
 Alpha  occ. eigenvalues --  -11.21745 -11.21725 -11.21643 -11.21538 -11.21142
 Alpha  occ. eigenvalues --   -1.59882  -1.39435  -1.19438  -1.08854  -1.08646
 Alpha  occ. eigenvalues --   -1.04844  -1.03803  -0.96293  -0.95651  -0.87306
 Alpha  occ. eigenvalues --   -0.86234  -0.82483  -0.79864  -0.78463  -0.77527
 Alpha  occ. eigenvalues --   -0.72080  -0.71204  -0.70536  -0.65320  -0.65079
 Alpha  occ. eigenvalues --   -0.64871  -0.62213  -0.61230  -0.59697  -0.57913
 Alpha  occ. eigenvalues --   -0.55595  -0.55327  -0.53250  -0.53114  -0.52812
 Alpha  occ. eigenvalues --   -0.52618  -0.50207  -0.48842  -0.48833  -0.48148
 Alpha  occ. eigenvalues --   -0.46870  -0.45990  -0.45920  -0.44835  -0.44058
 Alpha  occ. eigenvalues --   -0.37318  -0.36412
 Alpha virt. eigenvalues --    0.04988   0.11130   0.16408   0.20398   0.22838
 Alpha virt. eigenvalues --    0.24158   0.26038   0.26474   0.27220   0.27878
 Alpha virt. eigenvalues --    0.28960   0.29662   0.31166   0.31770   0.32061

 Mulliken charges:
               1
     1  C   -0.174545
     2  C   -0.212791
     3  C   -0.170976
     4  C    0.159522
     5  C   -0.170992
     6  C   -0.218213
     7  H    0.226928
     8  H    0.224801
     9  H    0.275819
    10  H    0.275953
    11  H    0.223772
    12  N    0.488064
    13  O   -0.460259
    14  O   -0.460219
    15  C   -0.298287
    16  C   -0.299792
    17  C   -0.475791
    18  H    0.148576
    19  H    0.152457
    20  H    0.150344
    21  H    0.152440
    22  H    0.157427
    23  H    0.154889
    24  H    0.160427
    25  C   -0.297948
    26  C   -0.305436
    27  C   -0.476590
    28  H    0.146497
    29  H    0.149844
    30  H    0.160873
    31  H    0.152946
    32  H    0.159197
    33  H    0.151838
    34  H    0.149224
 Sum of Mulliken charges =  -0.00000

 Dipole moment (field-independent basis, Debye):
    X=              1.9513    Y=              4.0637    Z=              2.4313  Tot=              5.1218
 Quadrupole moment (field-independent basis, Debye-Ang):
   XX=           -105.6781   YY=            -97.8233   ZZ=            -90.0246
   XY=            -11.4698   XZ=             -5.8671   YZ=             -2.5747

 Normal termination of Gaussian 16 at Thu May  6 06:09:31 2021.
