 Gaussian 16, Revision A.03,
 Gaussian 16:  EM64L-G16RevA.03 25-Dec-2016

 -------------
 #p 6-31g* mp2
 -------------

 ------------------------------------------------------
 Input file generated by CHIRIPA (05-May-2021 14:57:27)
 ------------------------------------------------------
 Symbolic Z-matrix:
 Charge =  0 Multiplicity = 1

                         Standard orientation:
 ---------------------------------------------------------------------
 Center     Atomic      Atomic             Coordinates (Angstroms)
 Number     Number       Type             X           Y           Z
 ---------------------------------------------------------------------
      1          6           0       -3.486582    2.679232   -0.108288
      2          6           0       -4.713659    2.008441   -0.137308
      3          6           0       -4.760126    0.611525   -0.105426
      4          6           0       -3.554825   -0.086187   -0.044298
      5          6           0       -2.316524    0.553337   -0.014113
      6          6           0       -2.294033    1.950823   -0.046891
      7          1           0       -3.459797    3.764611   -0.133403
      8          1           0       -5.641392    2.571541   -0.184985
      9          1           0       -5.696206    0.066807   -0.126770
     10          1           0       -1.408413   -0.035297    0.033456
     11          1           0       -1.339613    2.469104   -0.024236
     12          7           0       -3.591327   -1.565340   -0.010071
     13          8           0       -2.515355   -2.156971    0.043747
     14          8           0       -4.695217   -2.105063   -0.037710
     15          6           0        5.011370    1.894576   -0.074289
     16          6           0        5.516601    0.650211   -0.465210
     17          6           0        4.715245   -0.493555   -0.400592
     18          6           0        3.407414   -0.355993    0.061949
     19          6           0        2.875185    0.869847    0.458611
     20          6           0        3.694596    2.000236    0.385563
     21          1           0        5.640895    2.777885   -0.127760
     22          1           0        6.538845    0.565167   -0.822742
     23          1           0        5.080919   -1.469211   -0.696896
     24          1           0        1.852163    0.923153    0.810749
     25          1           0        3.299558    2.965336    0.689821
     26          7           0        2.549498   -1.559765    0.134819
     27          8           0        1.400673   -1.412003    0.545921
     28          8           0        3.042132   -2.628252   -0.220547
 ---------------------------------------------------------------------

 SCF Done:  E(RHF) =  -868.336514358     A.U. after   15 cycles
 E2 =    -0.2600038576D+01 EUMP2 =    -0.87093655293483D+03

 The electronic state is 1-A.
 Alpha  occ. eigenvalues --  -20.60922 -20.60899 -20.60022 -20.59947 -15.85964
 Alpha  occ. eigenvalues --  -15.85046 -11.31483 -11.30658 -11.28142 -11.28016
 Alpha  occ. eigenvalues --  -11.27808 -11.27320 -11.27194 -11.27158 -11.27150
 Alpha  occ. eigenvalues --  -11.27062 -11.26420 -11.26382  -1.59966  -1.59071
 Alpha  occ. eigenvalues --   -1.39523  -1.38608  -1.19661  -1.18890  -1.09018
 Alpha  occ. eigenvalues --   -1.08254  -1.05096  -1.04335  -0.95831  -0.95029
 Alpha  occ. eigenvalues --   -0.86483  -0.85722  -0.82668  -0.81859  -0.77708
 Alpha  occ. eigenvalues --   -0.76837  -0.72166  -0.71298  -0.71244  -0.70770
 Alpha  occ. eigenvalues --   -0.70410  -0.69995  -0.65315  -0.65100  -0.64542
 Alpha  occ. eigenvalues --   -0.64363  -0.62458  -0.61652  -0.55571  -0.54860
 Alpha  occ. eigenvalues --   -0.53402  -0.53194  -0.52657  -0.52435  -0.48922
 Alpha  occ. eigenvalues --   -0.48916  -0.48061  -0.47982  -0.44888  -0.43961
 Alpha  occ. eigenvalues --   -0.37632  -0.36915  -0.36704  -0.35952
 Alpha virt. eigenvalues --    0.04828   0.05690   0.10946   0.11699   0.16281
 Alpha virt. eigenvalues --    0.17103   0.20009   0.21958   0.25376   0.27335
 Alpha virt. eigenvalues --    0.28359   0.29137   0.30986   0.31241   0.32303

 Mulliken charges:
               1
     1  C   -0.170930
     2  C   -0.219419
     3  C   -0.170476
     4  C    0.156860
     5  C   -0.177642
     6  C   -0.219840
     7  H    0.221919
     8  H    0.221422
     9  H    0.274961
    10  H    0.293870
    11  H    0.213982
    12  N    0.486040
    13  O   -0.448128
    14  O   -0.465263
    15  C   -0.170939
    16  C   -0.218013
    17  C   -0.170355
    18  C    0.160087
    19  C   -0.171609
    20  C   -0.217900
    21  H    0.226119
    22  H    0.224920
    23  H    0.277714
    24  H    0.268070
    25  H    0.220777
    26  N    0.490986
    27  O   -0.462350
    28  O   -0.454861
 Sum of Mulliken charges =  -0.00000

 Dipole moment (field-independent basis, Debye):
    X=              3.4425    Y=              9.1181    Z=             -0.3990  Tot=              9.7545
 Quadrupole moment (field-independent basis, Debye-Ang):
   XX=            -77.5914   YY=           -108.3993   ZZ=           -105.9423
   XY=             -7.5897   XZ=             -1.7768   YZ=              1.2524

 Normal termination of Gaussian 16 at Thu May  6 06:50:26 2021.
