 Gaussian 16, Revision A.03,
 Gaussian 16:  EM64L-G16RevA.03 25-Dec-2016

 -------------
 #p 6-31g* mp2
 -------------

 ------------------------------------------------------
 Input file generated by CHIRIPA (05-May-2021 14:53:18)
 ------------------------------------------------------
 Symbolic Z-matrix:
 Charge =  0 Multiplicity = 1

                         Standard orientation:
 ---------------------------------------------------------------------
 Center     Atomic      Atomic             Coordinates (Angstroms)
 Number     Number       Type             X           Y           Z
 ---------------------------------------------------------------------
      1          6           0       -2.905936   -0.459539   -0.489262
      2          6           0       -3.204707   -1.913313   -0.121480
      3          6           0       -2.715487   -2.903183   -1.179126
      4          1           0       -3.375721   -0.228341   -1.455075
      5          1           0       -1.823004   -0.339811   -0.631808
      6          1           0       -4.286611   -2.029949    0.021684
      7          1           0       -2.734317   -2.141021    0.843662
      8          1           0       -1.632886   -2.815996   -1.316879
      9          1           0       -3.194000   -2.704293   -2.143526
     10          1           0       -2.939335   -3.936430   -0.896011
     11          6           0       -3.388996    0.541938    0.558318
     12          6           0       -3.090224    1.995712    0.190536
     13          6           0       -3.579445    2.985582    1.248181
     14          1           0       -4.471927    0.422210    0.700864
     15          1           0       -2.919211    0.310740    1.524131
     16          1           0       -3.560614    2.223419   -0.774606
     17          1           0       -2.008320    2.112348    0.047371
     18          1           0       -3.100931    2.786692    2.212582
     19          1           0       -4.662045    2.898394    1.385934
     20          1           0       -3.355597    4.018828    0.965067
     21          6           0        2.137476   -2.257640    1.117548
     22          6           0        3.152615   -1.393214    1.540373
     23          6           0        3.339919   -0.157676    0.913546
     24          6           0        2.490038    0.182961   -0.137623
     25          6           0        1.469673   -0.656569   -0.581847
     26          6           0        1.300720   -1.887211    0.059654
     27          1           0        1.999102   -3.215533    1.610182
     28          1           0        3.803950   -1.678263    2.361686
     29          1           0        4.117904    0.530698    1.220630
     30          1           0        0.836178   -0.344710   -1.403338
     31          1           0        0.511521   -2.556527   -0.270841
     32          7           0        2.678614    1.488379   -0.808983
     33          8           0        1.916537    1.765090   -1.732731
     34          8           0        3.584926    2.210136   -0.398737
 ---------------------------------------------------------------------

 SCF Done:  E(RHF) =  -669.535417729     A.U. after   15 cycles
 E2 =    -0.2092248215D+01 EUMP2 =    -0.67162766594460D+03

 The electronic state is 1-A.
 Alpha  occ. eigenvalues --  -20.60796 -20.60791 -15.85850 -11.31226 -11.27796
 Alpha  occ. eigenvalues --  -11.27787 -11.27531 -11.26813 -11.26789 -11.22218
 Alpha  occ. eigenvalues --  -11.21950 -11.21817 -11.21594 -11.21528 -11.20991
 Alpha  occ. eigenvalues --   -1.59872  -1.39425  -1.19399  -1.08794  -1.08761
 Alpha  occ. eigenvalues --   -1.04806  -1.03862  -0.96337  -0.95623  -0.87357
 Alpha  occ. eigenvalues --   -0.86198  -0.82460  -0.79946  -0.78520  -0.77500
 Alpha  occ. eigenvalues --   -0.72066  -0.71196  -0.70505  -0.65447  -0.65043
 Alpha  occ. eigenvalues --   -0.64813  -0.62204  -0.61206  -0.59728  -0.57912
 Alpha  occ. eigenvalues --   -0.55682  -0.55290  -0.53135  -0.53040  -0.52960
 Alpha  occ. eigenvalues --   -0.52653  -0.50286  -0.48827  -0.48821  -0.48244
 Alpha  occ. eigenvalues --   -0.46985  -0.46065  -0.45954  -0.44826  -0.44100
 Alpha  occ. eigenvalues --   -0.37377  -0.36393
 Alpha virt. eigenvalues --    0.04993   0.11210   0.16402   0.19117   0.23040
 Alpha virt. eigenvalues --    0.23815   0.25154   0.26558   0.26838   0.28412
 Alpha virt. eigenvalues --    0.29440   0.30094   0.31247   0.31706   0.32099

 Mulliken charges:
               1
     1  C   -0.300461
     2  C   -0.300717
     3  C   -0.478426
     4  H    0.152897
     5  H    0.145993
     6  H    0.155947
     7  H    0.150039
     8  H    0.143958
     9  H    0.161503
    10  H    0.162065
    11  C   -0.298453
    12  C   -0.301282
    13  C   -0.476092
    14  H    0.149866
    15  H    0.149252
    16  H    0.153370
    17  H    0.157759
    18  H    0.154493
    19  H    0.153930
    20  H    0.163604
    21  C   -0.172086
    22  C   -0.218304
    23  C   -0.171048
    24  C    0.158341
    25  C   -0.174757
    26  C   -0.224576
    27  H    0.226443
    28  H    0.223614
    29  H    0.275766
    30  H    0.276860
    31  H    0.233022
    32  N    0.488041
    33  O   -0.460211
    34  O   -0.460349
 Sum of Mulliken charges =  -0.00000

 Dipole moment (field-independent basis, Debye):
    X=             -0.7599    Y=             -4.5136    Z=              2.3734  Tot=              5.1558
 Quadrupole moment (field-independent basis, Debye-Ang):
   XX=            -94.2239   YY=            -97.4599   ZZ=            -94.2504
   XY=            -10.6341   XZ=              9.6109   YZ=              1.0759

 Normal termination of Gaussian 16 at Wed May  5 15:48:12 2021.
