 Gaussian 16, Revision A.03,
 Gaussian 16:  EM64L-G16RevA.03 25-Dec-2016

 -------------
 #p 6-31g* mp2
 -------------

 ------------------------------------------------------
 Input file generated by CHIRIPA (05-May-2021 14:51:11)
 ------------------------------------------------------
 Symbolic Z-matrix:
 Charge =  0 Multiplicity = 1

                         Standard orientation:
 ---------------------------------------------------------------------
 Center     Atomic      Atomic             Coordinates (Angstroms)
 Number     Number       Type             X           Y           Z
 ---------------------------------------------------------------------
      1          6           0       -3.265079   -0.421000    0.142872
      2          6           0       -3.886716   -1.629695   -0.557564
      3          6           0       -3.270906   -2.954919   -0.107726
      4          1           0       -2.183762   -0.408995   -0.050917
      5          1           0       -3.386720   -0.532893    1.229186
      6          1           0       -3.765163   -1.514885   -1.642303
      7          1           0       -4.966709   -1.638717   -0.362243
      8          1           0       -3.404919   -3.095952    0.969655
      9          1           0       -2.196546   -2.971416   -0.317678
     10          1           0       -3.729977   -3.805640   -0.620938
     11          6           0       -3.870263    0.911137   -0.296322
     12          6           0       -3.248626    2.119832    0.404114
     13          6           0       -3.864436    3.445056   -0.045723
     14          1           0       -3.748622    1.023030   -1.382636
     15          1           0       -4.951580    0.899132   -0.102533
     16          1           0       -2.168633    2.128853    0.208794
     17          1           0       -3.370179    2.005021    1.488854
     18          1           0       -4.938796    3.461553    0.164228
     19          1           0       -3.730423    3.586088   -1.123105
     20          1           0       -3.405364    4.295777    0.467489
     21          6           0        2.956359   -0.389001    0.511481
     22          6           0        1.928584   -1.294441   -0.168108
     23          6           0        0.711345   -1.573235    0.714160
     24          1           0        3.282031   -0.855550    1.451276
     25          1           0        2.474877    0.560308    0.784214
     26          1           0        2.412213   -2.241225   -0.440721
     27          1           0        1.605463   -0.825772   -1.106490
     28          1           0        0.203128   -0.639466    0.975679
     29          1           0        1.014462   -2.062961    1.645230
     30          1           0       -0.010539   -2.222370    0.208820
     31          6           0        4.178983   -0.101136   -0.358032
     32          6           0        5.206758    0.804304    0.321558
     33          6           0        6.423997    1.083099   -0.560711
     34          1           0        4.660465   -1.050445   -0.630764
     35          1           0        3.853311    0.365413   -1.297826
     36          1           0        5.529879    0.335635    1.259938
     37          1           0        4.723129    1.751088    0.594171
     38          1           0        6.120880    1.572824   -1.491780
     39          1           0        6.932213    0.149329   -0.822229
     40          1           0        7.145881    1.732233   -0.055371
 ---------------------------------------------------------------------

 SCF Done:  E(RHF) =  -470.732783215     A.U. after   11 cycles
 E2 =    -0.1583187398D+01 EUMP2 =    -0.47231597061294D+03

 The electronic state is 1-A.
 Alpha  occ. eigenvalues --  -11.21628 -11.21614 -11.21604 -11.21563 -11.21424
 Alpha  occ. eigenvalues --  -11.21365 -11.21358 -11.21272 -11.21082 -11.21074
 Alpha  occ. eigenvalues --  -11.21062 -11.21030  -1.08453  -1.08394  -1.03562
 Alpha  occ. eigenvalues --   -1.03498  -0.96003  -0.95954  -0.87023  -0.86971
 Alpha  occ. eigenvalues --   -0.79668  -0.79527  -0.78280  -0.78183  -0.65116
 Alpha  occ. eigenvalues --   -0.65005  -0.60989  -0.60902  -0.59471  -0.59231
 Alpha  occ. eigenvalues --   -0.57708  -0.57479  -0.55355  -0.55190  -0.52768
 Alpha  occ. eigenvalues --   -0.52649  -0.52497  -0.52265  -0.50011  -0.49840
 Alpha  occ. eigenvalues --   -0.47970  -0.47832  -0.46707  -0.46579  -0.45842
 Alpha  occ. eigenvalues --   -0.45770  -0.45701  -0.45559  -0.43771  -0.43723
 Alpha virt. eigenvalues --    0.21394   0.23147   0.23525   0.24474   0.26119
 Alpha virt. eigenvalues --    0.26539   0.26959   0.27079   0.27734   0.29546
 Alpha virt. eigenvalues --    0.30158   0.31523   0.31772   0.31829   0.32139

 Mulliken charges:
               1
     1  C   -0.304065
     2  C   -0.299416
     3  C   -0.480350
     4  H    0.157329
     5  H    0.149224
     6  H    0.151343
     7  H    0.151734
     8  H    0.155553
     9  H    0.159327
    10  H    0.160013
    11  C   -0.298023
    12  C   -0.299576
    13  C   -0.475627
    14  H    0.149123
    15  H    0.149509
    16  H    0.150888
    17  H    0.152048
    18  H    0.155342
    19  H    0.155107
    20  H    0.160101
    21  C   -0.298727
    22  C   -0.299565
    23  C   -0.483893
    24  H    0.149886
    25  H    0.149574
    26  H    0.152094
    27  H    0.151282
    28  H    0.157837
    29  H    0.155707
    30  H    0.166038
    31  C   -0.298217
    32  C   -0.299658
    33  C   -0.475711
    34  H    0.149602
    35  H    0.149526
    36  H    0.152016
    37  H    0.151946
    38  H    0.155157
    39  H    0.155212
    40  H    0.160313
 Sum of Mulliken charges =  -0.00000

 Dipole moment (field-independent basis, Debye):
    X=              0.0210    Y=             -0.0116    Z=              0.0176  Tot=              0.0298
 Quadrupole moment (field-independent basis, Debye-Ang):
   XX=            -85.1876   YY=            -85.2955   ZZ=            -84.3969
   XY=             -0.2780   XZ=              0.0505   YZ=             -0.0266

 Normal termination of Gaussian 16 at Wed May  5 18:15:47 2021.
