 Gaussian 16, Revision A.03,
 Gaussian 16:  EM64L-G16RevA.03 25-Dec-2016

 -------------
 #p 6-31g* mp2
 -------------

 ------------------------------------------------------
 Input file generated by CHIRIPA (05-May-2021 14:55:19)
 ------------------------------------------------------
 Symbolic Z-matrix:
 Charge =  0 Multiplicity = 1

                         Standard orientation:
 ---------------------------------------------------------------------
 Center     Atomic      Atomic             Coordinates (Angstroms)
 Number     Number       Type             X           Y           Z
 ---------------------------------------------------------------------
      1          6           0       -4.329747    1.148306   -0.334644
      2          6           0       -3.416396    1.423674    0.688335
      3          6           0       -2.365308    0.542173    0.957996
      4          6           0       -2.257003   -0.610538    0.181582
      5          6           0       -3.150986   -0.912749   -0.844455
      6          6           0       -4.194365   -0.016972   -1.096431
      7          1           0       -5.143263    1.838622   -0.537253
      8          1           0       -3.519077    2.327878    1.281560
      9          1           0       -1.644096    0.730775    1.743935
     10          1           0       -3.022726   -1.822178   -1.418829
     11          1           0       -4.902204   -0.233402   -1.891520
     12          7           0       -1.148344   -1.551301    0.457699
     13          8           0       -1.074795   -2.560024   -0.240660
     14          8           0       -0.373917   -1.262134    1.367250
     15          6           0        3.244308    1.331110   -0.079050
     16          6           0        1.993356    2.181677   -0.301851
     17          6           0        2.252322    3.676042   -0.107936
     18          1           0        3.625643    1.509977    0.935611
     19          1           0        4.031378    1.660660   -0.771373
     20          1           0        1.208426    1.849703    0.389736
     21          1           0        1.614845    2.000620   -1.316032
     22          1           0        3.016985    4.028495   -0.807700
     23          1           0        2.608255    3.876720    0.907761
     24          1           0        1.344784    4.265373   -0.272028
     25          6           0        3.001384   -0.165058   -0.269302
     26          6           0        4.252336   -1.015625   -0.046501
     27          6           0        3.993370   -2.509990   -0.240416
     28          1           0        2.214313   -0.494608    0.423021
     29          1           0        2.620050   -0.343925   -1.283963
     30          1           0        4.630847   -0.834567    0.967680
     31          1           0        5.037266   -0.683650   -0.738089
     32          1           0        3.637437   -2.710668   -1.256113
     33          1           0        3.228708   -2.862443    0.459348
     34          1           0        4.900908   -3.099320   -0.076324
 ---------------------------------------------------------------------

 SCF Done:  E(RHF) =  -669.536604723     A.U. after   15 cycles
 E2 =    -0.2091782720D+01 EUMP2 =    -0.67162838744325D+03

 The electronic state is 1-A.
 Alpha  occ. eigenvalues --  -20.60995 -20.60990 -15.86008 -11.31303 -11.27865
 Alpha  occ. eigenvalues --  -11.27857 -11.27593 -11.26865 -11.26855 -11.21175
 Alpha  occ. eigenvalues --  -11.20835 -11.20672 -11.20575 -11.20187 -11.19870
 Alpha  occ. eigenvalues --   -1.60039  -1.39599  -1.19466  -1.08876  -1.07609
 Alpha  occ. eigenvalues --   -1.04860  -1.02768  -0.95724  -0.95200  -0.86264
 Alpha  occ. eigenvalues --   -0.86217  -0.82561  -0.78878  -0.77624  -0.77343
 Alpha  occ. eigenvalues --   -0.72236  -0.71339  -0.70578  -0.65126  -0.64864
 Alpha  occ. eigenvalues --   -0.64235  -0.62210  -0.60167  -0.58631  -0.56802
 Alpha  occ. eigenvalues --   -0.55367  -0.54476  -0.53188  -0.52953  -0.51959
 Alpha  occ. eigenvalues --   -0.51611  -0.49167  -0.48993  -0.48970  -0.47176
 Alpha  occ. eigenvalues --   -0.45921  -0.45338  -0.44908  -0.44382  -0.42988
 Alpha  occ. eigenvalues --   -0.37439  -0.36455
 Alpha virt. eigenvalues --    0.04863   0.11158   0.16349   0.21173   0.23541
 Alpha virt. eigenvalues --    0.25049   0.26554   0.27495   0.27785   0.28754
 Alpha virt. eigenvalues --    0.28935   0.30982   0.31778   0.32275   0.32348

 Mulliken charges:
               1
     1  C   -0.170513
     2  C   -0.218438
     3  C   -0.170551
     4  C    0.158992
     5  C   -0.170742
     6  C   -0.218489
     7  H    0.226066
     8  H    0.223994
     9  H    0.275708
    10  H    0.275840
    11  H    0.223858
    12  N    0.489042
    13  O   -0.457938
    14  O   -0.461033
    15  C   -0.296690
    16  C   -0.299537
    17  C   -0.475024
    18  H    0.148350
    19  H    0.146092
    20  H    0.150474
    21  H    0.149777
    22  H    0.155225
    23  H    0.154548
    24  H    0.154784
    25  C   -0.311049
    26  C   -0.298388
    27  C   -0.477057
    28  H    0.175529
    29  H    0.145202
    30  H    0.149617
    31  H    0.146160
    32  H    0.153819
    33  H    0.167879
    34  H    0.154493
 Sum of Mulliken charges =  -0.00000

 Dipole moment (field-independent basis, Debye):
    X=             -4.1582    Y=              3.1242    Z=             -0.8944  Tot=              5.2774
 Quadrupole moment (field-independent basis, Debye-Ang):
   XX=            -77.9304   YY=            -99.0705   ZZ=            -91.8770
   XY=             -4.3974   XZ=              3.0465   YZ=              3.5433

 Normal termination of Gaussian 16 at Thu May  6 10:46:26 2021.
