 Gaussian 16, Revision A.03,
 Gaussian 16:  EM64L-G16RevA.03 25-Dec-2016

 -------------
 #p 6-31g* mp2
 -------------

 ------------------------------------------------------
 Input file generated by CHIRIPA (05-May-2021 14:55:21)
 ------------------------------------------------------
 Symbolic Z-matrix:
 Charge =  0 Multiplicity = 1

                         Standard orientation:
 ---------------------------------------------------------------------
 Center     Atomic      Atomic             Coordinates (Angstroms)
 Number     Number       Type             X           Y           Z
 ---------------------------------------------------------------------
      1          6           0        1.193990    2.176023    0.781230
      2          6           0        1.664966    1.195011    1.660047
      3          6           0        2.564299    0.219574    1.219286
      4          6           0        2.973593    0.255093   -0.112820
      5          6           0        2.522349    1.219489   -1.012603
      6          6           0        1.623427    2.185115   -0.549943
      7          1           0        0.495526    2.929955    1.132130
      8          1           0        1.333176    1.185503    2.694392
      9          1           0        2.944797   -0.551372    1.878286
     10          1           0        2.871187    1.203180   -2.038012
     11          1           0        1.259326    2.945778   -1.234681
     12          7           0        3.925459   -0.772366   -0.591026
     13          8           0        4.270772   -0.719303   -1.769406
     14          8           0        4.308195   -1.611296    0.221592
     15          6           0       -2.935705   -0.472988    0.404096
     16          6           0       -2.010970   -1.674369    0.205267
     17          6           0       -0.675126   -1.518906    0.932693
     18          1           0       -2.427828    0.434968    0.051078
     19          1           0       -3.116545   -0.332206    1.478746
     20          1           0       -1.833040   -1.813686   -0.868766
     21          1           0       -2.521181   -2.579598    0.558623
     22          1           0       -0.834161   -1.402646    2.009630
     23          1           0       -0.142111   -0.632381    0.574131
     24          1           0       -0.029611   -2.388933    0.777053
     25          6           0       -4.275083   -0.613553   -0.317040
     26          6           0       -5.199819    0.587829   -0.118212
     27          6           0       -6.535662    0.432365   -0.845638
     28          1           0       -4.094243   -0.754335   -1.391689
     29          1           0       -4.782960   -1.521510    0.035978
     30          1           0       -4.689608    1.493057   -0.471567
     31          1           0       -5.377748    0.727144    0.955823
     32          1           0       -7.068678   -0.454161   -0.487074
     33          1           0       -6.376627    0.316105   -1.922574
     34          1           0       -7.181178    1.302392   -0.689997
 ---------------------------------------------------------------------

 SCF Done:  E(RHF) =  -669.534141170     A.U. after   15 cycles
 E2 =    -0.2093314746D+01 EUMP2 =    -0.67162745591615D+03

 The electronic state is 1-A.
 Alpha  occ. eigenvalues --  -20.60794 -20.60789 -15.85848 -11.31233 -11.27814
 Alpha  occ. eigenvalues --  -11.27752 -11.27534 -11.26856 -11.26766 -11.21942
 Alpha  occ. eigenvalues --  -11.21757 -11.21701 -11.21642 -11.21353 -11.21072
 Alpha  occ. eigenvalues --   -1.59868  -1.39421  -1.19423  -1.08809  -1.08698
 Alpha  occ. eigenvalues --   -1.04825  -1.03755  -0.96212  -0.95631  -0.87236
 Alpha  occ. eigenvalues --   -0.86206  -0.82460  -0.79840  -0.78531  -0.77503
 Alpha  occ. eigenvalues --   -0.72065  -0.71192  -0.70507  -0.65338  -0.65058
 Alpha  occ. eigenvalues --   -0.64810  -0.62155  -0.61178  -0.59577  -0.57855
 Alpha  occ. eigenvalues --   -0.55620  -0.55307  -0.53504  -0.52912  -0.52851
 Alpha  occ. eigenvalues --   -0.52346  -0.50070  -0.48826  -0.48819  -0.48115
 Alpha  occ. eigenvalues --   -0.46840  -0.46055  -0.45988  -0.44821  -0.44028
 Alpha  occ. eigenvalues --   -0.37399  -0.36319
 Alpha virt. eigenvalues --    0.05011   0.11208   0.16448   0.21252   0.22628
 Alpha virt. eigenvalues --    0.24121   0.26220   0.26942   0.27203   0.28092
 Alpha virt. eigenvalues --    0.28410   0.30528   0.31476   0.31693   0.31725

 Mulliken charges:
               1
     1  C   -0.172002
     2  C   -0.218064
     3  C   -0.169258
     4  C    0.160365
     5  C   -0.172128
     6  C   -0.218533
     7  H    0.226291
     8  H    0.224300
     9  H    0.276085
    10  H    0.275827
    11  H    0.223779
    12  N    0.488137
    13  O   -0.460455
    14  O   -0.460092
    15  C   -0.297472
    16  C   -0.299181
    17  C   -0.483778
    18  H    0.145273
    19  H    0.147054
    20  H    0.153411
    21  H    0.152320
    22  H    0.147141
    23  H    0.166732
    24  H    0.163300
    25  C   -0.298297
    26  C   -0.299263
    27  C   -0.475765
    28  H    0.150501
    29  H    0.151148
    30  H    0.149152
    31  H    0.151213
    32  H    0.156309
    33  H    0.155822
    34  H    0.160125
 Sum of Mulliken charges =  -0.00000

 Dipole moment (field-independent basis, Debye):
    X=             -3.2883    Y=              3.6176    Z=              1.6681  Tot=              5.1655
 Quadrupole moment (field-independent basis, Debye-Ang):
   XX=           -116.4166   YY=            -92.4815   ZZ=            -90.6532
   XY=             10.1689   XZ=              4.8666   YZ=             -2.3923

 Normal termination of Gaussian 16 at Wed May  5 20:37:34 2021.
