 Gaussian 16, Revision A.03,
 Gaussian 16:  EM64L-G16RevA.03 25-Dec-2016

 -------------
 #p 6-31g* mp2
 -------------

 ------------------------------------------------------
 Input file generated by CHIRIPA (05-May-2021 14:53:16)
 ------------------------------------------------------
 Symbolic Z-matrix:
 Charge =  0 Multiplicity = 1

                         Standard orientation:
 ---------------------------------------------------------------------
 Center     Atomic      Atomic             Coordinates (Angstroms)
 Number     Number       Type             X           Y           Z
 ---------------------------------------------------------------------
      1          6           0       -5.661962    0.345714    0.350979
      2          6           0       -6.950564    0.402639   -0.470147
      3          6           0       -8.069462    1.167140    0.237948
      4          1           0       -5.873151   -0.125398    1.320720
      5          1           0       -5.327667    1.369863    0.567219
      6          1           0       -7.281577   -0.621311   -0.685952
      7          1           0       -6.736242    0.873497   -1.438122
      8          1           0       -7.763516    2.198861    0.439321
      9          1           0       -8.311949    0.695559    1.195764
     10          1           0       -8.981306    1.195549   -0.366695
     11          6           0       -4.534091   -0.415286   -0.343654
     12          6           0       -3.245489   -0.472212    0.477473
     13          6           0       -2.126590   -1.236713   -0.230623
     14          1           0       -4.868386   -1.439436   -0.559894
     15          1           0       -4.322902    0.055825   -1.313395
     16          1           0       -3.459810   -0.943069    1.445448
     17          1           0       -2.914476    0.551739    0.693278
     18          1           0       -1.884103   -0.765132   -1.188439
     19          1           0       -2.432536   -2.268433   -0.431996
     20          1           0       -1.214746   -1.265122    0.374021
     21          6           0        5.971352    1.580146   -0.004979
     22          6           0        6.162632    0.198077    0.094115
     23          6           0        5.068186   -0.671826    0.096264
     24          6           0        3.790591   -0.122959   -0.002657
     25          6           0        3.567516    1.249455   -0.102700
     26          6           0        4.676686    2.100506   -0.102898
     27          1           0        6.827263    2.248585   -0.005890
     28          1           0        7.166947   -0.208855    0.170285
     29          1           0        5.187594   -1.745814    0.171819
     30          1           0        2.554366    1.625460   -0.177304
     31          1           0        4.525130    3.173416   -0.179977
     32          7           0        2.624155   -1.033907   -0.001415
     33          8           0        1.508722   -0.525326   -0.089685
     34          8           0        2.847423   -2.239240    0.087805
 ---------------------------------------------------------------------

 SCF Done:  E(RHF) =  -669.535927357     A.U. after   15 cycles
 E2 =    -0.2090687515D+01 EUMP2 =    -0.67162661487266D+03

 The electronic state is 1-A.
 Alpha  occ. eigenvalues --  -20.60919 -20.60910 -15.85951 -11.31283 -11.27848
 Alpha  occ. eigenvalues --  -11.27844 -11.27587 -11.26857 -11.26848 -11.21071
 Alpha  occ. eigenvalues --  -11.20717 -11.20646 -11.20510 -11.20429 -11.19329
 Alpha  occ. eigenvalues --   -1.59980  -1.39536  -1.19453  -1.08855  -1.07625
 Alpha  occ. eigenvalues --   -1.04850  -1.02616  -0.95697  -0.95026  -0.86251
 Alpha  occ. eigenvalues --   -0.86035  -0.82528  -0.78716  -0.77580  -0.77405
 Alpha  occ. eigenvalues --   -0.72174  -0.71295  -0.70561  -0.65108  -0.64854
 Alpha  occ. eigenvalues --   -0.64271  -0.62198  -0.60030  -0.58457  -0.56621
 Alpha  occ. eigenvalues --   -0.55354  -0.54339  -0.53182  -0.52943  -0.51667
 Alpha  occ. eigenvalues --   -0.51463  -0.49035  -0.48926  -0.48860  -0.46999
 Alpha  occ. eigenvalues --   -0.45792  -0.44971  -0.44914  -0.44866  -0.42813
 Alpha  occ. eigenvalues --   -0.37433  -0.36452
 Alpha virt. eigenvalues --    0.04947   0.11203   0.16442   0.21337   0.23594
 Alpha virt. eigenvalues --    0.25286   0.27254   0.27390   0.28195   0.28240
 Alpha virt. eigenvalues --    0.29052   0.30906   0.32257   0.32435   0.32505

 Mulliken charges:
               1
     1  C   -0.297255
     2  C   -0.298935
     3  C   -0.475181
     4  H    0.148522
     5  H    0.147429
     6  H    0.151473
     7  H    0.150838
     8  H    0.153970
     9  H    0.154592
    10  H    0.158586
    11  C   -0.297055
    12  C   -0.300077
    13  C   -0.479215
    14  H    0.148283
    15  H    0.147640
    16  H    0.148293
    17  H    0.148041
    18  H    0.152178
    19  H    0.148698
    20  H    0.185434
    21  C   -0.170626
    22  C   -0.218593
    23  C   -0.170575
    24  C    0.157758
    25  C   -0.170916
    26  C   -0.218540
    27  H    0.225938
    28  H    0.223774
    29  H    0.275876
    30  H    0.275778
    31  H    0.223761
    32  N    0.490338
    33  O   -0.461121
    34  O   -0.459109
 Sum of Mulliken charges =  -0.00000

 Dipole moment (field-independent basis, Debye):
    X=              4.4887    Y=              3.1696    Z=              0.0090  Tot=              5.4950
 Quadrupole moment (field-independent basis, Debye-Ang):
   XX=            -64.1907   YY=            -92.2156   ZZ=            -95.7132
   XY=              9.9328   XZ=              0.4621   YZ=             -1.0332

 Normal termination of Gaussian 16 at Thu May  6 04:19:44 2021.
