 Gaussian 16, Revision A.03,
 Gaussian 16:  EM64L-G16RevA.03 25-Dec-2016

 -------------
 #p 6-31g* mp2
 -------------

 ------------------------------------------------------
 Input file generated by CHIRIPA (05-May-2021 14:55:25)
 ------------------------------------------------------
 Symbolic Z-matrix:
 Charge =  0 Multiplicity = 1

                         Standard orientation:
 ---------------------------------------------------------------------
 Center     Atomic      Atomic             Coordinates (Angstroms)
 Number     Number       Type             X           Y           Z
 ---------------------------------------------------------------------
      1          6           0        4.586426    2.099059   -0.086210
      2          6           0        4.450467    1.258231   -1.195734
      3          6           0        3.632271    0.126355   -1.132804
      4          6           0        2.961612   -0.135811    0.060835
      5          6           0        3.076641    0.682708    1.183370
      6          6           0        3.900288    1.809126    1.097714
      7          1           0        5.224138    2.976208   -0.143922
      8          1           0        4.982132    1.480928   -2.116486
      9          1           0        3.508990   -0.541544   -1.976683
     10          1           0        2.534024    0.434690    2.087511
     11          1           0        4.003986    2.460346    1.960965
     12          7           0        2.092539   -1.331188    0.139485
     13          8           0        1.512347   -1.540186    1.202657
     14          8           0        2.008007   -2.036492   -0.863529
     15          6           0       -3.684815   -0.738824    0.190606
     16          6           0       -2.297228   -1.047021   -0.372954
     17          6           0       -1.731600   -2.371609    0.140199
     18          1           0       -3.631203   -0.715813    1.287666
     19          1           0       -4.369540   -1.557179   -0.071776
     20          1           0       -1.615659   -0.227667   -0.110771
     21          1           0       -2.354109   -1.069113   -1.468806
     22          1           0       -2.388703   -3.203189   -0.134191
     23          1           0       -1.646057   -2.356963    1.231560
     24          1           0       -0.739097   -2.572146   -0.275234
     25          6           0       -4.263589    0.582149   -0.313159
     26          6           0       -5.651176    0.890345    0.250401
     27          6           0       -6.216805    2.214933   -0.262752
     28          1           0       -3.578864    1.400502   -0.050777
     29          1           0       -4.317201    0.559136   -1.410219
     30          1           0       -5.594294    0.912437    1.346253
     31          1           0       -6.332744    0.070990   -0.011782
     32          1           0       -6.302347    2.200286   -1.354113
     33          1           0       -5.559700    3.046513    0.011638
     34          1           0       -7.209306    2.415469    0.152681
 ---------------------------------------------------------------------

 SCF Done:  E(RHF) =  -669.536429430     A.U. after   15 cycles
 E2 =    -0.2092072677D+01 EUMP2 =    -0.67162850210645D+03

 The electronic state is 1-A.
 Alpha  occ. eigenvalues --  -20.61066 -20.61060 -15.86056 -11.31351 -11.27904
 Alpha  occ. eigenvalues --  -11.27900 -11.27634 -11.26902 -11.26892 -11.21102
 Alpha  occ. eigenvalues --  -11.20736 -11.20701 -11.20471 -11.20367 -11.19106
 Alpha  occ. eigenvalues --   -1.60100  -1.39656  -1.19510  -1.08922  -1.07610
 Alpha  occ. eigenvalues --   -1.04900  -1.02573  -0.95774  -0.94975  -0.86302
 Alpha  occ. eigenvalues --   -0.85992  -0.82604  -0.78698  -0.77666  -0.77375
 Alpha  occ. eigenvalues --   -0.72268  -0.71413  -0.70619  -0.65165  -0.64904
 Alpha  occ. eigenvalues --   -0.64257  -0.62247  -0.59984  -0.58449  -0.56583
 Alpha  occ. eigenvalues --   -0.55403  -0.54293  -0.53235  -0.52991  -0.51660
 Alpha  occ. eigenvalues --   -0.51429  -0.49142  -0.49023  -0.48771  -0.46949
 Alpha  occ. eigenvalues --   -0.45773  -0.45069  -0.44895  -0.44823  -0.42762
 Alpha  occ. eigenvalues --   -0.37483  -0.36498
 Alpha virt. eigenvalues --    0.04840   0.11158   0.16341   0.21293   0.23592
 Alpha virt. eigenvalues --    0.25383   0.27217   0.27372   0.28141   0.28244
 Alpha virt. eigenvalues --    0.29173   0.30872   0.32219   0.32434   0.32462

 Mulliken charges:
               1
     1  C   -0.170410
     2  C   -0.218583
     3  C   -0.170550
     4  C    0.160694
     5  C   -0.170897
     6  C   -0.218604
     7  H    0.226229
     8  H    0.224071
     9  H    0.276035
    10  H    0.275850
    11  H    0.224012
    12  N    0.487782
    13  O   -0.457113
    14  O   -0.460132
    15  C   -0.296955
    16  C   -0.298795
    17  C   -0.481137
    18  H    0.148389
    19  H    0.148010
    20  H    0.145537
    21  H    0.147532
    22  H    0.143838
    23  H    0.156096
    24  H    0.186711
    25  C   -0.297009
    26  C   -0.298886
    27  C   -0.475065
    28  H    0.146393
    29  H    0.147998
    30  H    0.151009
    31  H    0.151595
    32  H    0.154353
    33  H    0.153374
    34  H    0.158628
 Sum of Mulliken charges =  -0.00000

 Dipole moment (field-independent basis, Debye):
    X=              3.4749    Y=              4.1386    Z=             -0.2356  Tot=              5.4091
 Quadrupole moment (field-independent basis, Debye-Ang):
   XX=            -78.1525   YY=            -96.9623   ZZ=            -89.8259
   XY=             12.8519   XZ=             -1.8199   YZ=              2.1866

 Normal termination of Gaussian 16 at Thu May  6 01:38:07 2021.
