 Gaussian 16, Revision A.03,
 Gaussian 16:  EM64L-G16RevA.03 25-Dec-2016

 -------------
 #p 6-31g* mp2
 -------------

 ------------------------------------------------------
 Input file generated by CHIRIPA (05-May-2021 14:55:19)
 ------------------------------------------------------
 Symbolic Z-matrix:
 Charge =  0 Multiplicity = 1

                         Standard orientation:
 ---------------------------------------------------------------------
 Center     Atomic      Atomic             Coordinates (Angstroms)
 Number     Number       Type             X           Y           Z
 ---------------------------------------------------------------------
      1          6           0       -4.380493   -2.371511    0.013258
      2          6           0       -5.329508   -1.345549    0.070642
      3          6           0       -4.932627   -0.006688    0.003677
      4          6           0       -3.572341    0.271429   -0.121076
      5          6           0       -2.602842   -0.728464   -0.180871
      6          6           0       -3.022583   -2.060243   -0.112095
      7          1           0       -4.697679   -3.408820    0.065981
      8          1           0       -6.384760   -1.584324    0.167980
      9          1           0       -5.646170    0.807253    0.045789
     10          1           0       -1.558093   -0.459248   -0.278037
     11          1           0       -2.283348   -2.854956   -0.156903
     12          7           0       -3.140080    1.685073   -0.192928
     13          8           0       -1.935606    1.903759   -0.302721
     14          8           0       -4.013934    2.547633   -0.138091
     15          6           0        4.085632    0.285699    0.509965
     16          6           0        2.722215   -0.325007    0.184211
     17          6           0        1.575605    0.355659    0.932392
     18          1           0        4.261207    0.218533    1.592373
     19          1           0        4.068923    1.356004    0.261844
     20          1           0        2.741933   -1.394135    0.431580
     21          1           0        2.549950   -0.256551   -0.897571
     22          1           0        1.527302    1.419381    0.677902
     23          1           0        1.720376    0.275334    2.014606
     24          1           0        0.610202   -0.096597    0.684761
     25          6           0        5.241939   -0.384115   -0.230327
     26          6           0        6.605357    0.226591    0.095426
     27          6           0        7.751967   -0.454075   -0.652753
     28          1           0        5.258649   -1.454420    0.017795
     29          1           0        5.066365   -0.316949   -1.312735
     30          1           0        6.777622    0.158135    1.177210
     31          1           0        6.585638    1.295719   -0.151943
     32          1           0        7.607195   -0.373749   -1.734969
     33          1           0        7.800269   -1.517797   -0.398264
     34          1           0        8.717371   -0.001819   -0.405122
 ---------------------------------------------------------------------

 SCF Done:  E(RHF) =  -669.535395575     A.U. after   15 cycles
 E2 =    -0.2091045186D+01 EUMP2 =    -0.67162644076012D+03

 The electronic state is 1-A.
 Alpha  occ. eigenvalues --  -20.60756 -20.60749 -15.85805 -11.31182 -11.27753
 Alpha  occ. eigenvalues --  -11.27743 -11.27500 -11.26775 -11.26765 -11.21509
 Alpha  occ. eigenvalues --  -11.21502 -11.21301 -11.21230 -11.20997 -11.20857
 Alpha  occ. eigenvalues --   -1.59828  -1.39381  -1.19357  -1.08750  -1.08321
 Alpha  occ. eigenvalues --   -1.04764  -1.03415  -0.95855  -0.95580  -0.86864
 Alpha  occ. eigenvalues --   -0.86160  -0.82414  -0.79476  -0.78136  -0.77460
 Alpha  occ. eigenvalues --   -0.72025  -0.71149  -0.70475  -0.65011  -0.64944
 Alpha  occ. eigenvalues --   -0.64779  -0.62148  -0.60797  -0.59235  -0.57485
 Alpha  occ. eigenvalues --   -0.55268  -0.55110  -0.53093  -0.52966  -0.52462
 Alpha  occ. eigenvalues --   -0.52247  -0.49763  -0.48786  -0.48775  -0.47794
 Alpha  occ. eigenvalues --   -0.46500  -0.45675  -0.45597  -0.44784  -0.43673
 Alpha  occ. eigenvalues --   -0.37339  -0.36364
 Alpha virt. eigenvalues --    0.05061   0.11263   0.16564   0.20607   0.22981
 Alpha virt. eigenvalues --    0.23958   0.26293   0.26779   0.27650   0.27773
 Alpha virt. eigenvalues --    0.29100   0.30531   0.31530   0.31588   0.32016

 Mulliken charges:
               1
     1  C   -0.170621
     2  C   -0.218805
     3  C   -0.170195
     4  C    0.156780
     5  C   -0.177931
     6  C   -0.221624
     7  H    0.225604
     8  H    0.223446
     9  H    0.275641
    10  H    0.288467
    11  H    0.223670
    12  N    0.487083
    13  O   -0.460801
    14  O   -0.460459
    15  C   -0.298740
    16  C   -0.300771
    17  C   -0.475459
    18  H    0.149441
    19  H    0.152729
    20  H    0.146726
    21  H    0.152219
    22  H    0.169402
    23  H    0.154065
    24  H    0.151261
    25  C   -0.298120
    26  C   -0.299732
    27  C   -0.475652
    28  H    0.147815
    29  H    0.149801
    30  H    0.151774
    31  H    0.153130
    32  H    0.155225
    33  H    0.154312
    34  H    0.160321
 Sum of Mulliken charges =  -0.00000

 Dipole moment (field-independent basis, Debye):
    X=             -1.5176    Y=             -4.8664    Z=              0.2578  Tot=              5.1041
 Quadrupole moment (field-independent basis, Debye-Ang):
   XX=            -80.2436   YY=            -97.2625   ZZ=            -95.3627
   XY=             16.6156   XZ=             -0.6280   YZ=              0.1596

 Normal termination of Gaussian 16 at Thu May  6 07:39:36 2021.
