 Gaussian 16, Revision A.03,
 Gaussian 16:  EM64L-G16RevA.03 25-Dec-2016

 -------------
 #p 6-31g* mp2
 -------------

 ------------------------------------------------------
 Input file generated by CHIRIPA (05-May-2021 14:51:14)
 ------------------------------------------------------
 Symbolic Z-matrix:
 Charge =  0 Multiplicity = 1

                         Standard orientation:
 ---------------------------------------------------------------------
 Center     Atomic      Atomic             Coordinates (Angstroms)
 Number     Number       Type             X           Y           Z
 ---------------------------------------------------------------------
      1          6           0        2.339062    1.273164    0.323070
      2          6           0        2.527432    2.249199   -0.838763
      3          6           0        2.040398    3.660740   -0.509909
      4          1           0        1.275869    1.241010    0.597897
      5          1           0        2.877880    1.652383    1.202424
      6          1           0        1.989561    1.867553   -1.716064
      7          1           0        3.590273    2.278889   -1.110982
      8          1           0        2.584571    4.065567    0.349504
      9          1           0        0.974764    3.651894   -0.259015
     10          1           0        2.184495    4.342040   -1.354259
     11          6           0        2.821239   -0.142099    0.009597
     12          6           0        2.632869   -1.118135    1.171430
     13          6           0        3.119903   -2.529676    0.842576
     14          1           0        2.282421   -0.521319   -0.869757
     15          1           0        3.884432   -0.109945   -0.265231
     16          1           0        1.570028   -1.147824    1.443649
     17          1           0        3.170740   -0.736488    2.048730
     18          1           0        4.185537   -2.520829    0.591682
     19          1           0        2.575730   -2.934502   -0.016838
     20          1           0        2.975806   -3.210975    1.686926
     21          6           0       -1.856659   -0.794906   -0.252238
     22          6           0       -1.730415   -2.170071   -0.908720
     23          6           0       -0.276987   -2.615161   -1.073751
     24          1           0       -1.311719   -0.056133   -0.855727
     25          1           0       -1.365756   -0.819022    0.730527
     26          1           0       -2.222614   -2.143760   -1.889365
     27          1           0       -2.275879   -2.905622   -0.303702
     28          1           0        0.222081   -2.669582   -0.100832
     29          1           0        0.275648   -1.903390   -1.695505
     30          1           0       -0.209967   -3.600694   -1.545018
     31          6           0       -3.303642   -0.336158   -0.080429
     32          6           0       -3.429886    1.039006    0.576054
     33          6           0       -4.883314    1.484097    0.741084
     34          1           0       -3.794545   -0.312043   -1.063194
     35          1           0       -3.848581   -1.074932    0.523060
     36          1           0       -2.884422    1.774558   -0.028965
     37          1           0       -2.937686    1.012695    1.556698
     38          1           0       -5.435949    0.772326    1.362838
     39          1           0       -5.382382    1.538517   -0.231835
     40          1           0       -4.950334    2.469630    1.212351
 ---------------------------------------------------------------------

 SCF Done:  E(RHF) =  -470.732294162     A.U. after   11 cycles
 E2 =    -0.1584823818D+01 EUMP2 =    -0.47231711798047D+03

 The electronic state is 1-A.
 Alpha  occ. eigenvalues --  -11.21679 -11.21665 -11.21572 -11.21532 -11.21501
 Alpha  occ. eigenvalues --  -11.21433 -11.21319 -11.21254 -11.21116 -11.21114
 Alpha  occ. eigenvalues --  -11.21049 -11.20944  -1.08523  -1.08355  -1.03632
 Alpha  occ. eigenvalues --   -1.03451  -0.96080  -0.95900  -0.87089  -0.86929
 Alpha  occ. eigenvalues --   -0.79693  -0.79530  -0.78336  -0.78177  -0.65160
 Alpha  occ. eigenvalues --   -0.65009  -0.61181  -0.60788  -0.59409  -0.59289
 Alpha  occ. eigenvalues --   -0.57638  -0.57531  -0.55583  -0.55008  -0.52754
 Alpha  occ. eigenvalues --   -0.52625  -0.52464  -0.52321  -0.50137  -0.49696
 Alpha  occ. eigenvalues --   -0.48115  -0.47742  -0.46732  -0.46553  -0.46055
 Alpha  occ. eigenvalues --   -0.45840  -0.45515  -0.45468  -0.43857  -0.43719
 Alpha virt. eigenvalues --    0.20089   0.22920   0.23446   0.24698   0.24906
 Alpha virt. eigenvalues --    0.25754   0.27137   0.27635   0.28877   0.30164
 Alpha virt. eigenvalues --    0.30526   0.30980   0.31303   0.31875   0.32153

 Mulliken charges:
               1
     1  C   -0.300231
     2  C   -0.299381
     3  C   -0.475675
     4  H    0.152060
     5  H    0.149068
     6  H    0.150801
     7  H    0.151907
     8  H    0.155246
     9  H    0.155124
    10  H    0.159958
    11  C   -0.301168
    12  C   -0.302476
    13  C   -0.481421
    14  H    0.153776
    15  H    0.149175
    16  H    0.152696
    17  H    0.152110
    18  H    0.155044
    19  H    0.162372
    20  H    0.158952
    21  C   -0.301018
    22  C   -0.300385
    23  C   -0.483778
    24  H    0.149951
    25  H    0.150706
    26  H    0.152084
    27  H    0.152345
    28  H    0.163547
    29  H    0.156879
    30  H    0.160597
    31  C   -0.298275
    32  C   -0.299818
    33  C   -0.475748
    34  H    0.149945
    35  H    0.150050
    36  H    0.151650
    37  H    0.152087
    38  H    0.155349
    39  H    0.155329
    40  H    0.160565
 Sum of Mulliken charges =  -0.00000

 Dipole moment (field-independent basis, Debye):
    X=             -0.0486    Y=             -0.0330    Z=             -0.0135  Tot=              0.0603
 Quadrupole moment (field-independent basis, Debye-Ang):
   XX=            -85.0613   YY=            -85.8559   ZZ=            -83.9014
   XY=              1.0189   XZ=              0.4321   YZ=             -0.4512

 Normal termination of Gaussian 16 at Wed May  5 21:39:06 2021.
