 Gaussian 16, Revision A.03,
 Gaussian 16:  EM64L-G16RevA.03 25-Dec-2016

 -------------
 #p 6-31g* mp2
 -------------

 ------------------------------------------------------
 Input file generated by CHIRIPA (05-May-2021 14:57:22)
 ------------------------------------------------------
 Symbolic Z-matrix:
 Charge =  0 Multiplicity = 1

                         Standard orientation:
 ---------------------------------------------------------------------
 Center     Atomic      Atomic             Coordinates (Angstroms)
 Number     Number       Type             X           Y           Z
 ---------------------------------------------------------------------
      1          6           0        1.887791    2.698271    0.417763
      2          6           0        1.621309    1.653617    1.308946
      3          6           0        2.048958    0.352892    1.026494
      4          6           0        2.743691    0.131556   -0.161633
      5          6           0        3.024548    1.151372   -1.069590
      6          6           0        2.587326    2.444262   -0.766572
      7          1           0        1.551865    3.705662    0.645166
      8          1           0        1.078247    1.847948    2.229469
      9          1           0        1.856205   -0.474374    1.698727
     10          1           0        3.568074    0.926720   -1.979276
     11          1           0        2.795700    3.253612   -1.460531
     12          7           0        3.201490   -1.241316   -0.471538
     13          8           0        3.811714   -1.410197   -1.524981
     14          8           0        2.941421   -2.122497    0.344870
     15          6           0       -0.868685   -1.612158    1.357219
     16          6           0       -1.428643   -2.159449    0.198150
     17          6           0       -2.426351   -1.473312   -0.500665
     18          6           0       -2.842214   -0.236558   -0.009965
     19          6           0       -2.303764    0.335017    1.141843
     20          6           0       -1.307258   -0.368863    1.824542
     21          1           0       -0.094107   -2.152057    1.893815
     22          1           0       -1.089991   -3.124826   -0.167100
     23          1           0       -2.877015   -1.873806   -1.400622
     24          1           0       -2.661913    1.299273    1.481489
     25          1           0       -0.874187    0.058603    2.724412
     26          7           0       -3.897806    0.499217   -0.741239
     27          8           0       -4.246822    1.587178   -0.288285
     28          8           0       -4.356177   -0.025977   -1.753516
 ---------------------------------------------------------------------

 SCF Done:  E(RHF) =  -868.336116590     A.U. after   16 cycles
 E2 =    -0.2603292955D+01 EUMP2 =    -0.87093940954536D+03

 The electronic state is 1-A.
 Alpha  occ. eigenvalues --  -20.61481 -20.61430 -20.60975 -20.60958 -15.86502
 Alpha  occ. eigenvalues --  -15.86024 -11.31708 -11.31380 -11.28380 -11.28224
 Alpha  occ. eigenvalues --  -11.28022 -11.27969 -11.27884 -11.27627 -11.27321
 Alpha  occ. eigenvalues --  -11.27181 -11.27090 -11.26827  -1.60524  -1.60045
 Alpha  occ. eigenvalues --   -1.40088  -1.39599  -1.19888  -1.19550  -1.09293
 Alpha  occ. eigenvalues --   -1.08955  -1.05314  -1.04944  -0.96172  -0.95774
 Alpha  occ. eigenvalues --   -0.86698  -0.86379  -0.83024  -0.82616  -0.78131
 Alpha  occ. eigenvalues --   -0.77656  -0.72736  -0.72244  -0.71840  -0.71368
 Alpha  occ. eigenvalues --   -0.71090  -0.70568  -0.65571  -0.65383  -0.65175
 Alpha  occ. eigenvalues --   -0.64987  -0.62730  -0.62233  -0.55791  -0.55425
 Alpha  occ. eigenvalues --   -0.53881  -0.53447  -0.53008  -0.52982  -0.49499
 Alpha  occ. eigenvalues --   -0.49458  -0.49001  -0.48995  -0.45529  -0.45008
 Alpha  occ. eigenvalues --   -0.37996  -0.37804  -0.36879  -0.36003
 Alpha virt. eigenvalues --    0.04393   0.04867   0.10742   0.11060   0.15879
 Alpha virt. eigenvalues --    0.16531   0.18696   0.22420   0.25187   0.25881
 Alpha virt. eigenvalues --    0.28126   0.29284   0.30449   0.31588   0.33302

 Mulliken charges:
               1
     1  C   -0.169766
     2  C   -0.215566
     3  C   -0.160067
     4  C    0.156435
     5  C   -0.169806
     6  C   -0.218189
     7  H    0.228517
     8  H    0.215780
     9  H    0.263797
    10  H    0.277124
    11  H    0.226555
    12  N    0.489314
    13  O   -0.456263
    14  O   -0.469769
    15  C   -0.175294
    16  C   -0.218823
    17  C   -0.170722
    18  C    0.158618
    19  C   -0.170787
    20  C   -0.217258
    21  H    0.234812
    22  H    0.232267
    23  H    0.277346
    24  H    0.271992
    25  H    0.212999
    26  N    0.488076
    27  O   -0.462599
    28  O   -0.458721
 Sum of Mulliken charges =  -0.00000

 Dipole moment (field-independent basis, Debye):
    X=              2.1541    Y=              2.1947    Z=              3.3841  Tot=              4.5727
 Quadrupole moment (field-independent basis, Debye-Ang):
   XX=           -135.5254   YY=            -99.2639   ZZ=           -100.2401
   XY=             21.1766   XZ=             -6.0858   YZ=             -0.0587

 Normal termination of Gaussian 16 at Wed May  5 22:36:22 2021.
