 Gaussian 16, Revision A.03,
 Gaussian 16:  EM64L-G16RevA.03 25-Dec-2016

 -------------
 #p 6-31g* mp2
 -------------

 ------------------------------------------------------
 Input file generated by CHIRIPA (05-May-2021 14:55:20)
 ------------------------------------------------------
 Symbolic Z-matrix:
 Charge =  0 Multiplicity = 1

                         Standard orientation:
 ---------------------------------------------------------------------
 Center     Atomic      Atomic             Coordinates (Angstroms)
 Number     Number       Type             X           Y           Z
 ---------------------------------------------------------------------
      1          6           0       -1.847340    2.049008    1.081151
      2          6           0       -2.080511    0.969166    1.939109
      3          6           0       -2.527606   -0.255359    1.433942
      4          6           0       -2.732072   -0.365441    0.059400
      5          6           0       -2.508719    0.692000   -0.821068
      6          6           0       -2.061810    1.907229   -0.293775
      7          1           0       -1.500098    2.996638    1.482171
      8          1           0       -1.914804    1.076390    3.007327
      9          1           0       -2.716028   -1.107603    2.075500
     10          1           0       -2.682887    0.554729   -1.881370
     11          1           0       -1.881555    2.744144   -0.962450
     12          7           0       -3.205293   -1.656870   -0.487109
     13          8           0       -3.377844   -1.728199   -1.701924
     14          8           0       -3.394692   -2.573309    0.309700
     15          6           0        3.020981    0.825868    0.019130
     16          6           0        2.204296    1.450781   -1.112458
     17          6           0        1.457297    2.711431   -0.675937
     18          1           0        2.351596    0.585708    0.856502
     19          1           0        3.739452    1.566959    0.395932
     20          1           0        1.488524    0.708287   -1.487942
     21          1           0        2.875674    1.689306   -1.947307
     22          1           0        2.160016    3.471978   -0.320473
     23          1           0        0.764985    2.485384    0.141503
     24          1           0        0.880020    3.141711   -1.500237
     25          6           0        3.773461   -0.435219   -0.401778
     26          6           0        4.590147   -1.060132    0.729811
     27          6           0        5.337145   -2.320781    0.293290
     28          1           0        3.054990   -1.176309   -0.778580
     29          1           0        4.442847   -0.195059   -1.239149
     30          1           0        3.918769   -1.298657    1.564660
     31          1           0        5.305918   -0.317638    1.105295
     32          1           0        6.029458   -2.094735   -0.524150
     33          1           0        4.634427   -3.081329   -0.062174
     34          1           0        5.914423   -2.751062    1.117590
 ---------------------------------------------------------------------

 SCF Done:  E(RHF) =  -669.534396299     A.U. after   15 cycles
 E2 =    -0.2092937394D+01 EUMP2 =    -0.67162733369239D+03

 The electronic state is 1-A.
 Alpha  occ. eigenvalues --  -20.60815 -20.60809 -15.85868 -11.31250 -11.27810
 Alpha  occ. eigenvalues --  -11.27789 -11.27528 -11.26843 -11.26800 -11.21992
 Alpha  occ. eigenvalues --  -11.21756 -11.21698 -11.21644 -11.21551 -11.21146
 Alpha  occ. eigenvalues --   -1.59890  -1.39443  -1.19425  -1.08834  -1.08688
 Alpha  occ. eigenvalues --   -1.04825  -1.03823  -0.96305  -0.95646  -0.87336
 Alpha  occ. eigenvalues --   -0.86208  -0.82476  -0.79903  -0.78495  -0.77517
 Alpha  occ. eigenvalues --   -0.72086  -0.71215  -0.70535  -0.65341  -0.65069
 Alpha  occ. eigenvalues --   -0.64819  -0.62178  -0.61226  -0.59679  -0.57905
 Alpha  occ. eigenvalues --   -0.55670  -0.55313  -0.53227  -0.53072  -0.52808
 Alpha  occ. eigenvalues --   -0.52650  -0.50200  -0.48845  -0.48839  -0.48213
 Alpha  occ. eigenvalues --   -0.46917  -0.46046  -0.45947  -0.44846  -0.44083
 Alpha  occ. eigenvalues --   -0.37321  -0.36398
 Alpha virt. eigenvalues --    0.04962   0.11210   0.16356   0.20833   0.22721
 Alpha virt. eigenvalues --    0.24119   0.26312   0.26394   0.27079   0.27819
 Alpha virt. eigenvalues --    0.28874   0.29691   0.31272   0.31752   0.32210

 Mulliken charges:
               1
     1  C   -0.174571
     2  C   -0.219582
     3  C   -0.171417
     4  C    0.158745
     5  C   -0.173330
     6  C   -0.212011
     7  H    0.227513
     8  H    0.223878
     9  H    0.275713
    10  H    0.275771
    11  H    0.226220
    12  N    0.487993
    13  O   -0.460200
    14  O   -0.460336
    15  C   -0.298668
    16  C   -0.298768
    17  C   -0.480833
    18  H    0.149265
    19  H    0.148706
    20  H    0.154631
    21  H    0.153283
    22  H    0.154480
    23  H    0.157260
    24  H    0.152717
    25  C   -0.299121
    26  C   -0.299729
    27  C   -0.476100
    28  H    0.152463
    29  H    0.150159
    30  H    0.151594
    31  H    0.151134
    32  H    0.155374
    33  H    0.157264
    34  H    0.160502
 Sum of Mulliken charges =  -0.00000

 Dipole moment (field-independent basis, Debye):
    X=              1.6679    Y=              4.4804    Z=              1.9311  Tot=              5.1561
 Quadrupole moment (field-independent basis, Debye-Ang):
   XX=           -104.3290   YY=            -98.6584   ZZ=            -90.3424
   XY=            -12.4097   XZ=             -5.4117   YZ=             -2.6680

 Normal termination of Gaussian 16 at Thu May  6 12:28:23 2021.
