 Gaussian 16, Revision A.03,
 Gaussian 16:  EM64L-G16RevA.03 25-Dec-2016

 -------------
 #p 6-31g* mp2
 -------------

 ------------------------------------------------------
 Input file generated by CHIRIPA (05-May-2021 14:57:23)
 ------------------------------------------------------
 Symbolic Z-matrix:
 Charge =  0 Multiplicity = 1

                         Standard orientation:
 ---------------------------------------------------------------------
 Center     Atomic      Atomic             Coordinates (Angstroms)
 Number     Number       Type             X           Y           Z
 ---------------------------------------------------------------------
      1          6           0        3.190229    2.466306    0.583869
      2          6           0        4.011047    1.498374    1.171992
      3          6           0        3.979400    0.174021    0.725187
      4          6           0        3.111102   -0.148921   -0.316473
      5          6           0        2.281065    0.792747   -0.922767
      6          6           0        2.329376    2.111029   -0.459793
      7          1           0        3.221285    3.492737    0.937238
      8          1           0        4.680578    1.771417    1.982683
      9          1           0        4.604054   -0.595355    1.162550
     10          1           0        1.623983    0.490324   -1.729118
     11          1           0        1.690787    2.860637   -0.918417
     12          7           0        3.068778   -1.547741   -0.798044
     13          8           0        2.295077   -1.806722   -1.717257
     14          8           0        3.810108   -2.358668   -0.247168
     15          6           0       -5.206331    0.556528   -1.026969
     16          6           0       -5.303846   -0.167872    0.165615
     17          6           0       -4.153482   -0.526885    0.874361
     18          6           0       -2.916192   -0.143315    0.359311
     19          6           0       -2.786313    0.578667   -0.826085
     20          6           0       -3.950090    0.926833   -1.518147
     21          1           0       -6.105172    0.831205   -1.571061
     22          1           0       -6.278133   -0.456809    0.549445
     23          1           0       -4.200102   -1.087475    1.800096
     24          1           0       -1.801126    0.852440   -1.183680
     25          1           0       -3.871333    1.489435   -2.444064
     26          7           0       -1.691253   -0.517644    1.100798
     27          8           0       -0.612992   -0.167685    0.625909
     28          8           0       -1.832602   -1.153915    2.142823
 ---------------------------------------------------------------------

 SCF Done:  E(RHF) =  -868.337479645     A.U. after   16 cycles
 E2 =    -0.2600284840D+01 EUMP2 =    -0.87093776448492D+03

 The electronic state is 1-A.
 Alpha  occ. eigenvalues --  -20.60880 -20.60868 -20.59771 -20.59766 -15.85924
 Alpha  occ. eigenvalues --  -15.84828 -11.31319 -11.30111 -11.27939 -11.27863
 Alpha  occ. eigenvalues --  -11.27624 -11.26927 -11.26885 -11.26772 -11.26743
 Alpha  occ. eigenvalues --  -11.26555 -11.25804 -11.25768  -1.59939  -1.58833
 Alpha  occ. eigenvalues --   -1.39498  -1.38396  -1.19489  -1.18313  -1.08875
 Alpha  occ. eigenvalues --   -1.07740  -1.04904  -1.03753  -0.95712  -0.94589
 Alpha  occ. eigenvalues --   -0.86299  -0.85170  -0.82551  -0.81452  -0.77601
 Alpha  occ. eigenvalues --   -0.76482  -0.72167  -0.71251  -0.71074  -0.70606
 Alpha  occ. eigenvalues --   -0.70114  -0.69510  -0.65149  -0.64911  -0.64019
 Alpha  occ. eigenvalues --   -0.63825  -0.62264  -0.61143  -0.55397  -0.54322
 Alpha  occ. eigenvalues --   -0.53219  -0.53003  -0.52007  -0.51908  -0.48914
 Alpha  occ. eigenvalues --   -0.48890  -0.47818  -0.47815  -0.44895  -0.43824
 Alpha  occ. eigenvalues --   -0.37459  -0.36504  -0.36284  -0.35285
 Alpha virt. eigenvalues --    0.04951   0.06106   0.11151   0.12345   0.16442
 Alpha virt. eigenvalues --    0.17566   0.20830   0.22177   0.26138   0.27559
 Alpha virt. eigenvalues --    0.28594   0.29229   0.31040   0.31629   0.32305

 Mulliken charges:
               1
     1  C   -0.169675
     2  C   -0.218390
     3  C   -0.168767
     4  C    0.163995
     5  C   -0.151378
     6  C   -0.216451
     7  H    0.220880
     8  H    0.219764
     9  H    0.273465
    10  H    0.268544
    11  H    0.214183
    12  N    0.490039
    13  O   -0.463430
    14  O   -0.463149
    15  C   -0.170669
    16  C   -0.218247
    17  C   -0.170415
    18  C    0.159636
    19  C   -0.168509
    20  C   -0.218045
    21  H    0.226056
    22  H    0.224211
    23  H    0.276576
    24  H    0.268733
    25  H    0.222591
    26  N    0.492932
    27  O   -0.466396
    28  O   -0.458085
 Sum of Mulliken charges =  -0.00000

 Dipole moment (field-independent basis, Debye):
    X=             -4.3771    Y=              6.0987    Z=             -0.8158  Tot=              7.5510
 Quadrupole moment (field-independent basis, Debye-Ang):
   XX=            -75.7833   YY=           -107.1170   ZZ=           -104.0650
   XY=             12.4450   XZ=             12.0219   YZ=             -3.8603

 Normal termination of Gaussian 16 at Wed May  5 17:49:55 2021.
