 Gaussian 16, Revision A.03,
 Gaussian 16:  EM64L-G16RevA.03 25-Dec-2016

 -------------
 #p 6-31g* mp2
 -------------

 ------------------------------------------------------
 Input file generated by CHIRIPA (05-May-2021 14:51:10)
 ------------------------------------------------------
 Symbolic Z-matrix:
 Charge =  0 Multiplicity = 1

                         Standard orientation:
 ---------------------------------------------------------------------
 Center     Atomic      Atomic             Coordinates (Angstroms)
 Number     Number       Type             X           Y           Z
 ---------------------------------------------------------------------
      1          6           0        2.147155   -0.543257   -0.007552
      2          6           0        2.780622   -1.514038    0.989589
      3          6           0        2.222670   -2.932515    0.869558
      4          1           0        1.059763   -0.525467    0.148031
      5          1           0        2.310879   -0.917570   -1.027591
      6          1           0        2.616952   -1.137291    2.007376
      7          1           0        3.866654   -1.529375    0.831742
      8          1           0        2.399338   -3.332317   -0.134209
      9          1           0        1.142535   -2.938005    1.048105
     10          1           0        2.689323   -3.609905    1.591527
     11          6           0        2.694658    0.878842    0.100163
     12          6           0        2.061191    1.849623   -0.896978
     13          6           0        2.619143    3.268100   -0.776948
     14          1           0        2.530934    1.253155    1.120202
     15          1           0        3.782050    0.861052   -0.055420
     16          1           0        0.975159    1.864960   -0.739131
     17          1           0        2.224861    1.472876   -1.914765
     18          1           0        3.699278    3.273590   -0.955494
     19          1           0        2.442475    3.667901    0.226819
     20          1           0        2.152490    3.945490   -1.498916
     21          6           0       -2.189110    0.526658    0.171504
     22          6           0       -3.342495    1.479621    0.487020
     23          6           0       -2.862798    2.864927    0.921316
     24          1           0       -1.546675    0.432635    1.057722
     25          1           0       -1.566618    0.965180   -0.620707
     26          1           0       -3.963413    1.038800    1.277434
     27          1           0       -3.982366    1.571238   -0.399991
     28          1           0       -2.260895    3.328777    0.133180
     29          1           0       -2.241835    2.793313    1.820135
     30          1           0       -3.703554    3.530003    1.141919
     31          6           0       -2.652703   -0.862243   -0.264115
     32          6           0       -1.499319   -1.815206   -0.579631
     33          6           0       -1.979014   -3.200513   -1.013926
     34          1           0       -3.275194   -1.300764    0.528096
     35          1           0       -3.295138   -0.768219   -1.150332
     36          1           0       -0.859447   -1.906822    0.307379
     37          1           0       -0.878400   -1.374384   -1.370044
     38          1           0       -2.599978   -3.128899   -1.912746
     39          1           0       -2.580917   -3.664361   -0.225791
     40          1           0       -1.138260   -3.865587   -1.234530
 ---------------------------------------------------------------------

 SCF Done:  E(RHF) =  -470.731691075     A.U. after   11 cycles
 E2 =    -0.1585557463D+01 EUMP2 =    -0.47231724853757D+03

 The electronic state is 1-A.
 Alpha  occ. eigenvalues --  -11.21671 -11.21579 -11.21540 -11.21535 -11.21483
 Alpha  occ. eigenvalues --  -11.21405 -11.21295 -11.21177 -11.21132 -11.21066
 Alpha  occ. eigenvalues --  -11.21028 -11.21027  -1.08521  -1.08326  -1.03599
 Alpha  occ. eigenvalues --   -1.03453  -0.96030  -0.95914  -0.87050  -0.86931
 Alpha  occ. eigenvalues --   -0.79779  -0.79452  -0.78588  -0.77890  -0.65170
 Alpha  occ. eigenvalues --   -0.64962  -0.61067  -0.60818  -0.59482  -0.59199
 Alpha  occ. eigenvalues --   -0.57687  -0.57483  -0.55358  -0.55173  -0.52726
 Alpha  occ. eigenvalues --   -0.52618  -0.52517  -0.52291  -0.50012  -0.49832
 Alpha  occ. eigenvalues --   -0.48271  -0.47692  -0.46830  -0.46576  -0.46467
 Alpha  occ. eigenvalues --   -0.45723  -0.45579  -0.44758  -0.43817  -0.43702
 Alpha virt. eigenvalues --    0.21036   0.22133   0.23563   0.24840   0.25010
 Alpha virt. eigenvalues --    0.26124   0.26331   0.27343   0.28877   0.30474
 Alpha virt. eigenvalues --    0.30768   0.31123   0.31663   0.31905   0.32198

 Mulliken charges:
               1
     1  C   -0.307604
     2  C   -0.299587
     3  C   -0.479849
     4  H    0.162910
     5  H    0.147797
     6  H    0.150782
     7  H    0.151579
     8  H    0.154925
     9  H    0.159291
    10  H    0.159950
    11  C   -0.296914
    12  C   -0.304861
    13  C   -0.475329
    14  H    0.148703
    15  H    0.148925
    16  H    0.156599
    17  H    0.151018
    18  H    0.155068
    19  H    0.155330
    20  H    0.159613
    21  C   -0.304358
    22  C   -0.299417
    23  C   -0.476159
    24  H    0.149159
    25  H    0.154438
    26  H    0.152235
    27  H    0.152370
    28  H    0.155449
    29  H    0.154982
    30  H    0.160751
    31  C   -0.297220
    32  C   -0.306874
    33  C   -0.475741
    34  H    0.149344
    35  H    0.149751
    36  H    0.156341
    37  H    0.155176
    38  H    0.155099
    39  H    0.154698
    40  H    0.161629
 Sum of Mulliken charges =  -0.00000

 Dipole moment (field-independent basis, Debye):
    X=             -0.0758    Y=             -0.0141    Z=             -0.0134  Tot=              0.0782
 Quadrupole moment (field-independent basis, Debye-Ang):
   XX=            -84.5717   YY=            -86.9422   ZZ=            -83.4793
   XY=             -0.7288   XZ=             -0.5382   YZ=             -0.3992

 Normal termination of Gaussian 16 at Wed May  5 21:25:15 2021.
