 Gaussian 16, Revision A.03,
 Gaussian 16:  EM64L-G16RevA.03 25-Dec-2016

 -------------
 #p 6-31g* mp2
 -------------

 ------------------------------------------------------
 Input file generated by CHIRIPA (05-May-2021 14:55:23)
 ------------------------------------------------------
 Symbolic Z-matrix:
 Charge =  0 Multiplicity = 1

                         Standard orientation:
 ---------------------------------------------------------------------
 Center     Atomic      Atomic             Coordinates (Angstroms)
 Number     Number       Type             X           Y           Z
 ---------------------------------------------------------------------
      1          6           0       -0.834160   -1.420993    0.343734
      2          6           0       -2.027515   -2.114777    0.569760
      3          6           0       -3.261431   -1.483939    0.385254
      4          6           0       -3.265052   -0.152502   -0.027727
      5          6           0       -2.093200    0.565547   -0.261086
      6          6           0       -0.870746   -0.085400   -0.070238
      7          1           0        0.119924   -1.918854    0.489526
      8          1           0       -2.002138   -3.152086    0.891306
      9          1           0       -4.200391   -1.997381    0.553034
     10          1           0       -2.150493    1.598856   -0.581101
     11          1           0        0.054446    0.455882   -0.246529
     12          7           0       -4.565276    0.525982   -0.226412
     13          8           0       -4.541453    1.699598   -0.590686
     14          8           0       -5.583596   -0.128685   -0.014106
     15          6           0        4.335733   -0.193109   -0.346193
     16          6           0        4.030418   -1.614656    0.127067
     17          6           0        4.900251   -2.666655   -0.561761
     18          1           0        4.190268   -0.136324   -1.433649
     19          1           0        5.396000    0.027848   -0.160709
     20          1           0        2.970716   -1.832374   -0.057990
     21          1           0        4.176442   -1.668014    1.213550
     22          1           0        5.960798   -2.477233   -0.366928
     23          1           0        4.748222   -2.642526   -1.645692
     24          1           0        4.665359   -3.675600   -0.208612
     25          6           0        3.474211    0.869781    0.333346
     26          6           0        3.779525    2.291328   -0.139914
     27          6           0        2.909693    3.343326    0.548914
     28          1           0        2.413944    0.648823    0.147861
     29          1           0        3.619676    0.812996    1.420802
     30          1           0        3.633502    2.344686   -1.226398
     31          1           0        4.839228    2.509046    0.045142
     32          1           0        3.061722    3.319199    1.632844
     33          1           0        1.849146    3.153906    0.354081
     34          1           0        3.144584    4.352273    0.195764
 ---------------------------------------------------------------------

 SCF Done:  E(RHF) =  -669.535440997     A.U. after   15 cycles
 E2 =    -0.2091711418D+01 EUMP2 =    -0.67162715241534D+03

 The electronic state is 1-A.
 Alpha  occ. eigenvalues --  -20.60733 -20.60728 -15.85786 -11.31148 -11.27720
 Alpha  occ. eigenvalues --  -11.27716 -11.27452 -11.26732 -11.26712 -11.22689
 Alpha  occ. eigenvalues --  -11.22514 -11.22441 -11.22341 -11.21926 -11.21856
 Alpha  occ. eigenvalues --   -1.59809  -1.39362  -1.19321  -1.09428  -1.08715
 Alpha  occ. eigenvalues --   -1.04726  -1.04452  -0.96883  -0.95551  -0.87895
 Alpha  occ. eigenvalues --   -0.86127  -0.82386  -0.80520  -0.79265  -0.77433
 Alpha  occ. eigenvalues --   -0.72005  -0.71132  -0.70429  -0.66108  -0.64972
 Alpha  occ. eigenvalues --   -0.64714  -0.62109  -0.61822  -0.60253  -0.58499
 Alpha  occ. eigenvalues --   -0.56176  -0.55223  -0.53548  -0.53314  -0.53053
 Alpha  occ. eigenvalues --   -0.52826  -0.50821  -0.48845  -0.48760  -0.48748
 Alpha  occ. eigenvalues --   -0.47559  -0.46782  -0.46701  -0.44769  -0.44723
 Alpha  occ. eigenvalues --   -0.37299  -0.36329
 Alpha virt. eigenvalues --    0.05103   0.11316   0.16585   0.18003   0.22156
 Alpha virt. eigenvalues --    0.22848   0.24792   0.25987   0.26566   0.27239
 Alpha virt. eigenvalues --    0.29264   0.30776   0.31015   0.31294   0.32050

 Mulliken charges:
               1
     1  C   -0.176521
     2  C   -0.219047
     3  C   -0.171011
     4  C    0.158886
     5  C   -0.172235
     6  C   -0.226298
     7  H    0.229755
     8  H    0.223564
     9  H    0.275446
    10  H    0.275927
    11  H    0.233149
    12  N    0.487926
    13  O   -0.460455
    14  O   -0.460572
    15  C   -0.298578
    16  C   -0.301317
    17  C   -0.476121
    18  H    0.151705
    19  H    0.154293
    20  H    0.142862
    21  H    0.154411
    22  H    0.158767
    23  H    0.157294
    24  H    0.161104
    25  C   -0.303464
    26  C   -0.300805
    27  C   -0.475387
    28  H    0.141131
    29  H    0.153570
    30  H    0.153281
    31  H    0.156023
    32  H    0.158012
    33  H    0.149757
    34  H    0.164948
 Sum of Mulliken charges =  -0.00000

 Dipole moment (field-independent basis, Debye):
    X=              4.8718    Y=             -2.3351    Z=              0.7121  Tot=              5.4492
 Quadrupole moment (field-independent basis, Debye-Ang):
   XX=           -122.4903   YY=            -91.0381   ZZ=            -94.8426
   XY=             10.1996   XZ=             -2.4114   YZ=             -1.5801

 Normal termination of Gaussian 16 at Thu May  6 01:32:49 2021.
