 Gaussian 16, Revision A.03,
 Gaussian 16:  EM64L-G16RevA.03 25-Dec-2016

 -------------
 #p 6-31g* mp2
 -------------

 ------------------------------------------------------
 Input file generated by CHIRIPA (05-May-2021 14:53:11)
 ------------------------------------------------------
 Symbolic Z-matrix:
 Charge =  0 Multiplicity = 1

                         Standard orientation:
 ---------------------------------------------------------------------
 Center     Atomic      Atomic             Coordinates (Angstroms)
 Number     Number       Type             X           Y           Z
 ---------------------------------------------------------------------
      1          6           0        3.542924    0.097696   -0.472407
      2          6           0        3.554721   -1.293133    0.162762
      3          6           0        4.785229   -2.111635   -0.229279
      4          1           0        3.583749   -0.004993   -1.565445
      5          1           0        4.453033    0.636754   -0.174896
      6          1           0        2.644193   -1.828902   -0.134739
      7          1           0        3.513669   -1.187126    1.254409
      8          1           0        5.702477   -1.601494    0.082191
      9          1           0        4.828060   -2.246916   -1.314851
     10          1           0        4.773315   -3.102279    0.235847
     11          6           0        2.318984    0.928003   -0.089930
     12          6           0        2.307188    2.318832   -0.725099
     13          6           0        1.076679    3.137334   -0.333058
     14          1           0        1.408875    0.388944   -0.387441
     15          1           0        2.278159    1.030692    1.003108
     16          1           0        2.348239    2.212825   -1.816746
     17          1           0        3.217715    2.854601   -0.427598
     18          1           0        1.033848    3.272614    0.752514
     19          1           0        0.159431    2.627192   -0.644528
     20          1           0        1.088593    4.127978   -0.798185
     21          6           0       -1.005860   -0.239335    2.385622
     22          6           0       -2.258796    0.371165    2.267455
     23          6           0       -2.979098    0.288269    1.072114
     24          6           0       -2.413935   -0.416260    0.010266
     25          6           0       -1.167889   -1.035236    0.097036
     26          6           0       -0.465359   -0.939353    1.301945
     27          1           0       -0.453215   -0.169896    3.317907
     28          1           0       -2.681021    0.915464    3.107402
     29          1           0       -3.951094    0.751440    0.953314
     30          1           0       -0.772964   -1.570916   -0.757656
     31          1           0        0.507476   -1.414467    1.390850
     32          7           0       -3.167080   -0.510893   -1.260253
     33          8           0       -2.647245   -1.137412   -2.181058
     34          8           0       -4.262968    0.043245   -1.311223
 ---------------------------------------------------------------------

 SCF Done:  E(RHF) =  -669.534301121     A.U. after   15 cycles
 E2 =    -0.2094192530D+01 EUMP2 =    -0.67162849365118D+03

 The electronic state is 1-A.
 Alpha  occ. eigenvalues --  -20.60781 -20.60775 -15.85832 -11.31202 -11.27718
 Alpha  occ. eigenvalues --  -11.27715 -11.27437 -11.26764 -11.26692 -11.22490
 Alpha  occ. eigenvalues --  -11.21944 -11.21899 -11.21785 -11.21697 -11.21273
 Alpha  occ. eigenvalues --   -1.59856  -1.39409  -1.19349  -1.08991  -1.08733
 Alpha  occ. eigenvalues --   -1.04751  -1.04035  -0.96448  -0.95582  -0.87470
 Alpha  occ. eigenvalues --   -0.86143  -0.82428  -0.80151  -0.78835  -0.77435
 Alpha  occ. eigenvalues --   -0.72048  -0.71180  -0.70447  -0.65633  -0.64982
 Alpha  occ. eigenvalues --   -0.64740  -0.62097  -0.61433  -0.59842  -0.58076
 Alpha  occ. eigenvalues --   -0.55724  -0.55237  -0.53247  -0.53151  -0.52810
 Alpha  occ. eigenvalues --   -0.52789  -0.50397  -0.48812  -0.48805  -0.48434
 Alpha  occ. eigenvalues --   -0.47193  -0.46292  -0.46232  -0.44813  -0.44282
 Alpha  occ. eigenvalues --   -0.37309  -0.36223
 Alpha virt. eigenvalues --    0.05023   0.11255   0.16459   0.19954   0.22783
 Alpha virt. eigenvalues --    0.23692   0.25157   0.25587   0.27467   0.28491
 Alpha virt. eigenvalues --    0.29824   0.30043   0.30906   0.31475   0.31981

 Mulliken charges:
               1
     1  C   -0.297851
     2  C   -0.302782
     3  C   -0.475340
     4  H    0.153584
     5  H    0.151389
     6  H    0.144851
     7  H    0.147610
     8  H    0.157792
     9  H    0.159033
    10  H    0.160766
    11  C   -0.302201
    12  C   -0.299985
    13  C   -0.475540
    14  H    0.154356
    15  H    0.142973
    16  H    0.155046
    17  H    0.151506
    18  H    0.151784
    19  H    0.158606
    20  H    0.161918
    21  C   -0.173276
    22  C   -0.217386
    23  C   -0.172076
    24  C    0.158629
    25  C   -0.175973
    26  C   -0.215619
    27  H    0.225355
    28  H    0.223394
    29  H    0.275461
    30  H    0.274560
    31  H    0.232320
    32  N    0.487981
    33  O   -0.460735
    34  O   -0.460150
 Sum of Mulliken charges =  -0.00000

 Dipole moment (field-independent basis, Debye):
    X=              2.7305    Y=              0.3758    Z=              4.4208  Tot=              5.2096
 Quadrupole moment (field-independent basis, Debye-Ang):
   XX=           -105.2404   YY=            -94.5207   ZZ=            -93.7374
   XY=             -3.5753   XZ=            -12.2845   YZ=             -0.5001

 Normal termination of Gaussian 16 at Thu May  6 00:54:30 2021.
