 Gaussian 16, Revision A.03,
 Gaussian 16:  EM64L-G16RevA.03 25-Dec-2016

 -------------
 #p 6-31g* mp2
 -------------

 ------------------------------------------------------
 Input file generated by CHIRIPA (05-May-2021 14:55:24)
 ------------------------------------------------------
 Symbolic Z-matrix:
 Charge =  0 Multiplicity = 1

                         Standard orientation:
 ---------------------------------------------------------------------
 Center     Atomic      Atomic             Coordinates (Angstroms)
 Number     Number       Type             X           Y           Z
 ---------------------------------------------------------------------
      1          6           0       -1.326581    0.849659    1.231767
      2          6           0       -1.449936   -0.538894    1.116764
      3          6           0       -2.594692   -1.105339    0.548239
      4          6           0       -3.601215   -0.249703    0.103168
      5          6           0       -3.507824    1.137537    0.203837
      6          6           0       -2.354108    1.681976    0.775740
      7          1           0       -0.433827    1.281140    1.674723
      8          1           0       -0.653538   -1.187721    1.470061
      9          1           0       -2.716228   -2.176966    0.446933
     10          1           0       -4.318502    1.758612   -0.157390
     11          1           0       -2.261038    2.760694    0.863767
     12          7           0       -4.817860   -0.837724   -0.500492
     13          8           0       -5.690433   -0.062203   -0.884967
     14          8           0       -4.875856   -2.063002   -0.577736
     15          6           0        3.632154    0.358332   -0.452992
     16          6           0        3.298498    1.847082   -0.351591
     17          6           0        1.853046    2.156880   -0.742084
     18          1           0        3.447220    0.016798   -1.480659
     19          1           0        2.947353   -0.208590    0.192797
     20          1           0        3.984623    2.411154   -0.996315
     21          1           0        3.484429    2.185154    0.675908
     22          1           0        1.154813    1.619689   -0.092085
     23          1           0        1.657849    1.846973   -1.773809
     24          1           0        1.636133    3.226673   -0.662384
     25          6           0        5.073630    0.032810   -0.065813
     26          6           0        5.407286   -1.455940   -0.167214
     27          6           0        6.852738   -1.765739    0.223279
     28          1           0        5.758432    0.599731   -0.711601
     29          1           0        5.258564    0.374342    0.961855
     30          1           0        5.221354   -1.794013   -1.194712
     31          1           0        4.721161   -2.020013    0.477511
     32          1           0        7.047935   -1.455832    1.255005
     33          1           0        7.550970   -1.228548   -0.426720
     34          1           0        7.069650   -2.835532    0.143580
 ---------------------------------------------------------------------

 SCF Done:  E(RHF) =  -669.535055734     A.U. after   15 cycles
 E2 =    -0.2091574517D+01 EUMP2 =    -0.67162663025089D+03

 The electronic state is 1-A.
 Alpha  occ. eigenvalues --  -20.60762 -20.60757 -15.85816 -11.31191 -11.27761
 Alpha  occ. eigenvalues --  -11.27754 -11.27496 -11.26787 -11.26769 -11.22344
 Alpha  occ. eigenvalues --  -11.22116 -11.22094 -11.21950 -11.21872 -11.21497
 Alpha  occ. eigenvalues --   -1.59838  -1.39391  -1.19368  -1.09075  -1.08765
 Alpha  occ. eigenvalues --   -1.04768  -1.04164  -0.96620  -0.95597  -0.87633
 Alpha  occ. eigenvalues --   -0.86167  -0.82429  -0.80227  -0.78874  -0.77467
 Alpha  occ. eigenvalues --   -0.72034  -0.71160  -0.70514  -0.65712  -0.65020
 Alpha  occ. eigenvalues --   -0.64771  -0.62113  -0.61575  -0.59987  -0.58224
 Alpha  occ. eigenvalues --   -0.56049  -0.55193  -0.53320  -0.53205  -0.52894
 Alpha  occ. eigenvalues --   -0.52860  -0.50538  -0.48795  -0.48788  -0.48531
 Alpha  occ. eigenvalues --   -0.47262  -0.46415  -0.46342  -0.44794  -0.44419
 Alpha  occ. eigenvalues --   -0.37305  -0.36370
 Alpha virt. eigenvalues --    0.05023   0.11269   0.16402   0.20267   0.22596
 Alpha virt. eigenvalues --    0.23882   0.25804   0.26641   0.26819   0.27745
 Alpha virt. eigenvalues --    0.28934   0.30345   0.31047   0.31494   0.31955

 Mulliken charges:
               1
     1  C   -0.168135
     2  C   -0.219470
     3  C   -0.170745
     4  C    0.158822
     5  C   -0.171026
     6  C   -0.218790
     7  H    0.226108
     8  H    0.223342
     9  H    0.275682
    10  H    0.275704
    11  H    0.224072
    12  N    0.488054
    13  O   -0.460358
    14  O   -0.460414
    15  C   -0.296723
    16  C   -0.300404
    17  C   -0.479383
    18  H    0.152853
    19  H    0.142840
    20  H    0.155428
    21  H    0.149659
    22  H    0.149391
    23  H    0.160884
    24  H    0.159247
    25  C   -0.298671
    26  C   -0.299755
    27  C   -0.476022
    28  H    0.151605
    29  H    0.149212
    30  H    0.153531
    31  H    0.150165
    32  H    0.155215
    33  H    0.156368
    34  H    0.161714
 Sum of Mulliken charges =  -0.00000

 Dipole moment (field-independent basis, Debye):
    X=              4.3799    Y=              2.0711    Z=              2.0563  Tot=              5.2632
 Quadrupole moment (field-independent basis, Debye-Ang):
   XX=           -125.9399   YY=            -91.8023   ZZ=            -94.0781
   XY=            -10.2353   XZ=             -7.7215   YZ=             -1.1482

 Normal termination of Gaussian 16 at Thu May  6 03:10:02 2021.
