 Gaussian 16, Revision A.03,
 Gaussian 16:  EM64L-G16RevA.03 25-Dec-2016

 -------------
 #p 6-31g* mp2
 -------------

 ------------------------------------------------------
 Input file generated by CHIRIPA (05-May-2021 14:51:14)
 ------------------------------------------------------
 Symbolic Z-matrix:
 Charge =  0 Multiplicity = 1

                         Standard orientation:
 ---------------------------------------------------------------------
 Center     Atomic      Atomic             Coordinates (Angstroms)
 Number     Number       Type             X           Y           Z
 ---------------------------------------------------------------------
      1          6           0        3.136389   -0.422014   -0.121054
      2          6           0        3.689778   -1.839194   -0.273844
      3          6           0        2.591597   -2.902639   -0.303481
      4          1           0        2.543185   -0.364380    0.801840
      5          1           0        2.445738   -0.214211   -0.950038
      6          1           0        4.380242   -2.043765    0.554423
      7          1           0        4.281892   -1.893410   -1.196383
      8          1           0        1.907102   -2.726364   -1.139540
      9          1           0        2.006010   -2.877574    0.621214
     10          1           0        3.009401   -3.908242   -0.413310
     11          6           0        4.222112    0.652209   -0.089792
     12          6           0        3.668722    2.069389    0.062999
     13          6           0        4.766903    3.132834    0.092636
     14          1           0        4.912762    0.444405    0.739192
     15          1           0        4.815316    0.594575   -1.012685
     16          1           0        3.076608    2.123605    0.985537
     17          1           0        2.978258    2.273960   -0.765268
     18          1           0        5.352490    3.107769   -0.832059
     19          1           0        5.451399    2.956559    0.928694
     20          1           0        4.349099    4.138437    0.202464
     21          6           0       -3.231113   -0.718939   -0.028670
     22          6           0       -1.911350   -0.677727    0.742376
     23          6           0       -1.025683   -1.892511    0.463653
     24          1           0       -3.773243   -1.637711    0.233815
     25          1           0       -3.017293   -0.778802   -1.104817
     26          1           0       -2.127595   -0.616563    1.816672
     27          1           0       -1.372386    0.241147    0.478168
     28          1           0       -0.780886   -1.954492   -0.601633
     29          1           0       -1.540387   -2.817076    0.744475
     30          1           0       -0.087466   -1.842584    1.025006
     31          6           0       -4.127387    0.488744    0.239516
     32          6           0       -5.447151    0.447532   -0.531529
     33          6           0       -6.332818    1.662317   -0.252808
     34          1           0       -4.341208    0.548607    1.315662
     35          1           0       -3.585257    1.407516   -0.022970
     36          1           0       -5.986114   -0.471342   -0.267323
     37          1           0       -5.230905    0.386368   -1.605826
     38          1           0       -5.818114    2.586881   -0.533630
     39          1           0       -6.577614    1.724297    0.812478
     40          1           0       -7.271034    1.612389   -0.814161
 ---------------------------------------------------------------------

 SCF Done:  E(RHF) =  -470.732619888     A.U. after   11 cycles
 E2 =    -0.1582949123D+01 EUMP2 =    -0.47231556901142D+03

 The electronic state is 1-A.
 Alpha  occ. eigenvalues --  -11.21606 -11.21583 -11.21567 -11.21537 -11.21402
 Alpha  occ. eigenvalues --  -11.21373 -11.21342 -11.21313 -11.21075 -11.21058
 Alpha  occ. eigenvalues --  -11.20962 -11.20957  -1.08425  -1.08390  -1.03537
 Alpha  occ. eigenvalues --   -1.03461  -0.96008  -0.95887  -0.87059  -0.86872
 Alpha  occ. eigenvalues --   -0.79670  -0.79460  -0.78243  -0.78196  -0.65058
 Alpha  occ. eigenvalues --   -0.65024  -0.60940  -0.60877  -0.59473  -0.59195
 Alpha  occ. eigenvalues --   -0.57627  -0.57494  -0.55285  -0.55189  -0.52836
 Alpha  occ. eigenvalues --   -0.52646  -0.52365  -0.52194  -0.49944  -0.49831
 Alpha  occ. eigenvalues --   -0.47904  -0.47838  -0.46633  -0.46545  -0.45790
 Alpha  occ. eigenvalues --   -0.45737  -0.45701  -0.45653  -0.43773  -0.43669
 Alpha virt. eigenvalues --    0.21582   0.23125   0.23510   0.25106   0.25525
 Alpha virt. eigenvalues --    0.26526   0.26912   0.27364   0.28001   0.29101
 Alpha virt. eigenvalues --    0.29594   0.31331   0.31754   0.31928   0.32362

 Mulliken charges:
               1
     1  C   -0.298802
     2  C   -0.300192
     3  C   -0.477147
     4  H    0.149788
     5  H    0.149549
     6  H    0.151515
     7  H    0.151590
     8  H    0.156433
     9  H    0.158340
    10  H    0.159360
    11  C   -0.298275
    12  C   -0.299610
    13  C   -0.475691
    14  H    0.149530
    15  H    0.149717
    16  H    0.151959
    17  H    0.151666
    18  H    0.155178
    19  H    0.155230
    20  H    0.160218
    21  C   -0.298493
    22  C   -0.300259
    23  C   -0.477098
    24  H    0.149538
    25  H    0.149230
    26  H    0.151199
    27  H    0.152191
    28  H    0.155546
    29  H    0.154237
    30  H    0.163813
    31  C   -0.298179
    32  C   -0.299581
    33  C   -0.475672
    34  H    0.149417
    35  H    0.149577
    36  H    0.151905
    37  H    0.151824
    38  H    0.155130
    39  H    0.155145
    40  H    0.160174
 Sum of Mulliken charges =  -0.00000

 Dipole moment (field-independent basis, Debye):
    X=              0.0133    Y=             -0.0154    Z=             -0.0007  Tot=              0.0203
 Quadrupole moment (field-independent basis, Debye-Ang):
   XX=            -85.7971   YY=            -85.9880   ZZ=            -83.1312
   XY=              0.2498   XZ=             -0.2246   YZ=             -0.6128

 Normal termination of Gaussian 16 at Wed May  5 21:37:57 2021.
