 Gaussian 16, Revision A.03,
 Gaussian 16:  EM64L-G16RevA.03 25-Dec-2016

 -------------
 #p 6-31g* mp2
 -------------

 ------------------------------------------------------
 Input file generated by CHIRIPA (05-May-2021 14:55:22)
 ------------------------------------------------------
 Symbolic Z-matrix:
 Charge =  0 Multiplicity = 1

                         Standard orientation:
 ---------------------------------------------------------------------
 Center     Atomic      Atomic             Coordinates (Angstroms)
 Number     Number       Type             X           Y           Z
 ---------------------------------------------------------------------
      1          6           0        5.046276   -0.127457   -0.970131
      2          6           0        4.531980   -1.302689   -0.412591
      3          6           0        3.292323   -1.298613    0.233770
      4          6           0        2.590581   -0.096184    0.304573
      5          6           0        3.076305    1.091122   -0.241015
      6          6           0        4.318081    1.063597   -0.882718
      7          1           0        6.010094   -0.139732   -1.470431
      8          1           0        5.095307   -2.229135   -0.478971
      9          1           0        2.870629   -2.193973    0.674137
     10          1           0        2.491581    1.999298   -0.158969
     11          1           0        4.715022    1.977814   -1.314795
     12          7           0        1.277090   -0.079457    0.986381
     13          8           0        0.678417    0.992843    1.035356
     14          8           0        0.871120   -1.138964    1.458897
     15          6           0       -3.551129    0.820942   -0.561659
     16          6           0       -3.085835    1.903133    0.413200
     17          6           0       -3.007032    3.286610   -0.233001
     18          1           0       -2.864332    0.788402   -1.418511
     19          1           0       -4.536818    1.096610   -0.961433
     20          1           0       -2.101933    1.624822    0.812067
     21          1           0       -3.773711    1.932969    1.267923
     22          1           0       -3.987141    3.589606   -0.615340
     23          1           0       -2.305864    3.279708   -1.073784
     24          1           0       -2.672380    4.045024    0.481615
     25          6           0       -3.634944   -0.567652    0.069619
     26          6           0       -4.100237   -1.649844   -0.905239
     27          6           0       -4.179041   -3.033320   -0.259038
     28          1           0       -2.649255   -0.843320    0.469394
     29          1           0       -4.321742   -0.535112    0.926471
     30          1           0       -3.412362   -1.679680   -1.759962
     31          1           0       -5.084140   -1.371532   -1.304107
     32          1           0       -4.880209   -3.026418    0.581744
     33          1           0       -3.198932   -3.336317    0.123299
     34          1           0       -4.513693   -3.791734   -0.973654
 ---------------------------------------------------------------------

 SCF Done:  E(RHF) =  -669.536699682     A.U. after   15 cycles
 E2 =    -0.2091314667D+01 EUMP2 =    -0.67162801434897D+03

 The electronic state is 1-A.
 Alpha  occ. eigenvalues --  -20.61108 -20.61097 -15.86119 -11.31385 -11.27939
 Alpha  occ. eigenvalues --  -11.27935 -11.27667 -11.26932 -11.26923 -11.20648
 Alpha  occ. eigenvalues --  -11.20205 -11.20187 -11.20089 -11.20033 -11.19955
 Alpha  occ. eigenvalues --   -1.60153  -1.39711  -1.19546  -1.08961  -1.07218
 Alpha  occ. eigenvalues --   -1.04932  -1.02383  -0.95811  -0.94878  -0.86336
 Alpha  occ. eigenvalues --   -0.85901  -0.82647  -0.78443  -0.77706  -0.76998
 Alpha  occ. eigenvalues --   -0.72339  -0.71462  -0.70653  -0.65202  -0.64935
 Alpha  occ. eigenvalues --   -0.63840  -0.62279  -0.59773  -0.58250  -0.56474
 Alpha  occ. eigenvalues --   -0.55439  -0.54173  -0.53268  -0.53023  -0.51607
 Alpha  occ. eigenvalues --   -0.51302  -0.49160  -0.49094  -0.48800  -0.46767
 Alpha  occ. eigenvalues --   -0.45484  -0.45088  -0.44592  -0.44333  -0.42630
 Alpha  occ. eigenvalues --   -0.37522  -0.36531
 Alpha virt. eigenvalues --    0.04800   0.11125   0.16300   0.21259   0.24054
 Alpha virt. eigenvalues --    0.25386   0.27191   0.27783   0.28171   0.28840
 Alpha virt. eigenvalues --    0.29102   0.30860   0.32269   0.32540   0.32931

 Mulliken charges:
               1
     1  C   -0.170365
     2  C   -0.218615
     3  C   -0.170434
     4  C    0.157562
     5  C   -0.170772
     6  C   -0.218575
     7  H    0.226372
     8  H    0.224160
     9  H    0.276004
    10  H    0.276153
    11  H    0.224237
    12  N    0.490362
    13  O   -0.461062
    14  O   -0.459262
    15  C   -0.295666
    16  C   -0.313142
    17  C   -0.473344
    18  H    0.145144
    19  H    0.143116
    20  H    0.183847
    21  H    0.146507
    22  H    0.149210
    23  H    0.150716
    24  H    0.157828
    25  C   -0.302845
    26  C   -0.298112
    27  C   -0.475726
    28  H    0.165188
    29  H    0.146952
    30  H    0.148399
    31  H    0.148090
    32  H    0.153999
    33  H    0.158680
    34  H    0.155394
 Sum of Mulliken charges =  -0.00000

 Dipole moment (field-independent basis, Debye):
    X=              5.0524    Y=             -0.1258    Z=             -2.2388  Tot=              5.5276
 Quadrupole moment (field-independent basis, Debye-Ang):
   XX=            -71.6959   YY=            -91.7628   ZZ=            -97.0380
   XY=             -1.1940   XZ=             -5.7187   YZ=             -0.4967

 Normal termination of Gaussian 16 at Wed May  5 22:16:43 2021.
