 Gaussian 16, Revision A.03,
 Gaussian 16:  EM64L-G16RevA.03 25-Dec-2016

 -------------
 #p 6-31g* mp2
 -------------

 ------------------------------------------------------
 Input file generated by CHIRIPA (05-May-2021 14:53:17)
 ------------------------------------------------------
 Symbolic Z-matrix:
 Charge =  0 Multiplicity = 1

                         Standard orientation:
 ---------------------------------------------------------------------
 Center     Atomic      Atomic             Coordinates (Angstroms)
 Number     Number       Type             X           Y           Z
 ---------------------------------------------------------------------
      1          6           0       -3.547373   -0.134931   -0.074645
      2          6           0       -3.610255   -1.604807   -0.491175
      3          6           0       -4.720733   -2.374928    0.224050
      4          1           0       -3.396350   -0.074447    1.011853
      5          1           0       -4.516413    0.339607   -0.282419
      6          1           0       -2.640940   -2.076087   -0.283957
      7          1           0       -3.760955   -1.661799   -1.576835
      8          1           0       -5.697995   -1.931169    0.008091
      9          1           0       -4.571617   -2.347811    1.308315
     10          1           0       -4.747698   -3.423449   -0.088577
     11          6           0       -2.442212    0.648183   -0.781101
     12          6           0       -2.379330    2.118059   -0.364571
     13          6           0       -1.268852    2.888180   -1.079796
     14          1           0       -1.473172    0.173645   -0.573327
     15          1           0       -2.593235    0.587699   -1.867599
     16          1           0       -2.228630    2.175051    0.721089
     17          1           0       -3.348645    2.589339   -0.571789
     18          1           0       -1.417968    2.861063   -2.164061
     19          1           0       -0.291590    2.444421   -0.863837
     20          1           0       -1.241887    3.936701   -0.767169
     21          6           0        4.013437   -1.329036   -1.179280
     22          6           0        3.073900   -2.094395   -0.480697
     23          6           0        2.141789   -1.479770    0.360704
     24          6           0        2.177869   -0.091385    0.480601
     25          6           0        3.101549    0.698526   -0.202148
     26          6           0        4.024242    0.062529   -1.038025
     27          1           0        4.733865   -1.814792   -1.830755
     28          1           0        3.063167   -3.175280   -0.588469
     29          1           0        1.403489   -2.048139    0.913231
     30          1           0        3.087580    1.774121   -0.074406
     31          1           0        4.752751    0.659447   -1.579328
     32          7           0        1.196070    0.570603    1.368430
     33          8           0        1.248684    1.795365    1.456913
     34          8           0        0.392512   -0.147826    1.959016
 ---------------------------------------------------------------------

 SCF Done:  E(RHF) =  -669.536583677     A.U. after   15 cycles
 E2 =    -0.2092660466D+01 EUMP2 =    -0.67162924414355D+03

 The electronic state is 1-A.
 Alpha  occ. eigenvalues --  -20.61085 -20.61078 -15.86071 -11.31345 -11.27898
 Alpha  occ. eigenvalues --  -11.27891 -11.27622 -11.26891 -11.26881 -11.21017
 Alpha  occ. eigenvalues --  -11.20577 -11.20568 -11.20530 -11.20485 -11.20060
 Alpha  occ. eigenvalues --   -1.60123  -1.39681  -1.19504  -1.08921  -1.07596
 Alpha  occ. eigenvalues --   -1.04890  -1.02719  -0.95771  -0.95179  -0.86294
 Alpha  occ. eigenvalues --   -0.86209  -0.82605  -0.78801  -0.77672  -0.77409
 Alpha  occ. eigenvalues --   -0.72302  -0.71450  -0.70611  -0.65160  -0.64893
 Alpha  occ. eigenvalues --   -0.64186  -0.62238  -0.60085  -0.58577  -0.56799
 Alpha  occ. eigenvalues --   -0.55398  -0.54470  -0.53221  -0.52981  -0.51898
 Alpha  occ. eigenvalues --   -0.51636  -0.49194  -0.49062  -0.49038  -0.47133
 Alpha  occ. eigenvalues --   -0.45838  -0.45012  -0.44928  -0.44820  -0.42974
 Alpha  occ. eigenvalues --   -0.37477  -0.36484
 Alpha virt. eigenvalues --    0.04832   0.11125   0.16280   0.21223   0.23522
 Alpha virt. eigenvalues --    0.24896   0.26849   0.27181   0.28130   0.28480
 Alpha virt. eigenvalues --    0.28758   0.30875   0.31567   0.32490   0.32549

 Mulliken charges:
               1
     1  C   -0.298781
     2  C   -0.298274
     3  C   -0.475630
     4  H    0.159211
     5  H    0.146393
     6  H    0.149861
     7  H    0.148152
     8  H    0.154183
     9  H    0.157445
    10  H    0.156397
    11  C   -0.295941
    12  C   -0.302159
    13  C   -0.474581
    14  H    0.146154
    15  H    0.143387
    16  H    0.167243
    17  H    0.146675
    18  H    0.146082
    19  H    0.156566
    20  H    0.159849
    21  C   -0.170304
    22  C   -0.218349
    23  C   -0.170988
    24  C    0.157543
    25  C   -0.171270
    26  C   -0.218382
    27  H    0.226293
    28  H    0.224136
    29  H    0.275760
    30  H    0.276533
    31  H    0.224237
    32  N    0.488066
    33  O   -0.456527
    34  O   -0.458980
 Sum of Mulliken charges =  -0.00000

 Dipole moment (field-independent basis, Debye):
    X=              3.6749    Y=             -2.3097    Z=             -2.8900  Tot=              5.2145
 Quadrupole moment (field-independent basis, Debye-Ang):
   XX=            -79.8712   YY=            -91.1232   ZZ=            -98.0828
   XY=             -4.3466   XZ=             -5.6793   YZ=             -1.5268

 Normal termination of Gaussian 16 at Thu May  6 18:58:41 2021.
