 Gaussian 16, Revision A.03,
 Gaussian 16:  EM64L-G16RevA.03 25-Dec-2016

 -------------
 #p 6-31g* mp2
 -------------

 ------------------------------------------------------
 Input file generated by CHIRIPA (05-May-2021 14:57:24)
 ------------------------------------------------------
 Symbolic Z-matrix:
 Charge =  0 Multiplicity = 1

                         Standard orientation:
 ---------------------------------------------------------------------
 Center     Atomic      Atomic             Coordinates (Angstroms)
 Number     Number       Type             X           Y           Z
 ---------------------------------------------------------------------
      1          6           0        4.837039   -1.872128    0.628745
      2          6           0        3.933201   -1.242265    1.490644
      3          6           0        3.209245   -0.123989    1.066502
      4          6           0        3.414816    0.339847   -0.231915
      5          6           0        4.308111   -0.265931   -1.114155
      6          6           0        5.021284   -1.382814   -0.668616
      7          1           0        5.395237   -2.740291    0.966539
      8          1           0        3.788079   -1.620083    2.498730
      9          1           0        2.503153    0.382840    1.713012
     10          1           0        4.431333    0.133774   -2.113389
     11          1           0        5.722549   -1.869961   -1.340153
     12          7           0        2.654104    1.522978   -0.692261
     13          8           0        2.853314    1.912134   -1.840960
     14          8           0        1.873051    2.038757    0.104336
     15          6           0       -1.424175    0.568239    1.330737
     16          6           0       -2.607583    1.289176    1.521307
     17          6           0       -3.785945    0.903166    0.875546
     18          6           0       -3.744759   -0.213792    0.042480
     19          6           0       -2.581440   -0.952593   -0.167642
     20          6           0       -1.414896   -0.548376    0.488356
     21          1           0       -0.513386    0.875173    1.836356
     22          1           0       -2.617743    2.156764    2.174936
     23          1           0       -4.715989    1.443188    1.005210
     24          1           0       -2.602442   -1.813116   -0.825273
     25          1           0       -0.497302   -1.110162    0.338483
     26          7           0       -4.985982   -0.632081   -0.646577
     27          8           0       -4.923415   -1.619781   -1.375393
     28          8           0       -5.997916    0.035685   -0.444798
 ---------------------------------------------------------------------

 SCF Done:  E(RHF) =  -868.338399403     A.U. after   16 cycles
 E2 =    -0.2599582431D+01 EUMP2 =    -0.87093798183410D+03

 The electronic state is 1-A.
 Alpha  occ. eigenvalues --  -20.61734 -20.61686 -20.60352 -20.60345 -15.86753
 Alpha  occ. eigenvalues --  -15.85404 -11.32108 -11.30664 -11.28735 -11.28585
 Alpha  occ. eigenvalues --  -11.28320 -11.27670 -11.27590 -11.27273 -11.27236
 Alpha  occ. eigenvalues --  -11.26919 -11.26249 -11.26178  -1.60771  -1.59429
 Alpha  occ. eigenvalues --   -1.40332  -1.38986  -1.20253  -1.18833  -1.09636
 Alpha  occ. eigenvalues --   -1.08230  -1.05650  -1.04239  -0.96483  -0.95084
 Alpha  occ. eigenvalues --   -0.87043  -0.85637  -0.83318  -0.81933  -0.78388
 Alpha  occ. eigenvalues --   -0.77009  -0.72976  -0.72094  -0.71626  -0.71339
 Alpha  occ. eigenvalues --   -0.70751  -0.69906  -0.65897  -0.65633  -0.64490
 Alpha  occ. eigenvalues --   -0.64256  -0.63002  -0.61606  -0.56110  -0.54697
 Alpha  occ. eigenvalues --   -0.53978  -0.53725  -0.52546  -0.52341  -0.49739
 Alpha  occ. eigenvalues --   -0.49704  -0.48385  -0.48375  -0.45732  -0.44416
 Alpha  occ. eigenvalues --   -0.38206  -0.37257  -0.36751  -0.35845
 Alpha virt. eigenvalues --    0.04124   0.05561   0.10343   0.11819   0.15652
 Alpha virt. eigenvalues --    0.17092   0.19634   0.21818   0.25346   0.26973
 Alpha virt. eigenvalues --    0.27672   0.28825   0.30459   0.30953   0.32729

 Mulliken charges:
               1
     1  C   -0.170513
     2  C   -0.218467
     3  C   -0.176657
     4  C    0.158673
     5  C   -0.170370
     6  C   -0.217793
     7  H    0.228947
     8  H    0.225245
     9  H    0.269494
    10  H    0.278519
    11  H    0.227162
    12  N    0.489413
    13  O   -0.453773
    14  O   -0.467582
    15  C   -0.162847
    16  C   -0.219082
    17  C   -0.170600
    18  C    0.157744
    19  C   -0.170759
    20  C   -0.219603
    21  H    0.229614
    22  H    0.223806
    23  H    0.274399
    24  H    0.273138
    25  H    0.217413
    26  N    0.488294
    27  O   -0.462405
    28  O   -0.461409
 Sum of Mulliken charges =  -0.00000

 Dipole moment (field-independent basis, Debye):
    X=              7.4223    Y=             -2.6434    Z=              3.9551  Tot=              8.8160
 Quadrupole moment (field-independent basis, Debye-Ang):
   XX=           -117.4287   YY=           -106.2643   ZZ=           -101.1307
   XY=            -22.9339   XZ=             -7.9360   YZ=              3.1524

 Normal termination of Gaussian 16 at Fri May  7 00:21:53 2021.
