 Gaussian 16, Revision A.03,
 Gaussian 16:  EM64L-G16RevA.03 25-Dec-2016

 -------------
 #p 6-31g* mp2
 -------------

 ------------------------------------------------------
 Input file generated by CHIRIPA (05-May-2021 14:55:19)
 ------------------------------------------------------
 Symbolic Z-matrix:
 Charge =  0 Multiplicity = 1

                         Standard orientation:
 ---------------------------------------------------------------------
 Center     Atomic      Atomic             Coordinates (Angstroms)
 Number     Number       Type             X           Y           Z
 ---------------------------------------------------------------------
      1          6           0       -1.156018   -0.777501    2.347767
      2          6           0       -2.336994   -0.028546    2.318036
      3          6           0       -3.003051    0.199269    1.110139
      4          6           0       -2.457613   -0.339112   -0.054306
      5          6           0       -1.282780   -1.089478   -0.057214
      6          6           0       -0.633601   -1.304647    1.162137
      7          1           0       -0.645165   -0.949562    3.290539
      8          1           0       -2.745016    0.382061    3.237256
      9          1           0       -3.918913    0.775411    1.058420
     10          1           0       -0.900350   -1.485955   -0.989937
     11          1           0        0.283393   -1.886681    1.182217
     12          7           0       -3.153803   -0.104628   -1.339116
     13          8           0       -2.652749   -0.589779   -2.351149
     14          8           0       -4.187349    0.559872   -1.309789
     15          6           0        2.397042    0.953190   -0.176091
     16          6           0        2.781892    2.423358   -0.007323
     17          6           0        1.567102    3.350538    0.041850
     18          1           0        1.808667    0.838133   -1.096701
     19          1           0        1.740829    0.655605    0.653500
     20          1           0        3.438303    2.717701   -0.836239
     21          1           0        3.369581    2.534898    0.912893
     22          1           0        0.913361    3.084895    0.878903
     23          1           0        0.982472    3.268737   -0.880167
     24          1           0        1.865150    4.396663    0.162892
     25          6           0        3.600710    0.013869   -0.226970
     26          6           0        3.215860   -1.456299   -0.395739
     27          6           0        4.430650   -2.383479   -0.444912
     28          1           0        4.256923    0.311453   -1.056562
     29          1           0        4.189085    0.128927    0.693640
     30          1           0        2.628171   -1.567839   -1.315954
     31          1           0        2.559449   -1.750642    0.433177
     32          1           0        5.015280   -2.301678    0.477106
     33          1           0        5.084392   -2.117836   -1.281964
     34          1           0        4.132603   -3.429603   -0.565954
 ---------------------------------------------------------------------

 SCF Done:  E(RHF) =  -669.535264092     A.U. after   15 cycles
 E2 =    -0.2092846749D+01 EUMP2 =    -0.67162811084114D+03

 The electronic state is 1-A.
 Alpha  occ. eigenvalues --  -20.60759 -20.60753 -15.85812 -11.31174 -11.27742
 Alpha  occ. eigenvalues --  -11.27730 -11.27495 -11.26768 -11.26727 -11.22406
 Alpha  occ. eigenvalues --  -11.21897 -11.21861 -11.21694 -11.21677 -11.21221
 Alpha  occ. eigenvalues --   -1.59834  -1.39387  -1.19349  -1.08908  -1.08745
 Alpha  occ. eigenvalues --   -1.04749  -1.03984  -0.96393  -0.95581  -0.87414
 Alpha  occ. eigenvalues --   -0.86154  -0.82417  -0.80095  -0.78713  -0.77442
 Alpha  occ. eigenvalues --   -0.72031  -0.71156  -0.70460  -0.65594  -0.65002
 Alpha  occ. eigenvalues --   -0.64722  -0.62118  -0.61369  -0.59783  -0.58017
 Alpha  occ. eigenvalues --   -0.55670  -0.55263  -0.53175  -0.53089  -0.52868
 Alpha  occ. eigenvalues --   -0.52745  -0.50337  -0.48798  -0.48785  -0.48374
 Alpha  occ. eigenvalues --   -0.47129  -0.46220  -0.46133  -0.44793  -0.44224
 Alpha  occ. eigenvalues --   -0.37326  -0.36296
 Alpha virt. eigenvalues --    0.05067   0.11198   0.16511   0.20050   0.22823
 Alpha virt. eigenvalues --    0.23833   0.25197   0.25686   0.27601   0.28397
 Alpha virt. eigenvalues --    0.29312   0.29831   0.31280   0.31502   0.32108

 Mulliken charges:
               1
     1  C   -0.173907
     2  C   -0.218379
     3  C   -0.170875
     4  C    0.158606
     5  C   -0.171487
     6  C   -0.220168
     7  H    0.225526
     8  H    0.223338
     9  H    0.275587
    10  H    0.276046
    11  H    0.231121
    12  N    0.488111
    13  O   -0.460666
    14  O   -0.460421
    15  C   -0.303008
    16  C   -0.299859
    17  C   -0.476187
    18  H    0.152362
    19  H    0.149901
    20  H    0.153516
    21  H    0.150273
    22  H    0.154018
    23  H    0.159146
    24  H    0.160838
    25  C   -0.297936
    26  C   -0.303786
    27  C   -0.475309
    28  H    0.153137
    29  H    0.149221
    30  H    0.153850
    31  H    0.141732
    32  H    0.155801
    33  H    0.159400
    34  H    0.160456
 Sum of Mulliken charges =  -0.00000

 Dipole moment (field-independent basis, Debye):
    X=              2.5113    Y=             -0.7732    Z=              4.4507  Tot=              5.1685
 Quadrupole moment (field-independent basis, Debye-Ang):
   XX=           -105.0380   YY=            -93.9783   ZZ=            -93.5438
   XY=             -0.3469   XZ=            -13.5381   YZ=             -0.2257

 Normal termination of Gaussian 16 at Thu May  6 01:18:32 2021.
