 Gaussian 16, Revision A.03,
 Gaussian 16:  EM64L-G16RevA.03 25-Dec-2016

 -------------
 #p 6-31g* mp2
 -------------

 ------------------------------------------------------
 Input file generated by CHIRIPA (05-May-2021 14:51:13)
 ------------------------------------------------------
 Symbolic Z-matrix:
 Charge =  0 Multiplicity = 1

                         Standard orientation:
 ---------------------------------------------------------------------
 Center     Atomic      Atomic             Coordinates (Angstroms)
 Number     Number       Type             X           Y           Z
 ---------------------------------------------------------------------
      1          6           0       -3.758501    0.657769   -0.089377
      2          6           0       -3.221117    2.029748    0.319132
      3          6           0       -4.310007    3.102247    0.362225
      4          1           0       -4.236379    0.736966   -1.075433
      5          1           0       -4.544988    0.354979    0.615711
      6          1           0       -2.434915    2.329243   -0.385712
      7          1           0       -2.744294    1.947234    1.304244
      8          1           0       -5.091094    2.829615    1.079285
      9          1           0       -4.779958    3.213794   -0.620274
     10          1           0       -3.903914    4.075062    0.656470
     11          6           0       -2.681830   -0.424931   -0.137014
     12          6           0       -3.219214   -1.796909   -0.545523
     13          6           0       -2.130324   -2.869409   -0.588616
     14          1           0       -1.895343   -0.122140   -0.842102
     15          1           0       -2.203952   -0.504128    0.849042
     16          1           0       -3.696038   -1.714396   -1.530635
     17          1           0       -4.005416   -2.096405    0.159321
     18          1           0       -1.660373   -2.980956    0.393883
     19          1           0       -1.349237   -2.596776   -1.305676
     20          1           0       -2.536417   -3.842224   -0.882861
     21          6           0        3.729257    0.285541   -0.290147
     22          6           0        3.844674    1.742507    0.159202
     23          6           0        4.867079    2.533700   -0.657188
     24          1           0        4.714151   -0.194843   -0.211655
     25          1           0        3.451772    0.257798   -1.352987
     26          1           0        4.120506    1.767490    1.221232
     27          1           0        2.859350    2.219426    0.079812
     28          1           0        4.593075    2.538539   -1.717140
     29          1           0        5.861397    2.084035   -0.569235
     30          1           0        4.933438    3.572551   -0.319184
     31          6           0        2.711074   -0.518380    0.516539
     32          6           0        2.595657   -1.975345    0.067189
     33          6           0        1.573252   -2.766539    0.883579
     34          1           0        2.988558   -0.490637    1.579377
     35          1           0        1.726180   -0.037995    0.438045
     36          1           0        3.580981   -2.452265    0.146579
     37          1           0        2.319825   -2.000328   -0.994842
     38          1           0        0.578934   -2.316874    0.795626
     39          1           0        1.847256   -2.771378    1.943532
     40          1           0        1.506892   -3.805389    0.545575
 ---------------------------------------------------------------------

 SCF Done:  E(RHF) =  -470.732958331     A.U. after   11 cycles
 E2 =    -0.1582848444D+01 EUMP2 =    -0.47231580677466D+03

 The electronic state is 1-A.
 Alpha  occ. eigenvalues --  -11.21636 -11.21624 -11.21578 -11.21537 -11.21458
 Alpha  occ. eigenvalues --  -11.21395 -11.21366 -11.21303 -11.21096 -11.21056
 Alpha  occ. eigenvalues --  -11.21050 -11.20923  -1.08472  -1.08384  -1.03569
 Alpha  occ. eigenvalues --   -1.03468  -0.96036  -0.95901  -0.87074  -0.86898
 Alpha  occ. eigenvalues --   -0.79676  -0.79496  -0.78299  -0.78187  -0.65101
 Alpha  occ. eigenvalues --   -0.65018  -0.60983  -0.60872  -0.59381  -0.59291
 Alpha  occ. eigenvalues --   -0.57678  -0.57505  -0.55356  -0.55171  -0.52711
 Alpha  occ. eigenvalues --   -0.52661  -0.52488  -0.52247  -0.50032  -0.49793
 Alpha  occ. eigenvalues --   -0.48040  -0.47747  -0.46713  -0.46507  -0.45895
 Alpha  occ. eigenvalues --   -0.45753  -0.45704  -0.45541  -0.43818  -0.43732
 Alpha virt. eigenvalues --    0.21487   0.23173   0.23521   0.24951   0.26092
 Alpha virt. eigenvalues --    0.26365   0.27081   0.27343   0.28262   0.29180
 Alpha virt. eigenvalues --    0.30533   0.31451   0.31538   0.32001   0.32108

 Mulliken charges:
               1
     1  C   -0.298183
     2  C   -0.299728
     3  C   -0.475743
     4  H    0.149877
     5  H    0.149839
     6  H    0.151610
     7  H    0.152179
     8  H    0.155319
     9  H    0.155220
    10  H    0.160383
    11  C   -0.299433
    12  C   -0.299810
    13  C   -0.479107
    14  H    0.148895
    15  H    0.149907
    16  H    0.151881
    17  H    0.152085
    18  H    0.160158
    19  H    0.155354
    20  H    0.160373
    21  C   -0.298188
    22  C   -0.299649
    23  C   -0.475664
    24  H    0.149584
    25  H    0.149197
    26  H    0.151879
    27  H    0.151985
    28  H    0.155038
    29  H    0.155154
    30  H    0.160166
    31  C   -0.298900
    32  C   -0.299319
    33  C   -0.480875
    34  H    0.149288
    35  H    0.150383
    36  H    0.151523
    37  H    0.151283
    38  H    0.162285
    39  H    0.153664
    40  H    0.160087
 Sum of Mulliken charges =  -0.00000

 Dipole moment (field-independent basis, Debye):
    X=             -0.0477    Y=             -0.0101    Z=              0.0046  Tot=              0.0490
 Quadrupole moment (field-independent basis, Debye-Ang):
   XX=            -85.2174   YY=            -85.9305   ZZ=            -83.6434
   XY=              0.0033   XZ=              0.6818   YZ=             -0.1044

 Normal termination of Gaussian 16 at Thu May  6 05:32:20 2021.
