 Gaussian 16, Revision A.03,
 Gaussian 16:  EM64L-G16RevA.03 25-Dec-2016

 -------------
 #p 6-31g* mp2
 -------------

 ------------------------------------------------------
 Input file generated by CHIRIPA (05-May-2021 14:51:08)
 ------------------------------------------------------
 Symbolic Z-matrix:
 Charge =  0 Multiplicity = 1

                         Standard orientation:
 ---------------------------------------------------------------------
 Center     Atomic      Atomic             Coordinates (Angstroms)
 Number     Number       Type             X           Y           Z
 ---------------------------------------------------------------------
      1          6           0        3.145903    0.273862   -0.658644
      2          6           0        2.690873    1.690612   -0.306858
      3          6           0        1.439847    2.117609   -1.075233
      4          1           0        3.339263    0.215213   -1.738513
      5          1           0        2.327882   -0.429175   -0.448942
      6          1           0        3.509990    2.390598   -0.515860
      7          1           0        2.498758    1.745946    0.772330
      8          1           0        0.605649    1.442417   -0.858830
      9          1           0        1.622627    2.090732   -2.154339
     10          1           0        1.132069    3.133469   -0.808471
     11          6           0        4.395433   -0.167377    0.101429
     12          6           0        4.850463   -1.584127   -0.250358
     13          6           0        6.101489   -2.011124    0.518018
     14          1           0        5.213454    0.535660   -0.108273
     15          1           0        4.202073   -0.108728    1.181298
     16          1           0        5.042578   -1.639462   -1.329545
     17          1           0        4.031346   -2.284113   -0.041355
     18          1           0        5.918710   -1.984247    1.597124
     19          1           0        6.935688   -1.335933    0.301615
     20          1           0        6.409267   -3.026984    0.251255
     21          6           0       -4.322748   -0.155992   -0.239159
     22          6           0       -5.312735   -1.257692    0.140535
     23          6           0       -6.411302   -1.451364   -0.905139
     24          1           0       -4.868960    0.787017   -0.378194
     25          1           0       -3.867966   -0.399750   -1.209289
     26          1           0       -5.764491   -1.012622    1.110314
     27          1           0       -4.764076   -2.198147    0.278869
     28          1           0       -5.977938   -1.720053   -1.873953
     29          1           0       -6.984036   -0.527792   -1.037783
     30          1           0       -7.107872   -2.243619   -0.613621
     31          6           0       -3.218588    0.049507    0.796375
     32          6           0       -2.228601    1.151208    0.416681
     33          6           0       -1.130034    1.344879    1.462354
     34          1           0       -3.673370    0.293265    1.766504
     35          1           0       -2.672377   -0.893502    0.935409
     36          1           0       -2.777260    2.091662    0.278346
     37          1           0       -1.776846    0.906137   -0.553099
     38          1           0       -0.557300    0.421307    1.594998
     39          1           0       -1.563399    1.613568    2.431169
     40          1           0       -0.433464    2.137134    1.170837
 ---------------------------------------------------------------------

 SCF Done:  E(RHF) =  -470.732072083     A.U. after   11 cycles
 E2 =    -0.1583627310D+01 EUMP2 =    -0.47231569939264D+03

 The electronic state is 1-A.
 Alpha  occ. eigenvalues --  -11.21609 -11.21605 -11.21599 -11.21567 -11.21413
 Alpha  occ. eigenvalues --  -11.21395 -11.21353 -11.21336 -11.21073 -11.21068
 Alpha  occ. eigenvalues --  -11.21018 -11.20977  -1.08454  -1.08402  -1.03606
 Alpha  occ. eigenvalues --   -1.03450  -0.96098  -0.95858  -0.87085  -0.86901
 Alpha  occ. eigenvalues --   -0.79613  -0.79567  -0.78267  -0.78213  -0.65169
 Alpha  occ. eigenvalues --   -0.64983  -0.61247  -0.60754  -0.59450  -0.59211
 Alpha  occ. eigenvalues --   -0.57639  -0.57575  -0.55469  -0.54998  -0.52773
 Alpha  occ. eigenvalues --   -0.52567  -0.52394  -0.52331  -0.49937  -0.49821
 Alpha  occ. eigenvalues --   -0.47962  -0.47842  -0.46724  -0.46512  -0.45830
 Alpha  occ. eigenvalues --   -0.45757  -0.45731  -0.45620  -0.43806  -0.43740
 Alpha virt. eigenvalues --    0.21212   0.23113   0.23567   0.25238   0.26155
 Alpha virt. eigenvalues --    0.26693   0.26944   0.27341   0.27943   0.29131
 Alpha virt. eigenvalues --    0.30029   0.31100   0.31430   0.31997   0.32345

 Mulliken charges:
               1
     1  C   -0.298379
     2  C   -0.300683
     3  C   -0.483958
     4  H    0.149600
     5  H    0.149074
     6  H    0.151780
     7  H    0.153368
     8  H    0.165779
     9  H    0.154946
    10  H    0.158586
    11  C   -0.298345
    12  C   -0.299619
    13  C   -0.475703
    14  H    0.149575
    15  H    0.149834
    16  H    0.151890
    17  H    0.151709
    18  H    0.155227
    19  H    0.155210
    20  H    0.160194
    21  C   -0.298372
    22  C   -0.299649
    23  C   -0.475717
    24  H    0.149774
    25  H    0.149644
    26  H    0.151933
    27  H    0.151869
    28  H    0.155229
    29  H    0.155218
    30  H    0.160249
    31  C   -0.297723
    32  C   -0.303481
    33  C   -0.482983
    34  H    0.149692
    35  H    0.149254
    36  H    0.152507
    37  H    0.154253
    38  H    0.153568
    39  H    0.155724
    40  H    0.168928
 Sum of Mulliken charges =  -0.00000

 Dipole moment (field-independent basis, Debye):
    X=             -0.0165    Y=              0.0145    Z=              0.0013  Tot=              0.0220
 Quadrupole moment (field-independent basis, Debye-Ang):
   XX=            -85.6937   YY=            -84.4528   ZZ=            -84.7285
   XY=             -0.0561   XZ=             -1.6638   YZ=              0.1454

 Normal termination of Gaussian 16 at Thu May  6 08:26:13 2021.
