 Gaussian 16, Revision A.03,
 Gaussian 16:  EM64L-G16RevA.03 25-Dec-2016

 -------------
 #p 6-31g* mp2
 -------------

 ------------------------------------------------------
 Input file generated by CHIRIPA (05-May-2021 14:57:24)
 ------------------------------------------------------
 Symbolic Z-matrix:
 Charge =  0 Multiplicity = 1

                         Standard orientation:
 ---------------------------------------------------------------------
 Center     Atomic      Atomic             Coordinates (Angstroms)
 Number     Number       Type             X           Y           Z
 ---------------------------------------------------------------------
      1          6           0       -1.149485   -0.311825   -0.912105
      2          6           0       -1.703693   -1.369278   -0.183292
      3          6           0       -3.019100   -1.296544    0.284641
      4          6           0       -3.755071   -0.146305    0.004308
      5          6           0       -3.231095    0.923895   -0.719163
      6          6           0       -1.913608    0.829375   -1.177247
      7          1           0       -0.126837   -0.376789   -1.271782
      8          1           0       -1.112609   -2.256773    0.024116
      9          1           0       -3.473027   -2.100511    0.851214
     10          1           0       -3.845016    1.795697   -0.910162
     11          1           0       -1.485811    1.652145   -1.743006
     12          7           0       -5.148735   -0.057773    0.494474
     13          8           0       -5.776274    0.966477    0.234199
     14          8           0       -5.587160   -1.014307    1.129661
     15          6           0        2.778847    2.563170    0.270624
     16          6           0        2.330598    1.774732   -0.794251
     17          6           0        2.737745    0.442460   -0.911843
     18          6           0        3.597550   -0.071347    0.057709
     19          6           0        4.061466    0.688784    1.130216
     20          6           0        3.641330    2.018640    1.227772
     21          1           0        2.457520    3.597173    0.354191
     22          1           0        1.660736    2.194965   -1.539056
     23          1           0        2.406004   -0.190343   -1.726045
     24          1           0        4.728738    0.241883    1.857159
     25          1           0        3.991047    2.628601    2.055835
     26          7           0        4.035455   -1.480484   -0.056175
     27          8           0        4.793349   -1.909515    0.811101
     28          8           0        3.612499   -2.129255   -1.010556
 ---------------------------------------------------------------------

 SCF Done:  E(RHF) =  -868.336820816     A.U. after   16 cycles
 E2 =    -0.2600731251D+01 EUMP2 =    -0.87093755206768D+03

 The electronic state is 1-A.
 Alpha  occ. eigenvalues --  -20.61685 -20.61654 -20.60931 -20.60920 -15.86730
 Alpha  occ. eigenvalues --  -15.85985 -11.32183 -11.31384 -11.28849 -11.28674
 Alpha  occ. eigenvalues --  -11.28439 -11.28011 -11.27920 -11.27862 -11.27726
 Alpha  occ. eigenvalues --  -11.27682 -11.27091 -11.26901  -1.60748  -1.60004
 Alpha  occ. eigenvalues --   -1.40300  -1.39556  -1.20350  -1.19569  -1.09709
 Alpha  occ. eigenvalues --   -1.08963  -1.05783  -1.04980  -0.96541  -0.95790
 Alpha  occ. eigenvalues --   -0.87161  -0.86381  -0.83387  -0.82621  -0.78438
 Alpha  occ. eigenvalues --   -0.77656  -0.72942  -0.72202  -0.72078  -0.71477
 Alpha  occ. eigenvalues --   -0.71328  -0.70676  -0.66000  -0.65783  -0.65224
 Alpha  occ. eigenvalues --   -0.65003  -0.63133  -0.62325  -0.56231  -0.55562
 Alpha  occ. eigenvalues --   -0.54028  -0.53850  -0.53293  -0.53076  -0.49710
 Alpha  occ. eigenvalues --   -0.49692  -0.48964  -0.48954  -0.45688  -0.44954
 Alpha  occ. eigenvalues --   -0.38287  -0.37699  -0.37216  -0.36581
 Alpha virt. eigenvalues --    0.04054   0.04904   0.10171   0.11091   0.15473
 Alpha virt. eigenvalues --    0.16381   0.18561   0.22121   0.25098   0.25377
 Alpha virt. eigenvalues --    0.27758   0.29165   0.30316   0.31030   0.32777

 Mulliken charges:
               1
     1  C   -0.168431
     2  C   -0.221240
     3  C   -0.170224
     4  C    0.158368
     5  C   -0.170672
     6  C   -0.220961
     7  H    0.224065
     8  H    0.230289
     9  H    0.277381
    10  H    0.274901
    11  H    0.215125
    12  N    0.487990
    13  O   -0.461022
    14  O   -0.459041
    15  C   -0.169357
    16  C   -0.216381
    17  C   -0.179322
    18  C    0.159896
    19  C   -0.169815
    20  C   -0.217001
    21  H    0.229220
    22  H    0.219486
    23  H    0.270831
    24  H    0.278897
    25  H    0.227910
    26  N    0.487784
    27  O   -0.455956
    28  O   -0.462721
 Sum of Mulliken charges =  -0.00000

 Dipole moment (field-independent basis, Debye):
    X=              3.5840    Y=              4.6367    Z=             -1.0613  Tot=              5.9558
 Quadrupole moment (field-independent basis, Debye-Ang):
   XX=           -151.5331   YY=           -101.5561   ZZ=           -101.4815
   XY=             18.9407   XZ=             11.1809   YZ=             -0.9633

 Normal termination of Gaussian 16 at Wed May  5 17:55:44 2021.
