 Gaussian 16, Revision A.03,
 Gaussian 16:  EM64L-G16RevA.03 25-Dec-2016

 -------------
 #p 6-31g* mp2
 -------------

 ------------------------------------------------------
 Input file generated by CHIRIPA (05-May-2021 14:53:15)
 ------------------------------------------------------
 Symbolic Z-matrix:
 Charge =  0 Multiplicity = 1

                         Standard orientation:
 ---------------------------------------------------------------------
 Center     Atomic      Atomic             Coordinates (Angstroms)
 Number     Number       Type             X           Y           Z
 ---------------------------------------------------------------------
      1          6           0       -4.327707    0.010875    0.015061
      2          6           0       -3.296308   -1.117907    0.007834
      3          6           0       -1.858030   -0.604031   -0.063450
      4          1           0       -4.199516    0.621896   -0.888911
      5          1           0       -4.130940    0.672472    0.870027
      6          1           0       -3.495810   -1.777957   -0.846069
      7          1           0       -3.427095   -1.726426    0.911834
      8          1           0       -1.635249    0.037754    0.795084
      9          1           0       -1.704354   -0.014070   -0.972807
     10          1           0       -1.137201   -1.427590   -0.067485
     11          6           0       -5.770209   -0.486999    0.086042
     12          6           0       -6.801608    0.641783    0.093269
     13          6           0       -8.239886    0.127907    0.164554
     14          1           0       -5.966976   -1.148597   -0.768924
     15          1           0       -5.898400   -1.098020    0.990014
     16          1           0       -6.670821    1.250302   -0.810731
     17          1           0       -6.602106    1.301832    0.947172
     18          1           0       -8.393562   -0.462055    1.073911
     19          1           0       -8.462667   -0.513878   -0.693980
     20          1           0       -8.960715    0.951465    0.168589
     21          6           0        1.861470    1.572987   -0.360656
     22          6           0        3.058954    2.186540    0.021581
     23          6           0        4.219268    1.427916    0.202438
     24          6           0        4.145877    0.051896   -0.008445
     25          6           0        2.967848   -0.588592   -0.389641
     26          6           0        1.819812    0.189818   -0.564688
     27          1           0        0.964879    2.169988   -0.498894
     28          1           0        3.094255    3.260536    0.180737
     29          1           0        5.159602    1.877153    0.498032
     30          1           0        2.963733   -1.661217   -0.540889
     31          1           0        0.891223   -0.289376   -0.861573
     32          7           0        5.367752   -0.761698    0.179945
     33          8           0        5.276859   -1.972274   -0.012097
     34          8           0        6.393212   -0.173411    0.516079
 ---------------------------------------------------------------------

 SCF Done:  E(RHF) =  -669.535377838     A.U. after   15 cycles
 E2 =    -0.2091193604D+01 EUMP2 =    -0.67162657144177D+03

 The electronic state is 1-A.
 Alpha  occ. eigenvalues --  -20.60684 -20.60679 -15.85735 -11.31076 -11.27641
 Alpha  occ. eigenvalues --  -11.27615 -11.27356 -11.26659 -11.26546 -11.22495
 Alpha  occ. eigenvalues --  -11.22348 -11.22136 -11.22101 -11.21952 -11.21479
 Alpha  occ. eigenvalues --   -1.59760  -1.39314  -1.19237  -1.09134  -1.08635
 Alpha  occ. eigenvalues --   -1.04638  -1.04275  -0.96766  -0.95477  -0.87813
 Alpha  occ. eigenvalues --   -0.86021  -0.82311  -0.80365  -0.78907  -0.77359
 Alpha  occ. eigenvalues --   -0.71954  -0.71082  -0.70347  -0.65757  -0.64885
 Alpha  occ. eigenvalues --   -0.64654  -0.62029  -0.61655  -0.60130  -0.58341
 Alpha  occ. eigenvalues --   -0.56049  -0.55139  -0.53607  -0.53190  -0.52960
 Alpha  occ. eigenvalues --   -0.52559  -0.50689  -0.48717  -0.48711  -0.48656
 Alpha  occ. eigenvalues --   -0.47356  -0.46460  -0.46352  -0.44725  -0.44508
 Alpha  occ. eigenvalues --   -0.37216  -0.36232
 Alpha virt. eigenvalues --    0.05162   0.11379   0.16654   0.20567   0.22317
 Alpha virt. eigenvalues --    0.23764   0.25800   0.26126   0.26668   0.27784
 Alpha virt. eigenvalues --    0.28994   0.30057   0.30644   0.31387   0.32283

 Mulliken charges:
               1
     1  C   -0.299422
     2  C   -0.299378
     3  C   -0.483432
     4  H    0.149047
     5  H    0.149939
     6  H    0.154839
     7  H    0.156437
     8  H    0.159412
     9  H    0.149749
    10  H    0.159499
    11  C   -0.298993
    12  C   -0.300070
    13  C   -0.476089
    14  H    0.150819
    15  H    0.151355
    16  H    0.151939
    17  H    0.152249
    18  H    0.156129
    19  H    0.155948
    20  H    0.161462
    21  C   -0.174060
    22  C   -0.218480
    23  C   -0.171654
    24  C    0.158939
    25  C   -0.173338
    26  C   -0.223873
    27  H    0.225396
    28  H    0.222748
    29  H    0.275065
    30  H    0.274966
    31  H    0.236418
    32  N    0.488012
    33  O   -0.460757
    34  O   -0.460826
 Sum of Mulliken charges =  -0.00000

 Dipole moment (field-independent basis, Debye):
    X=             -4.5985    Y=              2.8291    Z=             -0.6232  Tot=              5.4349
 Quadrupole moment (field-independent basis, Debye-Ang):
   XX=           -130.1609   YY=            -91.2916   ZZ=            -94.2598
   XY=             14.0729   XZ=             -2.0184   YZ=              1.1306

 Normal termination of Gaussian 16 at Thu May  6 15:27:54 2021.
