 Gaussian 16, Revision A.03,
 Gaussian 16:  EM64L-G16RevA.03 25-Dec-2016

 -------------
 #p 6-31g* mp2
 -------------

 ------------------------------------------------------
 Input file generated by CHIRIPA (05-May-2021 14:51:09)
 ------------------------------------------------------
 Symbolic Z-matrix:
 Charge =  0 Multiplicity = 1

                         Standard orientation:
 ---------------------------------------------------------------------
 Center     Atomic      Atomic             Coordinates (Angstroms)
 Number     Number       Type             X           Y           Z
 ---------------------------------------------------------------------
      1          6           0        3.223570    1.138275    0.172554
      2          6           0        1.707359    0.940993    0.185580
      3          6           0        0.950258    2.204917    0.594342
      4          1           0        3.553820    1.458754    1.170138
      5          1           0        3.474004    1.956068   -0.517295
      6          1           0        1.459971    0.122896    0.874153
      7          1           0        1.380705    0.620761   -0.812099
      8          1           0        1.167940    3.025065   -0.097448
      9          1           0        1.247657    2.524371    1.598386
     10          1           0       -0.131935    2.041485    0.596960
     11          6           0        3.994277   -0.116454   -0.234133
     12          6           0        5.510488    0.080829   -0.247158
     13          6           0        6.267589   -1.183096   -0.655920
     14          1           0        3.743843   -0.934247    0.455717
     15          1           0        3.664027   -0.436933   -1.231716
     16          1           0        5.837143    0.401061    0.750521
     17          1           0        5.757876    0.898926   -0.935731
     18          1           0        5.970190   -1.502550   -1.659964
     19          1           0        6.049907   -2.003244    0.035869
     20          1           0        7.349783   -1.019663   -0.658538
     21          6           0       -4.110585   -0.248063   -0.481733
     22          6           0       -5.444918    0.171596    0.135864
     23          6           0       -6.438050    0.695236   -0.902059
     24          1           0       -3.672587    0.609647   -1.010347
     25          1           0       -4.292745   -1.022511   -1.239653
     26          1           0       -5.260154    0.944034    0.893372
     27          1           0       -5.879700   -0.687162    0.663232
     28          1           0       -6.651592   -0.072645   -1.652632
     29          1           0       -6.028525    1.567818   -1.421185
     30          1           0       -7.385001    0.989553   -0.438896
     31          6           0       -3.107262   -0.773757    0.543311
     32          6           0       -1.772929   -1.193418   -0.074287
     33          6           0       -0.779798   -1.717057    0.963638
     34          1           0       -2.925102    0.000690    1.301231
     35          1           0       -3.545261   -1.631469    1.071926
     36          1           0       -1.338148   -0.334660   -0.601653
     37          1           0       -1.957694   -1.965855   -0.831794
     38          1           0       -1.189322   -2.589640    1.482762
     39          1           0       -0.566256   -0.949177    1.714210
     40          1           0        0.167154   -2.011373    0.500474
 ---------------------------------------------------------------------

 SCF Done:  E(RHF) =  -470.732394576     A.U. after   11 cycles
 E2 =    -0.1583779755D+01 EUMP2 =    -0.47231617433117D+03

 The electronic state is 1-A.
 Alpha  occ. eigenvalues --  -11.21601 -11.21593 -11.21583 -11.21488 -11.21407
 Alpha  occ. eigenvalues --  -11.21384 -11.21348 -11.21318 -11.21090 -11.21070
 Alpha  occ. eigenvalues --  -11.21065 -11.21026  -1.08452  -1.08386  -1.03598
 Alpha  occ. eigenvalues --   -1.03442  -0.96028  -0.95924  -0.87042  -0.86948
 Alpha  occ. eigenvalues --   -0.79649  -0.79524  -0.78247  -0.78222  -0.65110
 Alpha  occ. eigenvalues --   -0.65013  -0.61098  -0.60835  -0.59459  -0.59192
 Alpha  occ. eigenvalues --   -0.57649  -0.57499  -0.55346  -0.55160  -0.52737
 Alpha  occ. eigenvalues --   -0.52631  -0.52437  -0.52343  -0.50058  -0.49822
 Alpha  occ. eigenvalues --   -0.47918  -0.47840  -0.46846  -0.46399  -0.45817
 Alpha  occ. eigenvalues --   -0.45771  -0.45699  -0.45544  -0.43782  -0.43736
 Alpha virt. eigenvalues --    0.20434   0.22991   0.23656   0.25246   0.25948
 Alpha virt. eigenvalues --    0.26420   0.26571   0.27502   0.28030   0.29288
 Alpha virt. eigenvalues --    0.30711   0.31225   0.31480   0.31711   0.32654

 Mulliken charges:
               1
     1  C   -0.297599
     2  C   -0.305564
     3  C   -0.478268
     4  H    0.149254
     5  H    0.148931
     6  H    0.161276
     7  H    0.151375
     8  H    0.155289
     9  H    0.155085
    10  H    0.160314
    11  C   -0.298616
    12  C   -0.299527
    13  C   -0.475729
    14  H    0.149404
    15  H    0.149412
    16  H    0.151962
    17  H    0.151961
    18  H    0.155115
    19  H    0.155190
    20  H    0.160236
    21  C   -0.298281
    22  C   -0.299651
    23  C   -0.475719
    24  H    0.149454
    25  H    0.149579
    26  H    0.151969
    27  H    0.151963
    28  H    0.155161
    29  H    0.155221
    30  H    0.160276
    31  C   -0.298934
    32  C   -0.303240
    33  C   -0.477558
    34  H    0.149518
    35  H    0.149807
    36  H    0.155910
    37  H    0.151924
    38  H    0.154851
    39  H    0.156077
    40  H    0.162171
 Sum of Mulliken charges =  -0.00000

 Dipole moment (field-independent basis, Debye):
    X=             -0.0017    Y=             -0.0239    Z=              0.0076  Tot=              0.0252
 Quadrupole moment (field-independent basis, Debye-Ang):
   XX=            -85.9259   YY=            -84.7315   ZZ=            -84.2736
   XY=              1.1875   XZ=             -0.1849   YZ=             -0.1312

 Normal termination of Gaussian 16 at Wed May  5 21:20:31 2021.
