 Gaussian 16, Revision A.03,
 Gaussian 16:  EM64L-G16RevA.03 25-Dec-2016

 -------------
 #p 6-31g* mp2
 -------------

 ------------------------------------------------------
 Input file generated by CHIRIPA (05-May-2021 14:51:09)
 ------------------------------------------------------
 Symbolic Z-matrix:
 Charge =  0 Multiplicity = 1

                         Standard orientation:
 ---------------------------------------------------------------------
 Center     Atomic      Atomic             Coordinates (Angstroms)
 Number     Number       Type             X           Y           Z
 ---------------------------------------------------------------------
      1          6           0       -4.441881    0.852135    0.053030
      2          6           0       -2.935788    0.630839   -0.090839
      3          6           0       -2.132574    1.924799    0.044473
      4          1           0       -4.774354    1.572889   -0.706522
      5          1           0       -4.646290    1.311191    1.030209
      6          1           0       -2.734414    0.171066   -1.066889
      7          1           0       -2.606895   -0.089618    0.669021
      8          1           0       -2.304135    2.384139    1.023337
      9          1           0       -2.432378    2.646304   -0.722436
     10          1           0       -1.058452    1.743529   -0.061653
     11          6           0       -5.258331   -0.432185   -0.079862
     12          6           0       -6.764424   -0.210889    0.064007
     13          6           0       -7.567637   -1.504849   -0.071305
     14          1           0       -5.053921   -0.891241   -1.057041
     15          1           0       -4.925857   -1.152939    0.679691
     16          1           0       -7.093317    0.509568   -0.695853
     17          1           0       -6.965798    0.248884    1.040057
     18          1           0       -7.267833   -2.226354    0.695604
     19          1           0       -7.396077   -1.964189   -1.050169
     20          1           0       -8.641760   -1.323579    0.034821
     21          6           0        5.514248    0.154504   -0.084067
     22          6           0        6.733638   -0.754341    0.074275
     23          6           0        8.054862   -0.010702   -0.123620
     24          1           0        5.533115    0.612054   -1.082684
     25          1           0        5.583846    0.979041    0.638905
     26          1           0        6.661067   -1.577686   -0.647841
     27          1           0        6.711764   -1.209931    1.072562
     28          1           0        8.153626    0.799947    0.605553
     29          1           0        8.102641    0.430102   -1.124625
     30          1           0        8.913373   -0.679272   -0.006004
     31          6           0        4.185964   -0.574453    0.110898
     32          6           0        2.966573    0.334392   -0.047444
     33          6           0        1.645350   -0.409248    0.150452
     34          1           0        4.116366   -1.398991   -0.612074
     35          1           0        4.167097   -1.032005    1.109515
     36          1           0        2.988448    0.789980   -1.045730
     37          1           0        3.039145    1.157737    0.674672
     38          1           0        1.597572   -0.850052    1.151456
     39          1           0        1.546586   -1.219898   -0.578722
     40          1           0        0.786840    0.259322    0.032836
 ---------------------------------------------------------------------

 SCF Done:  E(RHF) =  -470.733326887     A.U. after   11 cycles
 E2 =    -0.1582200164D+01 EUMP2 =    -0.47231552705153D+03

 The electronic state is 1-A.
 Alpha  occ. eigenvalues --  -11.21601 -11.21599 -11.21590 -11.21581 -11.21402
 Alpha  occ. eigenvalues --  -11.21391 -11.21343 -11.21332 -11.21069 -11.21068
 Alpha  occ. eigenvalues --  -11.21061 -11.21060  -1.08429  -1.08415  -1.03541
 Alpha  occ. eigenvalues --   -1.03507  -0.96011  -0.95941  -0.87035  -0.86950
 Alpha  occ. eigenvalues --   -0.79593  -0.79574  -0.78240  -0.78225  -0.65057
 Alpha  occ. eigenvalues --   -0.65045  -0.60925  -0.60910  -0.59644  -0.59136
 Alpha  occ. eigenvalues --   -0.57751  -0.57406  -0.55266  -0.55250  -0.52947
 Alpha  occ. eigenvalues --   -0.52544  -0.52449  -0.52180  -0.49916  -0.49909
 Alpha  occ. eigenvalues --   -0.47977  -0.47823  -0.46623  -0.46609  -0.45785
 Alpha  occ. eigenvalues --   -0.45766  -0.45706  -0.45693  -0.43896  -0.43646
 Alpha virt. eigenvalues --    0.21698   0.22990   0.23346   0.24951   0.26631
 Alpha virt. eigenvalues --    0.26674   0.26722   0.27458   0.27657   0.28726
 Alpha virt. eigenvalues --    0.30187   0.31361   0.31477   0.31804   0.32048

 Mulliken charges:
               1
     1  C   -0.298339
     2  C   -0.299488
     3  C   -0.482234
     4  H    0.149586
     5  H    0.149489
     6  H    0.152086
     7  H    0.152877
     8  H    0.155422
     9  H    0.155371
    10  H    0.165169
    11  C   -0.298274
    12  C   -0.299655
    13  C   -0.475702
    14  H    0.149554
    15  H    0.149777
    16  H    0.151897
    17  H    0.151900
    18  H    0.155199
    19  H    0.155176
    20  H    0.160206
    21  C   -0.298249
    22  C   -0.299650
    23  C   -0.475705
    24  H    0.149658
    25  H    0.149561
    26  H    0.151921
    27  H    0.151932
    28  H    0.155195
    29  H    0.155183
    30  H    0.160241
    31  C   -0.298446
    32  C   -0.299043
    33  C   -0.483793
    34  H    0.149542
    35  H    0.149652
    36  H    0.151865
    37  H    0.151987
    38  H    0.155263
    39  H    0.155456
    40  H    0.167415
 Sum of Mulliken charges =  -0.00000

 Dipole moment (field-independent basis, Debye):
    X=             -0.0030    Y=             -0.0039    Z=              0.0013  Tot=              0.0051
 Quadrupole moment (field-independent basis, Debye-Ang):
   XX=            -86.4220   YY=            -85.6265   ZZ=            -82.7370
   XY=             -1.0045   XZ=              0.1693   YZ=              0.0429

 Normal termination of Gaussian 16 at Wed May  5 22:59:28 2021.
