 Gaussian 16, Revision A.03,
 Gaussian 16:  EM64L-G16RevA.03 25-Dec-2016

 -------------
 #p 6-31g* mp2
 -------------

 ------------------------------------------------------
 Input file generated by CHIRIPA (05-May-2021 14:57:24)
 ------------------------------------------------------
 Symbolic Z-matrix:
 Charge =  0 Multiplicity = 1

                         Standard orientation:
 ---------------------------------------------------------------------
 Center     Atomic      Atomic             Coordinates (Angstroms)
 Number     Number       Type             X           Y           Z
 ---------------------------------------------------------------------
      1          6           0       -1.446566    1.516689   -0.320811
      2          6           0       -1.375373    0.134711   -0.524746
      3          6           0       -2.531565   -0.650021   -0.480430
      4          6           0       -3.747780   -0.017002   -0.228640
      5          6           0       -3.851228    1.357643   -0.021420
      6          6           0       -2.682088    2.122676   -0.070240
      7          1           0       -0.543379    2.118636   -0.356986
      8          1           0       -0.417216   -0.338613   -0.719541
      9          1           0       -2.505142   -1.721891   -0.634750
     10          1           0       -4.820758    1.800960    0.170675
     11          1           0       -2.740385    3.195729    0.088512
     12          7           0       -4.978643   -0.837335   -0.179340
     13          8           0       -6.037980   -0.255570    0.044248
     14          8           0       -4.860749   -2.046544   -0.365220
     15          6           0        1.415632    0.009006    1.584311
     16          6           0        1.978128    1.174038    1.052502
     17          6           0        3.157654    1.115450    0.304281
     18          6           0        3.750771   -0.130497    0.106489
     19          6           0        3.214716   -1.308985    0.623307
     20          6           0        2.034630   -1.226609    1.368397
     21          1           0        0.499130    0.063759    2.164330
     22          1           0        1.499590    2.135007    1.218580
     23          1           0        3.614628    2.001726   -0.118930
     24          1           0        3.714753   -2.252434    0.440863
     25          1           0        1.600042   -2.133028    1.780201
     26          7           0        4.999778   -0.205113   -0.683961
     27          8           0        5.502891   -1.315030   -0.843958
     28          8           0        5.451988    0.847732   -1.128551
 ---------------------------------------------------------------------

 SCF Done:  E(RHF) =  -868.336348550     A.U. after   16 cycles
 E2 =    -0.2602607920D+01 EUMP2 =    -0.87093895647001D+03

 The electronic state is 1-A.
 Alpha  occ. eigenvalues --  -20.61520 -20.61513 -20.61286 -20.61281 -15.86585
 Alpha  occ. eigenvalues --  -15.86339 -11.32133 -11.31810 -11.28811 -11.28751
 Alpha  occ. eigenvalues --  -11.28492 -11.28354 -11.28338 -11.28113 -11.27832
 Alpha  occ. eigenvalues --  -11.27719 -11.27429 -11.27307  -1.60594  -1.60359
 Alpha  occ. eigenvalues --   -1.40141  -1.39909  -1.20379  -1.19978  -1.09742
 Alpha  occ. eigenvalues --   -1.09345  -1.05805  -1.05380  -0.96514  -0.96175
 Alpha  occ. eigenvalues --   -0.87185  -0.86768  -0.83338  -0.82991  -0.78354
 Alpha  occ. eigenvalues --   -0.78027  -0.72796  -0.72554  -0.71926  -0.71686
 Alpha  occ. eigenvalues --   -0.71429  -0.71111  -0.66004  -0.65805  -0.65610
 Alpha  occ. eigenvalues --   -0.65361  -0.63127  -0.62720  -0.56290  -0.55872
 Alpha  occ. eigenvalues --   -0.54292  -0.53846  -0.53670  -0.53315  -0.49569
 Alpha  occ. eigenvalues --   -0.49539  -0.49319  -0.49305  -0.45506  -0.45292
 Alpha  occ. eigenvalues --   -0.38672  -0.37780  -0.37421  -0.36868
 Alpha virt. eigenvalues --    0.04167   0.04453   0.10069   0.10638   0.15538
 Alpha virt. eigenvalues --    0.15986   0.19699   0.21490   0.25256   0.26831
 Alpha virt. eigenvalues --    0.27506   0.28367   0.29794   0.31227   0.31889

 Mulliken charges:
               1
     1  C   -0.178032
     2  C   -0.223991
     3  C   -0.174554
     4  C    0.159463
     5  C   -0.171214
     6  C   -0.218430
     7  H    0.222864
     8  H    0.232190
     9  H    0.276077
    10  H    0.277202
    11  H    0.224059
    12  N    0.487890
    13  O   -0.458740
    14  O   -0.459439
    15  C   -0.172718
    16  C   -0.228214
    17  C   -0.170841
    18  C    0.157803
    19  C   -0.169348
    20  C   -0.224632
    21  H    0.234038
    22  H    0.220713
    23  H    0.277749
    24  H    0.279638
    25  H    0.228549
    26  N    0.488174
    27  O   -0.457466
    28  O   -0.458791
 Sum of Mulliken charges =  -0.00000

 Dipole moment (field-independent basis, Debye):
    X=              0.0647    Y=              3.0054    Z=              2.6377  Tot=              3.9993
 Quadrupole moment (field-independent basis, Debye-Ang):
   XX=           -169.0581   YY=            -96.8505   ZZ=           -105.2712
   XY=            -12.3087   XZ=              9.2001   YZ=             -0.9738

 Normal termination of Gaussian 16 at Fri May  7 08:03:54 2021.
