 Gaussian 16, Revision A.03,
 Gaussian 16:  EM64L-G16RevA.03 25-Dec-2016

 -------------
 #p 6-31g* mp2
 -------------

 ------------------------------------------------------
 Input file generated by CHIRIPA (05-May-2021 14:53:12)
 ------------------------------------------------------
 Symbolic Z-matrix:
 Charge =  0 Multiplicity = 1

                         Standard orientation:
 ---------------------------------------------------------------------
 Center     Atomic      Atomic             Coordinates (Angstroms)
 Number     Number       Type             X           Y           Z
 ---------------------------------------------------------------------
      1          6           0       -4.902439    0.103768    0.169984
      2          6           0       -5.368434    0.441672   -1.246581
      3          6           0       -6.767636    1.057357   -1.277526
      4          1           0       -5.619975   -0.589693    0.629549
      5          1           0       -4.915670    1.017256    0.780524
      6          1           0       -5.353006   -0.471916   -1.854638
      7          1           0       -4.649604    1.134260   -1.702896
      8          1           0       -6.793956    1.983546   -0.694360
      9          1           0       -7.501354    0.368244   -0.846965
     10          1           0       -7.080870    1.291115   -2.299828
     11          6           0       -3.505412   -0.512513    0.217328
     12          6           0       -3.039418   -0.850417    1.633892
     13          6           0       -1.640215   -1.466102    1.664838
     14          1           0       -3.492181   -1.426001   -0.393213
     15          1           0       -2.787877    0.180948   -0.242238
     16          1           0       -3.758247   -1.543004    2.090207
     17          1           0       -3.054846    0.063171    2.241950
     18          1           0       -0.906498   -0.776989    1.234276
     19          1           0       -1.613896   -2.392291    1.081672
     20          1           0       -1.326981   -1.699859    2.687140
     21          6           0        3.416102   -2.262415   -0.845611
     22          6           0        4.526121   -1.426677   -1.006614
     23          6           0        4.464463   -0.083015   -0.625406
     24          6           0        3.271577    0.393823   -0.084170
     25          6           0        2.148577   -0.413778    0.088867
     26          6           0        2.232959   -1.754195   -0.299348
     27          1           0        3.472827   -3.304943   -1.144465
     28          1           0        5.446269   -1.818639   -1.430570
     29          1           0        5.308748    0.586101   -0.738908
     30          1           0        1.245060    0.005711    0.514430
     31          1           0        1.369327   -2.400921   -0.173144
     32          7           0        3.194273    1.814581    0.323108
     33          8           0        2.131746    2.210393    0.797454
     34          8           0        4.197674    2.505455    0.160273
 ---------------------------------------------------------------------

 SCF Done:  E(RHF) =  -669.535603057     A.U. after   15 cycles
 E2 =    -0.2091129180D+01 EUMP2 =    -0.67162673223676D+03

 The electronic state is 1-A.
 Alpha  occ. eigenvalues --  -20.60740 -20.60735 -15.85790 -11.31128 -11.27699
 Alpha  occ. eigenvalues --  -11.27674 -11.27436 -11.26716 -11.26676 -11.22011
 Alpha  occ. eigenvalues --  -11.21842 -11.21712 -11.21681 -11.21535 -11.21131
 Alpha  occ. eigenvalues --   -1.59814  -1.39369  -1.19299  -1.08701  -1.08693
 Alpha  occ. eigenvalues --   -1.04698  -1.03839  -0.96317  -0.95540  -0.87343
 Alpha  occ. eigenvalues --   -0.86098  -0.82371  -0.79914  -0.78484  -0.77419
 Alpha  occ. eigenvalues --   -0.72011  -0.71136  -0.70424  -0.65323  -0.64951
 Alpha  occ. eigenvalues --   -0.64700  -0.62100  -0.61207  -0.59678  -0.57903
 Alpha  occ. eigenvalues --   -0.55638  -0.55192  -0.53040  -0.52998  -0.52817
 Alpha  occ. eigenvalues --   -0.52719  -0.50253  -0.48767  -0.48766  -0.48226
 Alpha  occ. eigenvalues --   -0.46918  -0.46036  -0.45928  -0.44780  -0.44070
 Alpha  occ. eigenvalues --   -0.37284  -0.36297
 Alpha virt. eigenvalues --    0.05109   0.11354   0.16607   0.19964   0.22754
 Alpha virt. eigenvalues --    0.23853   0.25374   0.25935   0.27408   0.27809
 Alpha virt. eigenvalues --    0.29107   0.29877   0.31478   0.31560   0.32218

 Mulliken charges:
               1
     1  C   -0.298835
     2  C   -0.300153
     3  C   -0.475980
     4  H    0.149557
     5  H    0.152336
     6  H    0.150801
     7  H    0.153802
     8  H    0.156614
     9  H    0.154859
    10  H    0.160781
    11  C   -0.299488
    12  C   -0.299218
    13  C   -0.482154
    14  H    0.147286
    15  H    0.151747
    16  H    0.153626
    17  H    0.157938
    18  H    0.151448
    19  H    0.150871
    20  H    0.165318
    21  C   -0.170895
    22  C   -0.218803
    23  C   -0.170565
    24  C    0.160794
    25  C   -0.180144
    26  C   -0.222125
    27  H    0.225395
    28  H    0.223189
    29  H    0.275342
    30  H    0.283951
    31  H    0.226370
    32  N    0.487664
    33  O   -0.460833
    34  O   -0.460496
 Sum of Mulliken charges =  -0.00000

 Dipole moment (field-independent basis, Debye):
    X=              0.1160    Y=             -4.9722    Z=             -1.3890  Tot=              5.1639
 Quadrupole moment (field-independent basis, Debye-Ang):
   XX=            -88.9009   YY=            -98.6559   ZZ=            -94.7698
   XY=            -15.0652   XZ=             -6.7395   YZ=             -0.1710

 Normal termination of Gaussian 16 at Wed May  5 18:30:04 2021.
