 Gaussian 16, Revision A.03,
 Gaussian 16:  EM64L-G16RevA.03 25-Dec-2016

 -------------
 #p 6-31g* mp2
 -------------

 ------------------------------------------------------
 Input file generated by CHIRIPA (05-May-2021 14:51:09)
 ------------------------------------------------------
 Symbolic Z-matrix:
 Charge =  0 Multiplicity = 1

                         Standard orientation:
 ---------------------------------------------------------------------
 Center     Atomic      Atomic             Coordinates (Angstroms)
 Number     Number       Type             X           Y           Z
 ---------------------------------------------------------------------
      1          6           0       -4.243180    0.225722    0.485523
      2          6           0       -2.898650    0.271734   -0.241186
      3          6           0       -1.796079    0.920750    0.596017
      4          1           0       -4.540869    1.247630    0.757611
      5          1           0       -4.123981   -0.326516    1.427977
      6          1           0       -3.020667    0.822531   -1.182648
      7          1           0       -2.604220   -0.750384   -0.511745
      8          1           0       -1.645321    0.368434    1.529195
      9          1           0       -2.064134    1.950286    0.854479
     10          1           0       -0.843582    0.943196    0.057403
     11          6           0       -5.355467   -0.420294   -0.338618
     12          6           0       -6.699997   -0.466306    0.388092
     13          6           0       -7.802568   -1.115321   -0.449112
     14          1           0       -5.474666    0.131945   -1.281072
     15          1           0       -5.057778   -1.442201   -0.610706
     16          1           0       -6.994427    0.555812    0.658650
     17          1           0       -6.577980   -1.017103    1.329554
     18          1           0       -7.534513   -2.144857   -0.707574
     19          1           0       -7.953326   -0.563006   -1.382290
     20          1           0       -8.755065   -1.137767    0.089503
     21          6           0        4.199378    0.439738    0.252468
     22          6           0        3.318263    1.195644   -0.742633
     23          6           0        2.122159    1.875411   -0.075518
     24          1           0        3.591330   -0.312899    0.772813
     25          1           0        4.555821    1.139421    1.021094
     26          1           0        2.964713    0.495026   -1.509935
     27          1           0        3.928525    1.946440   -1.260807
     28          1           0        2.458833    2.595844    0.676964
     29          1           0        1.489545    1.136183    0.426420
     30          1           0        1.505819    2.409920   -0.805098
     31          6           0        5.399269   -0.245166   -0.399373
     32          6           0        6.280384   -1.001073    0.595728
     33          6           0        7.476489   -1.680840   -0.071388
     34          1           0        5.042826   -0.944849   -1.168000
     35          1           0        6.007318    0.507471   -0.919719
     36          1           0        5.670122   -1.751868    1.113902
     37          1           0        6.633934   -0.300454    1.363029
     38          1           0        8.109102   -0.941612   -0.573326
     39          1           0        7.139814   -2.401272   -0.823869
     40          1           0        8.092828   -2.215349    0.658193
 ---------------------------------------------------------------------

 SCF Done:  E(RHF) =  -470.733044973     A.U. after   11 cycles
 E2 =    -0.1582225235D+01 EUMP2 =    -0.47231527020750D+03

 The electronic state is 1-A.
 Alpha  occ. eigenvalues --  -11.21599 -11.21593 -11.21585 -11.21558 -11.21401
 Alpha  occ. eigenvalues --  -11.21377 -11.21341 -11.21317 -11.21069 -11.21059
 Alpha  occ. eigenvalues --  -11.21036 -11.20959  -1.08427  -1.08399  -1.03536
 Alpha  occ. eigenvalues --   -1.03484  -0.96014  -0.95906  -0.87065  -0.86891
 Alpha  occ. eigenvalues --   -0.79641  -0.79508  -0.78240  -0.78211  -0.65060
 Alpha  occ. eigenvalues --   -0.65031  -0.60958  -0.60890  -0.59409  -0.59260
 Alpha  occ. eigenvalues --   -0.57601  -0.57550  -0.55287  -0.55222  -0.52872
 Alpha  occ. eigenvalues --   -0.52545  -0.52383  -0.52273  -0.49906  -0.49861
 Alpha  occ. eigenvalues --   -0.47926  -0.47848  -0.46621  -0.46587  -0.45780
 Alpha  occ. eigenvalues --   -0.45755  -0.45705  -0.45682  -0.43844  -0.43634
 Alpha virt. eigenvalues --    0.22425   0.23002   0.23647   0.24867   0.26532
 Alpha virt. eigenvalues --    0.26684   0.27061   0.27507   0.27573   0.28846
 Alpha virt. eigenvalues --    0.30879   0.31436   0.31734   0.31811   0.31972

 Mulliken charges:
               1
     1  C   -0.298401
     2  C   -0.299296
     3  C   -0.482157
     4  H    0.149622
     5  H    0.149357
     6  H    0.151637
     7  H    0.151305
     8  H    0.153967
     9  H    0.155160
    10  H    0.168479
    11  C   -0.298176
    12  C   -0.299593
    13  C   -0.475676
    14  H    0.149441
    15  H    0.149479
    16  H    0.151932
    17  H    0.151872
    18  H    0.155112
    19  H    0.155151
    20  H    0.160195
    21  C   -0.298554
    22  C   -0.299733
    23  C   -0.480200
    24  H    0.149864
    25  H    0.149615
    26  H    0.151687
    27  H    0.151917
    28  H    0.155537
    29  H    0.160190
    30  H    0.160306
    31  C   -0.298291
    32  C   -0.299651
    33  C   -0.475703
    34  H    0.149481
    35  H    0.149661
    36  H    0.151924
    37  H    0.151954
    38  H    0.155182
    39  H    0.155162
    40  H    0.160245
 Sum of Mulliken charges =  -0.00000

 Dipole moment (field-independent basis, Debye):
    X=              0.0279    Y=              0.0138    Z=              0.0036  Tot=              0.0313
 Quadrupole moment (field-independent basis, Debye-Ang):
   XX=            -86.2145   YY=            -83.6948   ZZ=            -84.9947
   XY=              0.3489   XZ=              0.0846   YZ=             -0.6314

 Normal termination of Gaussian 16 at Thu May  6 05:19:05 2021.
