 Gaussian 16, Revision A.03,
 Gaussian 16:  EM64L-G16RevA.03 25-Dec-2016

 -------------
 #p 6-31g* mp2
 -------------

 ------------------------------------------------------
 Input file generated by CHIRIPA (05-May-2021 14:51:11)
 ------------------------------------------------------
 Symbolic Z-matrix:
 Charge =  0 Multiplicity = 1

                         Standard orientation:
 ---------------------------------------------------------------------
 Center     Atomic      Atomic             Coordinates (Angstroms)
 Number     Number       Type             X           Y           Z
 ---------------------------------------------------------------------
      1          6           0       -2.405479    1.013824   -0.050093
      2          6           0       -3.005187    2.350390    0.388002
      3          6           0       -1.940294    3.382302    0.760765
      4          1           0       -1.777020    0.618216    0.759524
      5          1           0       -1.740298    1.182078   -0.908359
      6          1           0       -3.670114    2.179466    1.244316
      7          1           0       -3.632444    2.742769   -0.422679
      8          1           0       -1.282442    3.582011   -0.091262
      9          1           0       -1.320326    3.015507    1.585205
     10          1           0       -2.390989    4.330222    1.070897
     11          6           0       -3.457554   -0.028096   -0.425947
     12          6           0       -2.857846   -1.364662   -0.864042
     13          6           0       -3.922739   -2.396575   -1.236805
     14          1           0       -4.122735   -0.196351    0.432319
     15          1           0       -4.086013    0.367512   -1.235564
     16          1           0       -2.230589   -1.757042   -0.053361
     17          1           0       -2.192919   -1.193739   -1.720356
     18          1           0       -4.542707   -2.029780   -2.061245
     19          1           0       -4.580591   -2.596283   -0.384778
     20          1           0       -3.472044   -3.344495   -1.546937
     21          6           0        2.395738   -1.035732    0.278860
     22          6           0        1.741179   -1.139224    1.656839
     23          6           0        0.671446   -2.229693    1.722762
     24          1           0        1.620823   -0.837186   -0.474156
     25          1           0        2.842749   -2.005350    0.019214
     26          1           0        1.296735   -0.169304    1.914406
     27          1           0        2.517766   -1.337355    2.406687
     28          1           0        1.104193   -3.208353    1.491344
     29          1           0       -0.123775   -2.033665    0.996266
     30          1           0        0.216590   -2.286312    2.716623
     31          6           0        3.467295    0.050004    0.197180
     32          6           0        4.121854    0.153497   -1.180799
     33          6           0        5.191587    1.243965   -1.246722
     34          1           0        3.020284    1.019623    0.456825
     35          1           0        4.242210   -0.148540    0.950196
     36          1           0        3.345267    0.351628   -1.930647
     37          1           0        4.566298   -0.816423   -1.438366
     38          1           0        5.986808    1.047939   -0.520226
     39          1           0        4.758840    2.222626   -1.015304
     40          1           0        5.646442    1.300584   -2.240583
 ---------------------------------------------------------------------

 SCF Done:  E(RHF) =  -470.733395077     A.U. after   11 cycles
 E2 =    -0.1583078421D+01 EUMP2 =    -0.47231647349765D+03

 The electronic state is 1-A.
 Alpha  occ. eigenvalues --  -11.21649 -11.21630 -11.21593 -11.21585 -11.21456
 Alpha  occ. eigenvalues --  -11.21393 -11.21378 -11.21318 -11.21121 -11.21087
 Alpha  occ. eigenvalues --  -11.21057 -11.21048  -1.08479  -1.08406  -1.03572
 Alpha  occ. eigenvalues --   -1.03513  -0.96016  -0.95966  -0.87040  -0.86978
 Alpha  occ. eigenvalues --   -0.79673  -0.79547  -0.78309  -0.78206  -0.65158
 Alpha  occ. eigenvalues --   -0.64995  -0.61025  -0.60867  -0.59396  -0.59325
 Alpha  occ. eigenvalues --   -0.57643  -0.57561  -0.55304  -0.55263  -0.52714
 Alpha  occ. eigenvalues --   -0.52662  -0.52465  -0.52375  -0.50033  -0.49871
 Alpha  occ. eigenvalues --   -0.48044  -0.47836  -0.46798  -0.46492  -0.45929
 Alpha  occ. eigenvalues --   -0.45770  -0.45693  -0.45513  -0.43824  -0.43769
 Alpha virt. eigenvalues --    0.20625   0.23308   0.23737   0.24076   0.25922
 Alpha virt. eigenvalues --    0.26268   0.27103   0.27845   0.28115   0.29270
 Alpha virt. eigenvalues --    0.30325   0.31507   0.31769   0.31893   0.32087

 Mulliken charges:
               1
     1  C   -0.300554
     2  C   -0.299640
     3  C   -0.475747
     4  H    0.151330
     5  H    0.148993
     6  H    0.152258
     7  H    0.152246
     8  H    0.154971
     9  H    0.154954
    10  H    0.160591
    11  C   -0.297648
    12  C   -0.308365
    13  C   -0.475053
    14  H    0.149749
    15  H    0.149886
    16  H    0.160225
    17  H    0.151406
    18  H    0.155188
    19  H    0.155350
    20  H    0.160614
    21  C   -0.298622
    22  C   -0.299296
    23  C   -0.484810
    24  H    0.150660
    25  H    0.149322
    26  H    0.151867
    27  H    0.151847
    28  H    0.155385
    29  H    0.163551
    30  H    0.159500
    31  C   -0.298443
    32  C   -0.299597
    33  C   -0.475717
    34  H    0.149899
    35  H    0.149488
    36  H    0.151811
    37  H    0.151847
    38  H    0.155158
    39  H    0.155260
    40  H    0.160138
 Sum of Mulliken charges =  -0.00000

 Dipole moment (field-independent basis, Debye):
    X=             -0.0281    Y=             -0.0006    Z=             -0.0080  Tot=              0.0292
 Quadrupole moment (field-independent basis, Debye-Ang):
   XX=            -85.2884   YY=            -85.4831   ZZ=            -83.9421
   XY=             -1.6198   XZ=              0.1322   YZ=             -0.5946

 Normal termination of Gaussian 16 at Thu May  6 05:26:20 2021.
