 Gaussian 16, Revision A.03,
 Gaussian 16:  EM64L-G16RevA.03 25-Dec-2016

 -------------
 #p 6-31g* mp2
 -------------

 ------------------------------------------------------
 Input file generated by CHIRIPA (05-May-2021 14:53:15)
 ------------------------------------------------------
 Symbolic Z-matrix:
 Charge =  0 Multiplicity = 1

                         Standard orientation:
 ---------------------------------------------------------------------
 Center     Atomic      Atomic             Coordinates (Angstroms)
 Number     Number       Type             X           Y           Z
 ---------------------------------------------------------------------
      1          6           0       -2.645620   -0.014476    0.038332
      2          6           0       -3.966731   -0.727074    0.329633
      3          6           0       -3.795075   -2.233721    0.525447
      4          1           0       -2.190206   -0.452912   -0.860176
      5          1           0       -1.946617   -0.200371    0.865515
      6          1           0       -4.663506   -0.538748   -0.497200
      7          1           0       -4.419146   -0.286761    1.227442
      8          1           0       -3.120564   -2.438965    1.363010
      9          1           0       -3.366312   -2.692383   -0.371432
     10          1           0       -4.751820   -2.723229    0.732527
     11          6           0       -2.800890    1.492294   -0.159822
     12          6           0       -1.479779    2.204892   -0.451124
     13          6           0       -1.651435    3.711539   -0.646938
     14          1           0       -3.499893    1.678189   -0.987005
     15          1           0       -3.256304    1.930730    0.738686
     16          1           0       -1.027364    1.764579   -1.348932
     17          1           0       -0.783004    2.016566    0.375710
     18          1           0       -2.080198    4.170201    0.249941
     19          1           0       -2.325946    3.916783   -1.484500
     20          1           0       -0.694691    4.201047   -0.854018
     21          6           0        3.747971    1.241736    0.704224
     22          6           0        3.877896    0.601644   -0.532675
     23          6           0        2.985784   -0.407585   -0.907031
     24          6           0        1.970886   -0.753127   -0.016037
     25          6           0        1.815308   -0.134042    1.223244
     26          6           0        2.718905    0.872502    1.576698
     27          1           0        4.445445    2.024687    0.986914
     28          1           0        4.676122    0.886331   -1.212261
     29          1           0        3.063313   -0.919583   -1.858485
     30          1           0        1.009477   -0.439598    1.879514
     31          1           0        2.615586    1.367881    2.537932
     32          7           0        1.020368   -1.820131   -0.401286
     33          8           0        0.134786   -2.106179    0.401558
     34          8           0        1.178930   -2.350198   -1.498795
 ---------------------------------------------------------------------

 SCF Done:  E(RHF) =  -669.535806169     A.U. after   15 cycles
 E2 =    -0.2093175970D+01 EUMP2 =    -0.67162898213912D+03

 The electronic state is 1-A.
 Alpha  occ. eigenvalues --  -20.60909 -20.60869 -15.85912 -11.31265 -11.27845
 Alpha  occ. eigenvalues --  -11.27824 -11.27566 -11.26850 -11.26834 -11.21364
 Alpha  occ. eigenvalues --  -11.20966 -11.20858 -11.20699 -11.20413 -11.19830
 Alpha  occ. eigenvalues --   -1.59948  -1.39505  -1.19433  -1.08831  -1.07789
 Alpha  occ. eigenvalues --   -1.04837  -1.02884  -0.95672  -0.95310  -0.86323
 Alpha  occ. eigenvalues --   -0.86235  -0.82513  -0.79011  -0.77690  -0.77392
 Alpha  occ. eigenvalues --   -0.72140  -0.71248  -0.70545  -0.65093  -0.64846
 Alpha  occ. eigenvalues --   -0.64434  -0.62188  -0.60297  -0.58746  -0.56903
 Alpha  occ. eigenvalues --   -0.55338  -0.54593  -0.53163  -0.52931  -0.52057
 Alpha  occ. eigenvalues --   -0.51703  -0.49263  -0.48904  -0.48895  -0.47290
 Alpha  occ. eigenvalues --   -0.46071  -0.45511  -0.44955  -0.44373  -0.43127
 Alpha  occ. eigenvalues --   -0.37400  -0.36421
 Alpha virt. eigenvalues --    0.04938   0.11175   0.16416   0.21071   0.23252
 Alpha virt. eigenvalues --    0.24942   0.25985   0.27490   0.27607   0.28619
 Alpha virt. eigenvalues --    0.28978   0.30960   0.31853   0.32114   0.32434

 Mulliken charges:
               1
     1  C   -0.297981
     2  C   -0.300702
     3  C   -0.473341
     4  H    0.155237
     5  H    0.153884
     6  H    0.148163
     7  H    0.145936
     8  H    0.160887
     9  H    0.163731
    10  H    0.152609
    11  C   -0.298302
    12  C   -0.299129
    13  C   -0.474882
    14  H    0.148388
    15  H    0.145771
    16  H    0.151760
    17  H    0.146067
    18  H    0.153576
    19  H    0.156129
    20  H    0.156465
    21  C   -0.170400
    22  C   -0.218304
    23  C   -0.170891
    24  C    0.159639
    25  C   -0.169829
    26  C   -0.218986
    27  H    0.225951
    28  H    0.223736
    29  H    0.275686
    30  H    0.275497
    31  H    0.223789
    32  N    0.488686
    33  O   -0.458388
    34  O   -0.460452
 Sum of Mulliken charges =  -0.00000

 Dipole moment (field-independent basis, Debye):
    X=              3.5272    Y=              3.5405    Z=              1.3263  Tot=              5.1706
 Quadrupole moment (field-independent basis, Debye-Ang):
   XX=            -81.5821   YY=           -102.5722   ZZ=            -90.2081
   XY=              5.0622   XZ=              0.5637   YZ=             -0.1112

 Normal termination of Gaussian 16 at Wed May  5 23:32:25 2021.
