 Gaussian 16, Revision A.03,
 Gaussian 16:  EM64L-G16RevA.03 25-Dec-2016

 -------------
 #p 6-31g* mp2
 -------------

 ------------------------------------------------------
 Input file generated by CHIRIPA (05-May-2021 14:55:24)
 ------------------------------------------------------
 Symbolic Z-matrix:
 Charge =  0 Multiplicity = 1

                         Standard orientation:
 ---------------------------------------------------------------------
 Center     Atomic      Atomic             Coordinates (Angstroms)
 Number     Number       Type             X           Y           Z
 ---------------------------------------------------------------------
      1          6           0        3.471167    1.164696   -1.550953
      2          6           0        2.571844    1.718169   -0.633671
      3          6           0        1.924830    0.907553    0.303785
      4          6           0        2.201902   -0.458630    0.295684
      5          6           0        3.092734   -1.039844   -0.605370
      6          6           0        3.728289   -0.210120   -1.533905
      7          1           0        3.969332    1.801823   -2.275727
      8          1           0        2.370228    2.785538   -0.644591
      9          1           0        1.224029    1.309761    1.025259
     10          1           0        3.273352   -2.107339   -0.570036
     11          1           0        4.426235   -0.642708   -2.245089
     12          7           0        1.523003   -1.326907    1.283404
     13          8           0        1.784296   -2.527570    1.255627
     14          8           0        0.742445   -0.790358    2.066655
     15          6           0       -2.539805    0.815366    0.315847
     16          6           0       -2.553463    2.313842    0.011930
     17          6           0       -1.704980    3.123713    0.992737
     18          1           0       -2.903783    0.651972    1.339452
     19          1           0       -1.502834    0.452762    0.291224
     20          1           0       -3.590231    2.673233    0.035756
     21          1           0       -2.189592    2.473672   -1.011137
     22          1           0       -0.661691    2.793093    0.963746
     23          1           0       -2.070289    2.993788    2.016588
     24          1           0       -1.728931    4.192225    0.757012
     25          6           0       -3.383504   -0.007615   -0.656060
     26          6           0       -3.369845   -1.506093   -0.352143
     27          6           0       -4.218329   -2.315962   -1.332949
     28          1           0       -4.420474    0.354988   -0.631437
     29          1           0       -3.019526    0.155778   -1.679665
     30          1           0       -3.733717   -1.665922    0.670925
     31          1           0       -2.333078   -1.865483   -0.375969
     32          1           0       -3.853020   -2.186038   -2.356800
     33          1           0       -5.261618   -1.985343   -1.303959
     34          1           0       -4.194378   -3.384475   -1.097224
 ---------------------------------------------------------------------

 SCF Done:  E(RHF) =  -669.535570829     A.U. after   15 cycles
 E2 =    -0.2092578419D+01 EUMP2 =    -0.67162814924861D+03

 The electronic state is 1-A.
 Alpha  occ. eigenvalues --  -20.60881 -20.60866 -15.85904 -11.31260 -11.27823
 Alpha  occ. eigenvalues --  -11.27804 -11.27561 -11.26841 -11.26827 -11.21571
 Alpha  occ. eigenvalues --  -11.21325 -11.21087 -11.21025 -11.20958 -11.20658
 Alpha  occ. eigenvalues --   -1.59936  -1.39490  -1.19431  -1.08827  -1.08133
 Alpha  occ. eigenvalues --   -1.04832  -1.03317  -0.95782  -0.95663  -0.86809
 Alpha  occ. eigenvalues --   -0.86229  -0.82494  -0.79372  -0.77906  -0.77519
 Alpha  occ. eigenvalues --   -0.72123  -0.71253  -0.70546  -0.65083  -0.64909
 Alpha  occ. eigenvalues --   -0.64711  -0.62216  -0.60704  -0.59154  -0.57362
 Alpha  occ. eigenvalues --   -0.55356  -0.55070  -0.53158  -0.52934  -0.52504
 Alpha  occ. eigenvalues --   -0.52192  -0.49760  -0.48887  -0.48881  -0.47677
 Alpha  occ. eigenvalues --   -0.46396  -0.45522  -0.45381  -0.44731  -0.43530
 Alpha  occ. eigenvalues --   -0.37408  -0.36423
 Alpha virt. eigenvalues --    0.04951   0.11128   0.16442   0.20174   0.23182
 Alpha virt. eigenvalues --    0.24081   0.25921   0.27163   0.27656   0.28029
 Alpha virt. eigenvalues --    0.29307   0.30735   0.31476   0.31980   0.32199

 Mulliken charges:
               1
     1  C   -0.170780
     2  C   -0.220713
     3  C   -0.179294
     4  C    0.159478
     5  C   -0.170664
     6  C   -0.218554
     7  H    0.225971
     8  H    0.224367
     9  H    0.285184
    10  H    0.275755
    11  H    0.223801
    12  N    0.487156
    13  O   -0.459581
    14  O   -0.458639
    15  C   -0.300231
    16  C   -0.300111
    17  C   -0.475010
    18  H    0.155264
    19  H    0.153842
    20  H    0.152809
    21  H    0.148196
    22  H    0.142390
    23  H    0.162022
    24  H    0.158489
    25  C   -0.298959
    26  C   -0.298948
    27  C   -0.475808
    28  H    0.147751
    29  H    0.145953
    30  H    0.155690
    31  H    0.155709
    32  H    0.152425
    33  H    0.153448
    34  H    0.161594
 Sum of Mulliken charges =  -0.00000

 Dipole moment (field-independent basis, Debye):
    X=              2.4062    Y=              2.9482    Z=             -3.3711  Tot=              5.0839
 Quadrupole moment (field-independent basis, Debye-Ang):
   XX=            -83.1877   YY=            -95.3652   ZZ=            -96.7778
   XY=              3.0642   XZ=             -9.5081   YZ=              3.7603

 Normal termination of Gaussian 16 at Thu May  6 19:18:19 2021.
