 Gaussian 16, Revision A.03,
 Gaussian 16:  EM64L-G16RevA.03 25-Dec-2016

 -------------
 #p 6-31g* mp2
 -------------

 ------------------------------------------------------
 Input file generated by CHIRIPA (05-May-2021 14:51:10)
 ------------------------------------------------------
 Symbolic Z-matrix:
 Charge =  0 Multiplicity = 1

                         Standard orientation:
 ---------------------------------------------------------------------
 Center     Atomic      Atomic             Coordinates (Angstroms)
 Number     Number       Type             X           Y           Z
 ---------------------------------------------------------------------
      1          6           0        2.618280   -0.605981    0.050409
      2          6           0        2.513599   -1.589270   -1.115855
      3          6           0        1.876466   -2.919316   -0.712330
      4          1           0        3.205199   -1.065416    0.857496
      5          1           0        1.614476   -0.423864    0.458583
      6          1           0        3.517137   -1.768410   -1.522593
      7          1           0        1.927022   -1.127368   -1.920336
      8          1           0        0.864455   -2.760229   -0.326162
      9          1           0        2.463605   -3.404913    0.073841
     10          1           0        1.811461   -3.607206   -1.561119
     11          6           0        3.253164    0.728316   -0.337277
     12          6           0        3.357845    1.711604    0.828987
     13          6           0        3.994978    3.041651    0.425462
     14          1           0        4.256968    0.546198   -0.745451
     15          1           0        2.666245    1.187750   -1.144365
     16          1           0        3.944422    1.249702    1.633468
     17          1           0        2.354307    1.890744    1.235724
     18          1           0        3.407839    3.527247   -0.360709
     19          1           0        5.006989    2.882563    0.039294
     20          1           0        4.059983    3.729540    1.274251
     21          6           0       -3.202787    0.421734   -0.384690
     22          6           0       -3.712344    1.739198    0.200651
     23          6           0       -4.243407    2.694802   -0.868269
     24          1           0       -2.409973    0.634567   -1.114822
     25          1           0       -4.017054   -0.063923   -0.940117
     26          1           0       -2.897749    2.221557    0.755971
     27          1           0       -4.503904    1.523193    0.929615
     28          1           0       -5.073381    2.237054   -1.416185
     29          1           0       -3.458100    2.939386   -1.590814
     30          1           0       -4.602511    3.630196   -0.427882
     31          6           0       -2.668658   -0.544069    0.671558
     32          6           0       -2.159100   -1.861533    0.086218
     33          6           0       -1.628036   -2.817137    1.155137
     34          1           0       -1.854390   -0.058411    1.226986
     35          1           0       -3.461471   -0.756902    1.401691
     36          1           0       -1.367540   -1.645527   -0.642747
     37          1           0       -2.973694   -2.343891   -0.469103
     38          1           0       -2.413344   -3.061720    1.877683
     39          1           0       -0.798063   -2.359388    1.703053
     40          1           0       -1.268933   -3.752531    0.714750
 ---------------------------------------------------------------------

 SCF Done:  E(RHF) =  -470.732891047     A.U. after   11 cycles
 E2 =    -0.1583509796D+01 EUMP2 =    -0.47231640084296D+03

 The electronic state is 1-A.
 Alpha  occ. eigenvalues --  -11.21662 -11.21644 -11.21635 -11.21599 -11.21462
 Alpha  occ. eigenvalues --  -11.21439 -11.21402 -11.21380 -11.21106 -11.21097
 Alpha  occ. eigenvalues --  -11.21095 -11.20961  -1.08496  -1.08443  -1.03618
 Alpha  occ. eigenvalues --   -1.03504  -0.96080  -0.95935  -0.87088  -0.86956
 Alpha  occ. eigenvalues --   -0.79648  -0.79594  -0.78298  -0.78269  -0.65255
 Alpha  occ. eigenvalues --   -0.64977  -0.61249  -0.60723  -0.59412  -0.59342
 Alpha  occ. eigenvalues --   -0.57718  -0.57528  -0.55517  -0.55057  -0.52772
 Alpha  occ. eigenvalues --   -0.52659  -0.52475  -0.52315  -0.50034  -0.49832
 Alpha  occ. eigenvalues --   -0.47967  -0.47885  -0.46691  -0.46611  -0.45899
 Alpha  occ. eigenvalues --   -0.45780  -0.45760  -0.45674  -0.43837  -0.43790
 Alpha virt. eigenvalues --    0.19938   0.23419   0.23465   0.24912   0.25919
 Alpha virt. eigenvalues --    0.26766   0.26959   0.27686   0.28398   0.29186
 Alpha virt. eigenvalues --    0.30711   0.30978   0.31490   0.31733   0.32194

 Mulliken charges:
               1
     1  C   -0.299295
     2  C   -0.299253
     3  C   -0.486848
     4  H    0.150009
     5  H    0.148900
     6  H    0.151938
     7  H    0.151087
     8  H    0.169900
     9  H    0.154750
    10  H    0.159468
    11  C   -0.298230
    12  C   -0.299583
    13  C   -0.475715
    14  H    0.149898
    15  H    0.149401
    16  H    0.152125
    17  H    0.151426
    18  H    0.155134
    19  H    0.155334
    20  H    0.160356
    21  C   -0.298287
    22  C   -0.299684
    23  C   -0.475723
    24  H    0.149300
    25  H    0.149835
    26  H    0.151810
    27  H    0.152156
    28  H    0.155316
    29  H    0.155094
    30  H    0.160434
    31  C   -0.298293
    32  C   -0.304145
    33  C   -0.480988
    34  H    0.149241
    35  H    0.150180
    36  H    0.154193
    37  H    0.152760
    38  H    0.157142
    39  H    0.156481
    40  H    0.162374
 Sum of Mulliken charges =  -0.00000

 Dipole moment (field-independent basis, Debye):
    X=             -0.0327    Y=             -0.0164    Z=              0.0163  Tot=              0.0401
 Quadrupole moment (field-independent basis, Debye-Ang):
   XX=            -83.3465   YY=            -86.0931   ZZ=            -85.2024
   XY=              0.0038   XZ=             -0.0615   YZ=              0.4771

 Normal termination of Gaussian 16 at Wed May  5 19:48:10 2021.
