 Gaussian 16, Revision A.03,
 Gaussian 16:  EM64L-G16RevA.03 25-Dec-2016

 -------------
 #p 6-31g* mp2
 -------------

 ------------------------------------------------------
 Input file generated by CHIRIPA (05-May-2021 14:57:22)
 ------------------------------------------------------
 Symbolic Z-matrix:
 Charge =  0 Multiplicity = 1

                         Standard orientation:
 ---------------------------------------------------------------------
 Center     Atomic      Atomic             Coordinates (Angstroms)
 Number     Number       Type             X           Y           Z
 ---------------------------------------------------------------------
      1          6           0        4.464753    1.490941   -0.076791
      2          6           0        4.850855    0.187140   -0.404739
      3          6           0        3.922101   -0.857375   -0.373901
      4          6           0        2.609734   -0.561033   -0.008986
      5          6           0        2.194372    0.727554    0.323141
      6          6           0        3.140079    1.756519    0.285463
      7          1           0        5.192816    2.296305   -0.103404
      8          1           0        5.878927   -0.022047   -0.686440
      9          1           0        4.193939   -1.875930   -0.623036
     10          1           0        1.162291    0.905149    0.600065
     11          1           0        2.837390    2.768103    0.540650
     12          7           0        1.617529   -1.658582    0.027281
     13          8           0        0.467452   -1.371388    0.352056
     14          8           0        2.008705   -2.785254   -0.269753
     15          6           0       -1.910430    2.750910   -0.015270
     16          6           0       -2.585352    2.237386   -1.127609
     17          6           0       -3.067750    0.925209   -1.121962
     18          6           0       -2.856676    0.150947    0.017886
     19          6           0       -2.188039    0.633911    1.141701
     20          6           0       -1.714274    1.948947    1.113843
     21          1           0       -1.539045    3.771351   -0.028285
     22          1           0       -2.739136    2.857913   -2.005871
     23          1           0       -3.593609    0.502360   -1.969363
     24          1           0       -2.049980   -0.008782    2.002690
     25          1           0       -1.190473    2.345103    1.979139
     26          7           0       -3.362800   -1.239710    0.035621
     27          8           0       -3.163977   -1.901471    1.052075
     28          8           0       -3.948738   -1.641613   -0.967269
 ---------------------------------------------------------------------

 SCF Done:  E(RHF) =  -868.336796732     A.U. after   16 cycles
 E2 =    -0.2602301911D+01 EUMP2 =    -0.87093909864335D+03

 The electronic state is 1-A.
 Alpha  occ. eigenvalues --  -20.60835 -20.60799 -20.59905 -20.59838 -15.85881
 Alpha  occ. eigenvalues --  -15.84944 -11.31346 -11.30615 -11.27925 -11.27920
 Alpha  occ. eigenvalues --  -11.27725 -11.27336 -11.27306 -11.27278 -11.27027
 Alpha  occ. eigenvalues --  -11.26958 -11.26481 -11.26413  -1.59886  -1.58923
 Alpha  occ. eigenvalues --   -1.39442  -1.38475  -1.19542  -1.18904  -1.08919
 Alpha  occ. eigenvalues --   -1.08254  -1.04969  -1.04386  -0.95733  -0.95019
 Alpha  occ. eigenvalues --   -0.86362  -0.85767  -0.82573  -0.81871  -0.77611
 Alpha  occ. eigenvalues --   -0.76809  -0.72125  -0.71219  -0.71184  -0.70655
 Alpha  occ. eigenvalues --   -0.70191  -0.70062  -0.65201  -0.64989  -0.64579
 Alpha  occ. eigenvalues --   -0.64424  -0.62328  -0.61711  -0.55471  -0.54948
 Alpha  occ. eigenvalues --   -0.53289  -0.53156  -0.52568  -0.52493  -0.48847
 Alpha  occ. eigenvalues --   -0.48831  -0.47965  -0.47893  -0.44828  -0.43812
 Alpha  occ. eigenvalues --   -0.37537  -0.36930  -0.36571  -0.35960
 Alpha virt. eigenvalues --    0.04919   0.05784   0.11072   0.11601   0.16400
 Alpha virt. eigenvalues --    0.17053   0.20869   0.21867   0.26577   0.27571
 Alpha virt. eigenvalues --    0.28561   0.28602   0.30762   0.31148   0.32441

 Mulliken charges:
               1
     1  C   -0.170483
     2  C   -0.219017
     3  C   -0.169708
     4  C    0.156684
     5  C   -0.175011
     6  C   -0.221125
     7  H    0.225131
     8  H    0.224154
     9  H    0.277087
    10  H    0.278738
    11  H    0.218386
    12  N    0.490593
    13  O   -0.464395
    14  O   -0.456105
    15  C   -0.173211
    16  C   -0.219821
    17  C   -0.169120
    18  C    0.165532
    19  C   -0.151991
    20  C   -0.234559
    21  H    0.219956
    22  H    0.220890
    23  H    0.275853
    24  H    0.280584
    25  H    0.217645
    26  N    0.490811
    27  O   -0.453076
    28  O   -0.464423
 Sum of Mulliken charges =  -0.00000

 Dipole moment (field-independent basis, Debye):
    X=              5.1953    Y=              8.3062    Z=             -0.1768  Tot=              9.7988
 Quadrupole moment (field-independent basis, Debye-Ang):
   XX=            -94.3659   YY=           -107.1273   ZZ=           -101.0841
   XY=             -8.1535   XZ=              0.2755   YZ=              0.3479

 Normal termination of Gaussian 16 at Thu May  6 21:08:05 2021.
