 Gaussian 16, Revision A.03,
 Gaussian 16:  EM64L-G16RevA.03 25-Dec-2016

 -------------
 #p 6-31g* mp2
 -------------

 ------------------------------------------------------
 Input file generated by CHIRIPA (05-May-2021 14:51:14)
 ------------------------------------------------------
 Symbolic Z-matrix:
 Charge =  0 Multiplicity = 1

                         Standard orientation:
 ---------------------------------------------------------------------
 Center     Atomic      Atomic             Coordinates (Angstroms)
 Number     Number       Type             X           Y           Z
 ---------------------------------------------------------------------
      1          6           0        2.464954    0.386783   -0.520835
      2          6           0        3.706595   -0.337950   -0.000187
      3          6           0        4.071770   -1.562597   -0.839641
      4          1           0        1.618989   -0.313951   -0.537009
      5          1           0        2.637219    0.692891   -1.561997
      6          1           0        3.532561   -0.641383    1.040129
      7          1           0        4.549656    0.364642    0.014930
      8          1           0        4.271999   -1.273230   -1.876355
      9          1           0        3.249126   -2.284971   -0.845331
     10          1           0        4.962221   -2.065549   -0.449774
     11          6           0        2.087247    1.613230    0.307954
     12          6           0        0.845606    2.337964   -0.212694
     13          6           0        0.480430    3.562610    0.626760
     14          1           0        1.914981    1.307122    1.349116
     15          1           0        2.933211    2.313964    0.324128
     16          1           0        0.002545    1.635371   -0.227811
     17          1           0        1.019640    2.641396   -1.253009
     18          1           0        1.303075    4.284984    0.632451
     19          1           0        0.280201    3.273243    1.663474
     20          1           0       -0.410021    4.065562    0.236893
     21          6           0       -2.792861   -0.467651    0.288070
     22          6           0       -3.841848   -0.244080   -0.801712
     23          6           0       -4.868696    0.823836   -0.423648
     24          1           0       -3.297576   -0.755980    1.220311
     25          1           0       -2.278066    0.481455    0.491975
     26          1           0       -4.353561   -1.193634   -1.004478
     27          1           0       -3.334563    0.043563   -1.731518
     28          1           0       -4.376138    1.784390   -0.241109
     29          1           0       -5.400924    0.540163    0.490061
     30          1           0       -5.609058    0.967532   -1.216791
     31          6           0       -1.759340   -1.532362   -0.075189
     32          6           0       -0.710352   -1.755933    1.014593
     33          6           0        0.316496   -2.823849    0.636528
     34          1           0       -2.274135   -2.481469   -0.279095
     35          1           0       -1.254624   -1.244033   -1.007430
     36          1           0       -1.217637   -2.043577    1.944398
     37          1           0       -0.198640   -0.806379    1.217359
     38          1           0        0.848724   -2.540177   -0.277181
     39          1           0       -0.176064   -3.784404    0.453989
     40          1           0        1.056857   -2.967544    1.429672
 ---------------------------------------------------------------------

 SCF Done:  E(RHF) =  -470.732143925     A.U. after   11 cycles
 E2 =    -0.1585831357D+01 EUMP2 =    -0.47231797528146D+03

 The electronic state is 1-A.
 Alpha  occ. eigenvalues --  -11.21690 -11.21658 -11.21633 -11.21582 -11.21472
 Alpha  occ. eigenvalues --  -11.21421 -11.21408 -11.21333 -11.21153 -11.21122
 Alpha  occ. eigenvalues --  -11.21091 -11.21016  -1.08554  -1.08404  -1.03623
 Alpha  occ. eigenvalues --   -1.03526  -0.96053  -0.95991  -0.87068  -0.87009
 Alpha  occ. eigenvalues --   -0.79673  -0.79607  -0.78313  -0.78280  -0.65638
 Alpha  occ. eigenvalues --   -0.64676  -0.61204  -0.60754  -0.59416  -0.59361
 Alpha  occ. eigenvalues --   -0.57683  -0.57584  -0.55383  -0.55249  -0.52749
 Alpha  occ. eigenvalues --   -0.52683  -0.52482  -0.52403  -0.50039  -0.49913
 Alpha  occ. eigenvalues --   -0.48061  -0.47882  -0.46746  -0.46630  -0.46089
 Alpha  occ. eigenvalues --   -0.45764  -0.45709  -0.45379  -0.43846  -0.43795
 Alpha virt. eigenvalues --    0.18944   0.21941   0.23454   0.24854   0.25711
 Alpha virt. eigenvalues --    0.26426   0.27088   0.27784   0.28369   0.29607
 Alpha virt. eigenvalues --    0.31000   0.31350   0.31806   0.31969   0.32453

 Mulliken charges:
               1
     1  C   -0.307060
     2  C   -0.298936
     3  C   -0.480467
     4  H    0.158714
     5  H    0.149173
     6  H    0.152059
     7  H    0.151921
     8  H    0.154605
     9  H    0.160140
    10  H    0.160214
    11  C   -0.298415
    12  C   -0.306747
    13  C   -0.475538
    14  H    0.149614
    15  H    0.150235
    16  H    0.156741
    17  H    0.152322
    18  H    0.155713
    19  H    0.155355
    20  H    0.160028
    21  C   -0.302725
    22  C   -0.299624
    23  C   -0.475798
    24  H    0.150016
    25  H    0.153141
    26  H    0.152051
    27  H    0.152342
    28  H    0.155386
    29  H    0.155202
    30  H    0.160411
    31  C   -0.299691
    32  C   -0.305425
    33  C   -0.481768
    34  H    0.150359
    35  H    0.150595
    36  H    0.153321
    37  H    0.155438
    38  H    0.159802
    39  H    0.156351
    40  H    0.160944
 Sum of Mulliken charges =  -0.00000

 Dipole moment (field-independent basis, Debye):
    X=             -0.0268    Y=             -0.0242    Z=              0.0046  Tot=              0.0364
 Quadrupole moment (field-independent basis, Debye-Ang):
   XX=            -84.9314   YY=            -85.2480   ZZ=            -84.5332
   XY=              1.7425   XZ=             -0.2673   YZ=             -1.2103

 Normal termination of Gaussian 16 at Wed May  5 20:01:22 2021.
