 Gaussian 16, Revision A.03,
 Gaussian 16:  EM64L-G16RevA.03 25-Dec-2016

 -------------
 #p 6-31g* mp2
 -------------

 ------------------------------------------------------
 Input file generated by CHIRIPA (05-May-2021 14:57:26)
 ------------------------------------------------------
 Symbolic Z-matrix:
 Charge =  0 Multiplicity = 1

                         Standard orientation:
 ---------------------------------------------------------------------
 Center     Atomic      Atomic             Coordinates (Angstroms)
 Number     Number       Type             X           Y           Z
 ---------------------------------------------------------------------
      1          6           0       -3.829938    2.631672   -0.269760
      2          6           0       -2.606903    1.961920   -0.379936
      3          6           0       -2.548800    0.568684   -0.279612
      4          6           0       -3.738470   -0.126448   -0.068032
      5          6           0       -4.972370    0.512126    0.046001
      6          6           0       -5.006694    1.905917   -0.057518
      7          1           0       -3.865838    3.714187   -0.348935
      8          1           0       -1.691425    2.522966   -0.544777
      9          1           0       -1.615520    0.024846   -0.361145
     10          1           0       -5.868163   -0.074397    0.210209
     11          1           0       -5.957939    2.423399    0.028440
     12          7           0       -3.689546   -1.601699    0.039868
     13          8           0       -4.751831   -2.191109    0.226367
     14          8           0       -2.589840   -2.140655   -0.064103
     15          6           0        1.385812   -0.892449    0.522982
     16          6           0        2.005080   -1.187258   -0.696081
     17          6           0        3.312767   -0.762476   -0.949187
     18          6           0        3.974759   -0.041694    0.043552
     19          6           0        3.384849    0.267701    1.268121
     20          6           0        2.076455   -0.167190    1.499471
     21          1           0        0.369694   -1.226356    0.711151
     22          1           0        1.471132   -1.750336   -1.456270
     23          1           0        3.816081   -0.976880   -1.884133
     24          1           0        3.942564    0.830771    2.006582
     25          1           0        1.598028    0.063212    2.447135
     26          7           0        5.359523    0.413355   -0.212884
     27          8           0        5.921254    1.046874    0.678042
     28          8           0        5.856951    0.127886   -1.299950
 ---------------------------------------------------------------------

 SCF Done:  E(RHF) =  -868.339284743     A.U. after   16 cycles
 E2 =    -0.2599605215D+01 EUMP2 =    -0.87093888995749D+03

 The electronic state is 1-A.
 Alpha  occ. eigenvalues --  -20.61797 -20.61735 -20.60808 -20.60802 -15.86801
 Alpha  occ. eigenvalues --  -15.85859 -11.31997 -11.31219 -11.28585 -11.28491
 Alpha  occ. eigenvalues --  -11.28193 -11.27779 -11.27747 -11.27498 -11.27468
 Alpha  occ. eigenvalues --  -11.27396 -11.26782 -11.26719  -1.60823  -1.59884
 Alpha  occ. eigenvalues --   -1.40390  -1.39437  -1.20138  -1.19373  -1.09553
 Alpha  occ. eigenvalues --   -1.08757  -1.05515  -1.04766  -0.96426  -0.95593
 Alpha  occ. eigenvalues --   -0.86922  -0.86150  -0.83265  -0.82425  -0.78354
 Alpha  occ. eigenvalues --   -0.77487  -0.73031  -0.72132  -0.72074  -0.71262
 Alpha  occ. eigenvalues --   -0.71209  -0.70401  -0.65789  -0.65506  -0.65007
 Alpha  occ. eigenvalues --   -0.64738  -0.62877  -0.62102  -0.56009  -0.55186
 Alpha  occ. eigenvalues --   -0.53849  -0.53588  -0.53097  -0.52833  -0.49797
 Alpha  occ. eigenvalues --   -0.49743  -0.48833  -0.48831  -0.45826  -0.44844
 Alpha  occ. eigenvalues --   -0.38090  -0.37358  -0.37106  -0.36385
 Alpha virt. eigenvalues --    0.04158   0.04989   0.10522   0.11253   0.15715
 Alpha virt. eigenvalues --    0.16343   0.20065   0.21826   0.25923   0.27103
 Alpha virt. eigenvalues --    0.27497   0.28960   0.30502   0.31029   0.32446

 Mulliken charges:
               1
     1  C   -0.170070
     2  C   -0.220291
     3  C   -0.174637
     4  C    0.158439
     5  C   -0.170069
     6  C   -0.218207
     7  H    0.228873
     8  H    0.227457
     9  H    0.270870
    10  H    0.277306
    11  H    0.226326
    12  N    0.490267
    13  O   -0.454107
    14  O   -0.472193
    15  C   -0.186996
    16  C   -0.222183
    17  C   -0.171601
    18  C    0.158478
    19  C   -0.171897
    20  C   -0.220397
    21  H    0.243187
    22  H    0.229691
    23  H    0.275898
    24  H    0.274987
    25  H    0.223815
    26  N    0.487997
    27  O   -0.460837
    28  O   -0.460108
 Sum of Mulliken charges =  -0.00000

 Dipole moment (field-independent basis, Debye):
    X=             -5.3271    Y=              3.6521    Z=              0.5052  Tot=              6.4785
 Quadrupole moment (field-independent basis, Debye-Ang):
   XX=           -136.9691   YY=           -105.9196   ZZ=           -101.4538
   XY=            -26.0597   XZ=              4.1665   YZ=              1.7307

 Normal termination of Gaussian 16 at Thu May  6 19:43:30 2021.
