 Gaussian 16, Revision A.03,
 Gaussian 16:  EM64L-G16RevA.03 25-Dec-2016

 -------------
 #p 6-31g* mp2
 -------------

 ------------------------------------------------------
 Input file generated by CHIRIPA (05-May-2021 14:53:15)
 ------------------------------------------------------
 Symbolic Z-matrix:
 Charge =  0 Multiplicity = 1

                         Standard orientation:
 ---------------------------------------------------------------------
 Center     Atomic      Atomic             Coordinates (Angstroms)
 Number     Number       Type             X           Y           Z
 ---------------------------------------------------------------------
      1          6           0        3.692847   -0.207380    0.285654
      2          6           0        3.935065   -1.281974   -0.774800
      3          6           0        4.563970   -2.550637   -0.197942
      4          1           0        4.646726    0.042180    0.770194
      5          1           0        3.041386   -0.616604    1.070211
      6          1           0        4.584752   -0.870401   -1.557828
      7          1           0        2.980529   -1.528866   -1.257004
      8          1           0        3.916103   -2.987378    0.568953
      9          1           0        5.529440   -2.325172    0.266421
     10          1           0        4.728419   -3.305472   -0.973210
     11          6           0        3.064537    1.066937   -0.275658
     12          6           0        2.822318    2.141531    0.784796
     13          6           0        2.193414    3.410195    0.207938
     14          1           0        3.715998    1.476162   -1.060215
     15          1           0        2.110658    0.817378   -0.760198
     16          1           0        3.776854    2.388424    1.267001
     17          1           0        2.172632    1.729959    1.567824
     18          1           0        1.227943    3.184729   -0.256425
     19          1           0        2.841281    3.846935   -0.558957
     20          1           0        2.028965    4.165030    0.983206
     21          6           0       -0.211527   -0.970319    0.256307
     22          6           0       -0.652432   -0.356841   -0.920880
     23          6           0       -1.995487   -0.000910   -1.076008
     24          6           0       -2.874341   -0.274418   -0.029061
     25          6           0       -2.465574   -0.884434    1.155878
     26          6           0       -1.117907   -1.231696    1.289108
     27          1           0        0.833582   -1.243448    0.368309
     28          1           0        0.049236   -0.152641   -1.724626
     29          1           0       -2.363750    0.475089   -1.976689
     30          1           0       -3.188612   -1.075232    1.939607
     31          1           0       -0.778316   -1.708020    2.204444
     32          7           0       -4.298613    0.097801   -0.181698
     33          8           0       -5.052977   -0.153932    0.755428
     34          8           0       -4.633627    0.634232   -1.235568
 ---------------------------------------------------------------------

 SCF Done:  E(RHF) =  -669.534581683     A.U. after   15 cycles
 E2 =    -0.2093814959D+01 EUMP2 =    -0.67162839664164D+03

 The electronic state is 1-A.
 Alpha  occ. eigenvalues --  -20.60778 -20.60773 -15.85833 -11.31213 -11.27788
 Alpha  occ. eigenvalues --  -11.27784 -11.27485 -11.26794 -11.26783 -11.22824
 Alpha  occ. eigenvalues --  -11.22604 -11.22441 -11.22364 -11.22100 -11.21656
 Alpha  occ. eigenvalues --   -1.59854  -1.39407  -1.19389  -1.09538  -1.08769
 Alpha  occ. eigenvalues --   -1.04796  -1.04478  -0.96927  -0.95610  -0.87932
 Alpha  occ. eigenvalues --   -0.86199  -0.82446  -0.80562  -0.79333  -0.77489
 Alpha  occ. eigenvalues --   -0.72051  -0.71177  -0.70602  -0.66230  -0.65030
 Alpha  occ. eigenvalues --   -0.64721  -0.62156  -0.61883  -0.60290  -0.58526
 Alpha  occ. eigenvalues --   -0.56294  -0.55189  -0.53567  -0.53347  -0.53105
 Alpha  occ. eigenvalues --   -0.52883  -0.50863  -0.48868  -0.48805  -0.48802
 Alpha  occ. eigenvalues --   -0.47635  -0.46822  -0.46786  -0.44809  -0.44765
 Alpha  occ. eigenvalues --   -0.37341  -0.36391
 Alpha virt. eigenvalues --    0.05025   0.11113   0.16438   0.18507   0.22995
 Alpha virt. eigenvalues --    0.23317   0.24496   0.25627   0.26999   0.28329
 Alpha virt. eigenvalues --    0.29935   0.30709   0.30836   0.31147   0.31568

 Mulliken charges:
               1
     1  C   -0.304083
     2  C   -0.302825
     3  C   -0.475318
     4  H    0.157860
     5  H    0.141396
     6  H    0.158210
     7  H    0.143808
     8  H    0.152069
     9  H    0.159548
    10  H    0.164427
    11  C   -0.303123
    12  C   -0.299359
    13  C   -0.476883
    14  H    0.153925
    15  H    0.144928
    16  H    0.154354
    17  H    0.152391
    18  H    0.156711
    19  H    0.155978
    20  H    0.163885
    21  C   -0.175089
    22  C   -0.223554
    23  C   -0.171322
    24  C    0.158239
    25  C   -0.170300
    26  C   -0.221437
    27  H    0.237631
    28  H    0.225188
    29  H    0.275900
    30  H    0.275760
    31  H    0.223662
    32  N    0.488015
    33  O   -0.460313
    34  O   -0.460278
 Sum of Mulliken charges =  -0.00000

 Dipole moment (field-independent basis, Debye):
    X=              5.2029    Y=             -1.2297    Z=              0.5525  Tot=              5.3747
 Quadrupole moment (field-independent basis, Debye-Ang):
   XX=           -122.3530   YY=            -94.5291   ZZ=            -90.7790
   XY=              3.6433   XZ=             -3.0446   YZ=             -1.7697

 Normal termination of Gaussian 16 at Thu May  6 15:31:45 2021.
