 Gaussian 16, Revision A.03,
 Gaussian 16:  EM64L-G16RevA.03 25-Dec-2016

 -------------
 #p 6-31g* mp2
 -------------

 ------------------------------------------------------
 Input file generated by CHIRIPA (05-May-2021 14:51:08)
 ------------------------------------------------------
 Symbolic Z-matrix:
 Charge =  0 Multiplicity = 1

                         Standard orientation:
 ---------------------------------------------------------------------
 Center     Atomic      Atomic             Coordinates (Angstroms)
 Number     Number       Type             X           Y           Z
 ---------------------------------------------------------------------
      1          6           0        3.278388    0.619532   -0.294018
      2          6           0        3.548101    2.060071    0.141972
      3          6           0        2.411091    3.012675   -0.228903
      4          1           0        3.118073    0.595946   -1.380612
      5          1           0        2.343297    0.273107    0.167489
      6          1           0        4.483125    2.403207   -0.319118
      7          1           0        3.707982    2.080203    1.227628
      8          1           0        1.474934    2.697397    0.243126
      9          1           0        2.254481    3.022236   -1.312408
     10          1           0        2.624713    4.036985    0.092057
     11          6           0        4.406047   -0.344727    0.069737
     12          6           0        4.136334   -1.785266   -0.366253
     13          6           0        5.273344   -2.737870    0.004622
     14          1           0        5.341138    0.001698   -0.391770
     15          1           0        4.566362   -0.321141    1.156332
     16          1           0        3.976453   -1.805398   -1.451909
     17          1           0        3.201310   -2.128402    0.094837
     18          1           0        5.429954   -2.747431    1.088127
     19          1           0        6.209501   -2.422592   -0.467407
     20          1           0        5.059722   -3.762180   -0.316338
     21          6           0       -3.202668    0.264457   -0.001514
     22          6           0       -1.987515   -0.310933    0.726714
     23          6           0       -0.715696    0.503957    0.489597
     24          1           0       -2.989572    0.309188   -1.078330
     25          1           0       -3.362793    1.300171    0.328716
     26          1           0       -1.830563   -1.345712    0.396234
     27          1           0       -2.203602   -0.354478    1.801900
     28          1           0       -0.847899    1.533981    0.836257
     29          1           0       -0.472740    0.537115   -0.577396
     30          1           0        0.140575    0.074971    1.019343
     31          6           0       -4.481767   -0.539262    0.225795
     32          6           0       -5.696920    0.036129   -0.502433
     33          6           0       -6.968739   -0.778761   -0.265316
     34          1           0       -4.321643   -1.574976   -0.104435
     35          1           0       -4.694864   -0.583993    1.302611
     36          1           0       -5.480833    0.079673   -1.577620
     37          1           0       -5.853873    1.070906   -0.171953
     38          1           0       -7.211695   -0.811921    0.801678
     39          1           0       -6.836537   -1.808786   -0.611976
     40          1           0       -7.825010   -0.349776   -0.795062
 ---------------------------------------------------------------------

 SCF Done:  E(RHF) =  -470.732664662     A.U. after   11 cycles
 E2 =    -0.1583323690D+01 EUMP2 =    -0.47231598835193D+03

 The electronic state is 1-A.
 Alpha  occ. eigenvalues --  -11.21643 -11.21616 -11.21565 -11.21496 -11.21431
 Alpha  occ. eigenvalues --  -11.21371 -11.21316 -11.21215 -11.21137 -11.21083
 Alpha  occ. eigenvalues --  -11.21043 -11.20916  -1.08462  -1.08345  -1.03576
 Alpha  occ. eigenvalues --   -1.03443  -0.96027  -0.95895  -0.87054  -0.86913
 Alpha  occ. eigenvalues --   -0.79701  -0.79466  -0.78288  -0.78129  -0.65089
 Alpha  occ. eigenvalues --   -0.64995  -0.60969  -0.60860  -0.59433  -0.59232
 Alpha  occ. eigenvalues --   -0.57704  -0.57455  -0.55374  -0.55128  -0.52789
 Alpha  occ. eigenvalues --   -0.52586  -0.52543  -0.52220  -0.50032  -0.49762
 Alpha  occ. eigenvalues --   -0.47995  -0.47762  -0.46667  -0.46546  -0.45858
 Alpha  occ. eigenvalues --   -0.45736  -0.45668  -0.45612  -0.43730  -0.43681
 Alpha virt. eigenvalues --    0.21782   0.22992   0.23758   0.24582   0.25946
 Alpha virt. eigenvalues --    0.26507   0.26852   0.27299   0.27921   0.29307
 Alpha virt. eigenvalues --    0.30238   0.31352   0.31674   0.31866   0.32127

 Mulliken charges:
               1
     1  C   -0.306153
     2  C   -0.298775
     3  C   -0.481683
     4  H    0.148519
     5  H    0.159012
     6  H    0.151267
     7  H    0.150958
     8  H    0.163783
     9  H    0.154182
    10  H    0.159042
    11  C   -0.297784
    12  C   -0.299396
    13  C   -0.475605
    14  H    0.149218
    15  H    0.149014
    16  H    0.151800
    17  H    0.151223
    18  H    0.155052
    19  H    0.155192
    20  H    0.160004
    21  C   -0.298821
    22  C   -0.300471
    23  C   -0.479172
    24  H    0.149953
    25  H    0.149693
    26  H    0.152196
    27  H    0.151845
    28  H    0.155471
    29  H    0.158126
    30  H    0.162000
    31  C   -0.298304
    32  C   -0.299645
    33  C   -0.475719
    34  H    0.149590
    35  H    0.149652
    36  H    0.152025
    37  H    0.151996
    38  H    0.155182
    39  H    0.155204
    40  H    0.160329
 Sum of Mulliken charges =  -0.00000

 Dipole moment (field-independent basis, Debye):
    X=             -0.0730    Y=             -0.0066    Z=              0.0032  Tot=              0.0734
 Quadrupole moment (field-independent basis, Debye-Ang):
   XX=            -86.3747   YY=            -85.4431   ZZ=            -83.3412
   XY=             -0.0078   XZ=             -0.6327   YZ=              0.5353

 Normal termination of Gaussian 16 at Thu May  6 05:16:02 2021.
