 Gaussian 16, Revision A.03,
 Gaussian 16:  EM64L-G16RevA.03 25-Dec-2016

 -------------
 #p 6-31g* mp2
 -------------

 ------------------------------------------------------
 Input file generated by CHIRIPA (05-May-2021 14:55:24)
 ------------------------------------------------------
 Symbolic Z-matrix:
 Charge =  0 Multiplicity = 1

                         Standard orientation:
 ---------------------------------------------------------------------
 Center     Atomic      Atomic             Coordinates (Angstroms)
 Number     Number       Type             X           Y           Z
 ---------------------------------------------------------------------
      1          6           0       -1.342795   -1.452438    2.096738
      2          6           0       -1.146028   -1.916062    0.791802
      3          6           0       -1.607760   -1.177034   -0.301445
      4          6           0       -2.265116    0.026720   -0.052147
      5          6           0       -2.476478    0.515218    1.236257
      6          6           0       -2.006222   -0.240414    2.314417
      7          1           0       -0.980799   -2.032981    2.940138
      8          1           0       -0.631138   -2.856982    0.619752
      9          1           0       -1.468946   -1.512505   -1.322037
     10          1           0       -2.993287    1.456892    1.376172
     11          1           0       -2.160451    0.122101    3.326761
     12          7           0       -2.758443    0.817885   -1.201532
     13          8           0       -3.334586    1.875255   -0.955226
     14          8           0       -2.559630    0.365650   -2.326962
     15          6           0        2.741806   -0.602523    0.024315
     16          6           0        2.613111   -1.548159   -1.170337
     17          6           0        2.507098   -3.015549   -0.754015
     18          1           0        3.626358   -0.883138    0.612337
     19          1           0        1.872994   -0.735689    0.683729
     20          1           0        3.481221   -1.412261   -1.828011
     21          1           0        1.728872   -1.265141   -1.755690
     22          1           0        1.631370   -3.172683   -0.116040
     23          1           0        3.393676   -3.320639   -0.188772
     24          1           0        2.415934   -3.673971   -1.623515
     25          6           0        2.848748    0.867927   -0.375766
     26          6           0        2.977442    1.813564    0.818886
     27          6           0        3.083456    3.280953    0.402563
     28          1           0        3.717560    1.001093   -1.035181
     29          1           0        1.964196    1.148542   -0.963788
     30          1           0        3.861682    1.530545    1.404239
     31          1           0        2.109333    1.677665    1.476559
     32          1           0        2.196878    3.586043   -0.162680
     33          1           0        3.959183    3.438088   -0.235411
     34          1           0        3.174619    3.939375    1.272063
 ---------------------------------------------------------------------

 SCF Done:  E(RHF) =  -669.535530592     A.U. after   15 cycles
 E2 =    -0.2092977504D+01 EUMP2 =    -0.67162850809564D+03

 The electronic state is 1-A.
 Alpha  occ. eigenvalues --  -20.60858 -20.60853 -15.85913 -11.31304 -11.27881
 Alpha  occ. eigenvalues --  -11.27871 -11.27623 -11.26892 -11.26883 -11.21985
 Alpha  occ. eigenvalues --  -11.21742 -11.21713 -11.21610 -11.21472 -11.21082
 Alpha  occ. eigenvalues --   -1.59934  -1.39486  -1.19484  -1.08874  -1.08651
 Alpha  occ. eigenvalues --   -1.04891  -1.03805  -0.96261  -0.95699  -0.87281
 Alpha  occ. eigenvalues --   -0.86283  -0.82530  -0.79870  -0.78442  -0.77576
 Alpha  occ. eigenvalues --   -0.72129  -0.71259  -0.70578  -0.65339  -0.65128
 Alpha  occ. eigenvalues --   -0.64878  -0.62287  -0.61164  -0.59634  -0.57860
 Alpha  occ. eigenvalues --   -0.55609  -0.55343  -0.53214  -0.53028  -0.52962
 Alpha  occ. eigenvalues --   -0.52638  -0.50194  -0.48890  -0.48883  -0.48180
 Alpha  occ. eigenvalues --   -0.46892  -0.45988  -0.45891  -0.44885  -0.44028
 Alpha  occ. eigenvalues --   -0.37444  -0.36458
 Alpha virt. eigenvalues --    0.04942   0.11055   0.16346   0.20022   0.22880
 Alpha virt. eigenvalues --    0.24005   0.25771   0.26281   0.27182   0.28357
 Alpha virt. eigenvalues --    0.28645   0.29969   0.31352   0.31512   0.32304

 Mulliken charges:
               1
     1  C   -0.172305
     2  C   -0.219608
     3  C   -0.172547
     4  C    0.158307
     5  C   -0.170797
     6  C   -0.218514
     7  H    0.226845
     8  H    0.229159
     9  H    0.276620
    10  H    0.276120
    11  H    0.224164
    12  N    0.487972
    13  O   -0.460050
    14  O   -0.460146
    15  C   -0.301990
    16  C   -0.300441
    17  C   -0.477911
    18  H    0.147989
    19  H    0.150875
    20  H    0.155423
    21  H    0.153032
    22  H    0.143396
    23  H    0.157968
    24  H    0.162597
    25  C   -0.298856
    26  C   -0.299738
    27  C   -0.476347
    28  H    0.150339
    29  H    0.153535
    30  H    0.150457
    31  H    0.150506
    32  H    0.158729
    33  H    0.155777
    34  H    0.159438
 Sum of Mulliken charges =  -0.00000

 Dipole moment (field-independent basis, Debye):
    X=              1.7072    Y=             -2.7131    Z=              4.0227  Tot=              5.1437
 Quadrupole moment (field-independent basis, Debye-Ang):
   XX=           -101.5920   YY=            -94.1836   ZZ=            -93.4937
   XY=              4.8756   XZ=            -10.9168   YZ=              2.8319

 Normal termination of Gaussian 16 at Wed May  5 22:24:36 2021.
