 Gaussian 16, Revision A.03,
 Gaussian 16:  EM64L-G16RevA.03 25-Dec-2016

 -------------
 #p 6-31g* mp2
 -------------

 ------------------------------------------------------
 Input file generated by CHIRIPA (05-May-2021 14:51:13)
 ------------------------------------------------------
 Symbolic Z-matrix:
 Charge =  0 Multiplicity = 1

                         Standard orientation:
 ---------------------------------------------------------------------
 Center     Atomic      Atomic             Coordinates (Angstroms)
 Number     Number       Type             X           Y           Z
 ---------------------------------------------------------------------
      1          6           0        3.537346    0.646541    0.202619
      2          6           0        3.077747    2.083934   -0.043661
      3          6           0        4.035661    3.119971    0.545254
      4          1           0        3.639105    0.481040    1.283914
      5          1           0        4.538072    0.509721   -0.230074
      6          1           0        2.077607    2.217609    0.388157
      7          1           0        2.976885    2.245975   -1.124488
      8          1           0        5.033318    3.015371    0.106687
      9          1           0        4.128930    2.986843    1.627926
     10          1           0        3.687907    4.140624    0.357652
     11          6           0        2.590028   -0.400661   -0.380207
     12          6           0        3.049626   -1.838054   -0.133927
     13          6           0        2.091712   -2.874091   -0.722843
     14          1           0        1.589301   -0.263841    0.052485
     15          1           0        2.488268   -0.235159   -1.461502
     16          1           0        3.150488   -2.000095    0.946899
     17          1           0        4.049766   -1.971729   -0.565745
     18          1           0        1.998443   -2.740963   -1.805515
     19          1           0        1.094055   -2.769490   -0.284275
     20          1           0        2.439466   -3.894744   -0.535240
     21          6           0       -3.098135    0.542338   -0.284905
     22          6           0       -4.244995    1.440358    0.180130
     23          6           0       -4.300784    2.767645   -0.576832
     24          1           0       -2.147267    1.078045   -0.159157
     25          1           0       -3.207278    0.347606   -1.360805
     26          1           0       -4.134491    1.632207    1.255118
     27          1           0       -5.193227    0.902379    0.053440
     28          1           0       -4.434898    2.594070   -1.649439
     29          1           0       -3.370146    3.328043   -0.440933
     30          1           0       -5.127936    3.394013   -0.228489
     31          6           0       -3.029238   -0.788218    0.462493
     32          6           0       -1.882379   -1.686238   -0.002542
     33          6           0       -1.826589   -3.013525    0.754420
     34          1           0       -2.920095   -0.593486    1.538394
     35          1           0       -3.980106   -1.323924    0.336746
     36          1           0       -0.934146   -1.148259    0.124148
     37          1           0       -1.992882   -1.878087   -1.077530
     38          1           0       -2.757227   -3.573923    0.618522
     39          1           0       -1.692475   -2.839949    1.827027
     40          1           0       -0.999437   -3.639893    0.406078
 ---------------------------------------------------------------------

 SCF Done:  E(RHF) =  -470.732827282     A.U. after   11 cycles
 E2 =    -0.1583611375D+01 EUMP2 =    -0.47231643865759D+03

 The electronic state is 1-A.
 Alpha  occ. eigenvalues --  -11.21625 -11.21616 -11.21610 -11.21593 -11.21420
 Alpha  occ. eigenvalues --  -11.21420 -11.21361 -11.21360 -11.21089 -11.21075
 Alpha  occ. eigenvalues --  -11.21074 -11.21001  -1.08463  -1.08426  -1.03584
 Alpha  occ. eigenvalues --   -1.03498  -0.96044  -0.95936  -0.87056  -0.86955
 Alpha  occ. eigenvalues --   -0.79643  -0.79570  -0.78328  -0.78185  -0.65169
 Alpha  occ. eigenvalues --   -0.64995  -0.61089  -0.60841  -0.59434  -0.59300
 Alpha  occ. eigenvalues --   -0.57779  -0.57450  -0.55332  -0.55200  -0.52775
 Alpha  occ. eigenvalues --   -0.52648  -0.52522  -0.52240  -0.49955  -0.49869
 Alpha  occ. eigenvalues --   -0.47949  -0.47885  -0.46788  -0.46534  -0.46002
 Alpha  occ. eigenvalues --   -0.45766  -0.45750  -0.45406  -0.43820  -0.43767
 Alpha virt. eigenvalues --    0.20850   0.23277   0.23324   0.24906   0.25135
 Alpha virt. eigenvalues --    0.26656   0.27045   0.27095   0.28770   0.29258
 Alpha virt. eigenvalues --    0.30550   0.30859   0.31606   0.31765   0.31995

 Mulliken charges:
               1
     1  C   -0.298124
     2  C   -0.299487
     3  C   -0.475716
     4  H    0.149534
     5  H    0.149817
     6  H    0.151178
     7  H    0.152211
     8  H    0.155327
     9  H    0.155150
    10  H    0.160292
    11  C   -0.302747
    12  C   -0.299060
    13  C   -0.485482
    14  H    0.152860
    15  H    0.150039
    16  H    0.151615
    17  H    0.151887
    18  H    0.155039
    19  H    0.166629
    20  H    0.159602
    21  C   -0.298285
    22  C   -0.299680
    23  C   -0.475712
    24  H    0.149458
    25  H    0.149798
    26  H    0.151809
    27  H    0.152010
    28  H    0.155259
    29  H    0.155241
    30  H    0.160255
    31  C   -0.297935
    32  C   -0.306167
    33  C   -0.480444
    34  H    0.149213
    35  H    0.149903
    36  H    0.156686
    37  H    0.153033
    38  H    0.155976
    39  H    0.154781
    40  H    0.164238
 Sum of Mulliken charges =  -0.00000

 Dipole moment (field-independent basis, Debye):
    X=             -0.0142    Y=             -0.0046    Z=             -0.0128  Tot=              0.0197
 Quadrupole moment (field-independent basis, Debye-Ang):
   XX=            -84.5419   YY=            -86.3676   ZZ=            -83.8610
   XY=             -0.0003   XZ=             -0.2913   YZ=              0.4214

 Normal termination of Gaussian 16 at Thu May  6 02:24:26 2021.
