 Gaussian 16, Revision A.03,
 Gaussian 16:  EM64L-G16RevA.03 25-Dec-2016

 -------------
 #p 6-31g* mp2
 -------------

 ------------------------------------------------------
 Input file generated by CHIRIPA (05-May-2021 14:53:13)
 ------------------------------------------------------
 Symbolic Z-matrix:
 Charge =  0 Multiplicity = 1

                         Standard orientation:
 ---------------------------------------------------------------------
 Center     Atomic      Atomic             Coordinates (Angstroms)
 Number     Number       Type             X           Y           Z
 ---------------------------------------------------------------------
      1          6           0       -3.937047    0.261495    0.251227
      2          6           0       -3.023687    1.136220   -0.608200
      3          6           0       -1.750786    1.560673    0.124845
      4          1           0       -4.203999    0.808790    1.165639
      5          1           0       -3.382497   -0.631265    0.571925
      6          1           0       -3.580226    2.026389   -0.928327
      7          1           0       -2.759034    0.586853   -1.520762
      8          1           0       -1.171473    0.683383    0.430393
      9          1           0       -1.997331    2.131098    1.026195
     10          1           0       -1.112439    2.185212   -0.507867
     11          6           0       -5.213694   -0.170875   -0.467771
     12          6           0       -6.127054   -1.045600    0.391655
     13          6           0       -7.399956   -1.470053   -0.341389
     14          1           0       -5.768244    0.721886   -0.788470
     15          1           0       -4.946742   -0.718170   -1.382184
     16          1           0       -6.391707   -0.496232    1.304217
     17          1           0       -5.570515   -1.935768    0.711782
     18          1           0       -7.153410   -2.040477   -1.242739
     19          1           0       -7.979268   -0.592762   -0.646938
     20          1           0       -8.038303   -2.094592    0.291323
     21          6           0        1.836567    1.700198    0.661812
     22          6           0        2.624100    1.852304   -0.484127
     23          6           0        3.590093    0.896914   -0.813727
     24          6           0        3.742526   -0.203190    0.028784
     25          6           0        2.973321   -0.382899    1.177399
     26          6           0        2.013379    0.585048    1.487463
     27          1           0        1.088511    2.447245    0.910264
     28          1           0        2.488979    2.717332   -1.127179
     29          1           0        4.213392    0.989821   -1.694797
     30          1           0        3.131142   -1.255871    1.799036
     31          1           0        1.403199    0.464315    2.378051
     32          7           0        4.761977   -1.221265   -0.309807
     33          8           0        4.876746   -2.181451    0.448815
     34          8           0        5.426949   -1.039769   -1.327406
 ---------------------------------------------------------------------

 SCF Done:  E(RHF) =  -669.535239479     A.U. after   15 cycles
 E2 =    -0.2091528656D+01 EUMP2 =    -0.67162676813510D+03

 The electronic state is 1-A.
 Alpha  occ. eigenvalues --  -20.60728 -20.60723 -15.85784 -11.31129 -11.27725
 Alpha  occ. eigenvalues --  -11.27721 -11.27408 -11.26704 -11.26693 -11.22288
 Alpha  occ. eigenvalues --  -11.22030 -11.21967 -11.21951 -11.21805 -11.21363
 Alpha  occ. eigenvalues --   -1.59805  -1.39359  -1.19314  -1.08961  -1.08701
 Alpha  occ. eigenvalues --   -1.04718  -1.04093  -0.96579  -0.95533  -0.87604
 Alpha  occ. eigenvalues --   -0.86112  -0.82375  -0.80174  -0.78746  -0.77427
 Alpha  occ. eigenvalues --   -0.72001  -0.71130  -0.70408  -0.65582  -0.64963
 Alpha  occ. eigenvalues --   -0.64719  -0.62069  -0.61482  -0.59969  -0.58160
 Alpha  occ. eigenvalues --   -0.55860  -0.55247  -0.53359  -0.53032  -0.52869
 Alpha  occ. eigenvalues --   -0.52805  -0.50490  -0.48758  -0.48757  -0.48483
 Alpha  occ. eigenvalues --   -0.47176  -0.46298  -0.46196  -0.44770  -0.44343
 Alpha  occ. eigenvalues --   -0.37226  -0.36330
 Alpha virt. eigenvalues --    0.05108   0.11229   0.16574   0.20860   0.22418
 Alpha virt. eigenvalues --    0.23887   0.26059   0.26503   0.26779   0.27373
 Alpha virt. eigenvalues --    0.28785   0.30245   0.30764   0.31246   0.31955

 Mulliken charges:
               1
     1  C   -0.299136
     2  C   -0.300047
     3  C   -0.480477
     4  H    0.149107
     5  H    0.150255
     6  H    0.153072
     7  H    0.155518
     8  H    0.159463
     9  H    0.151569
    10  H    0.154948
    11  C   -0.298818
    12  C   -0.300043
    13  C   -0.476019
    14  H    0.150050
    15  H    0.151213
    16  H    0.151805
    17  H    0.152631
    18  H    0.156123
    19  H    0.155439
    20  H    0.161326
    21  C   -0.165729
    22  C   -0.221065
    23  C   -0.170548
    24  C    0.157878
    25  C   -0.171171
    26  C   -0.221654
    27  H    0.230374
    28  H    0.222859
    29  H    0.275406
    30  H    0.275358
    31  H    0.223610
    32  N    0.488164
    33  O   -0.460755
    34  O   -0.460708
 Sum of Mulliken charges =  -0.00000

 Dipole moment (field-independent basis, Debye):
    X=             -3.7390    Y=              3.5564    Z=              1.1667  Tot=              5.2905
 Quadrupole moment (field-independent basis, Debye-Ang):
   XX=           -122.4366   YY=            -94.9261   ZZ=            -91.7017
   XY=             14.4174   XZ=              2.7718   YZ=             -2.4813

 Normal termination of Gaussian 16 at Thu May  6 18:41:24 2021.
