 Gaussian 16, Revision A.03,
 Gaussian 16:  EM64L-G16RevA.03 25-Dec-2016

 -------------
 #p 6-31g* mp2
 -------------

 ------------------------------------------------------
 Input file generated by CHIRIPA (05-May-2021 14:51:12)
 ------------------------------------------------------
 Symbolic Z-matrix:
 Charge =  0 Multiplicity = 1

                         Standard orientation:
 ---------------------------------------------------------------------
 Center     Atomic      Atomic             Coordinates (Angstroms)
 Number     Number       Type             X           Y           Z
 ---------------------------------------------------------------------
      1          6           0       -3.591295   -0.611720   -0.322243
      2          6           0       -4.575779    0.546358   -0.156015
      3          6           0       -5.718397    0.501221   -1.170994
      4          1           0       -3.179931   -0.591581   -1.340731
      5          1           0       -4.133802   -1.562105   -0.222994
      6          1           0       -4.031335    1.494283   -0.254171
      7          1           0       -4.984704    0.523573    0.862257
      8          1           0       -6.286829   -0.428991   -1.070039
      9          1           0       -5.328043    0.547234   -2.192810
     10          1           0       -6.410261    1.338149   -1.034118
     11          6           0       -2.443392   -0.580373    0.685260
     12          6           0       -1.458908   -1.738451    0.519033
     13          6           0       -0.316290   -1.693314    1.534012
     14          1           0       -1.900885    0.370012    0.586012
     15          1           0       -2.854756   -0.600512    1.703749
     16          1           0       -1.049983   -1.715666   -0.499239
     17          1           0       -2.003352   -2.686376    0.617189
     18          1           0       -0.706644   -1.739327    2.555828
     19          1           0        0.252142   -0.763102    1.433056
     20          1           0        0.375574   -2.530242    1.397136
     21          6           0        2.817529    1.306237   -0.379337
     22          6           0        2.042271    2.044408    0.712480
     23          6           0        1.649567    3.463891    0.301817
     24          1           0        3.720224    1.879725   -0.630726
     25          1           0        2.206551    1.269153   -1.291875
     26          1           0        2.653973    2.078877    1.623110
     27          1           0        1.141414    1.468998    0.961435
     28          1           0        1.018475    3.445492   -0.592603
     29          1           0        2.539627    4.058836    0.072832
     30          1           0        1.096320    3.973311    1.096970
     31          6           0        3.217159   -0.114144    0.016319
     32          6           0        3.992416   -0.852315   -1.075498
     33          6           0        4.385120   -2.271799   -0.664834
     34          1           0        3.828136   -0.077061    0.928858
     35          1           0        2.314463   -0.687633    0.267709
     36          1           0        4.893272   -0.276906   -1.324452
     37          1           0        3.380714   -0.886784   -1.986128
     38          1           0        3.495059   -2.866744   -0.435850
     39          1           0        5.016212   -2.253399    0.229585
     40          1           0        4.938367   -2.781218   -1.459988
 ---------------------------------------------------------------------

 SCF Done:  E(RHF) =  -470.732663527     A.U. after   11 cycles
 E2 =    -0.1583779456D+01 EUMP2 =    -0.47231644298358D+03

 The electronic state is 1-A.
 Alpha  occ. eigenvalues --  -11.21666 -11.21643 -11.21630 -11.21575 -11.21458
 Alpha  occ. eigenvalues --  -11.21396 -11.21391 -11.21280 -11.21107 -11.21096
 Alpha  occ. eigenvalues --  -11.21094 -11.21055  -1.08488  -1.08420  -1.03579
 Alpha  occ. eigenvalues --   -1.03535  -0.96044  -0.95965  -0.87054  -0.86991
 Alpha  occ. eigenvalues --   -0.79655  -0.79600  -0.78332  -0.78195  -0.65259
 Alpha  occ. eigenvalues --   -0.64948  -0.61006  -0.60918  -0.59427  -0.59314
 Alpha  occ. eigenvalues --   -0.57640  -0.57590  -0.55453  -0.55157  -0.52737
 Alpha  occ. eigenvalues --   -0.52685  -0.52445  -0.52396  -0.50053  -0.49894
 Alpha  occ. eigenvalues --   -0.48043  -0.47867  -0.46844  -0.46617  -0.45936
 Alpha  occ. eigenvalues --   -0.45797  -0.45737  -0.45275  -0.43824  -0.43776
 Alpha virt. eigenvalues --    0.20372   0.23229   0.23549   0.24201   0.26008
 Alpha virt. eigenvalues --    0.26904   0.27155   0.27384   0.27483   0.29596
 Alpha virt. eigenvalues --    0.30380   0.31394   0.31756   0.31863   0.32085

 Mulliken charges:
               1
     1  C   -0.298300
     2  C   -0.299752
     3  C   -0.475738
     4  H    0.149548
     5  H    0.149790
     6  H    0.152087
     7  H    0.152067
     8  H    0.155233
     9  H    0.155177
    10  H    0.160413
    11  C   -0.299501
    12  C   -0.300090
    13  C   -0.485538
    14  H    0.149859
    15  H    0.150112
    16  H    0.151445
    17  H    0.152538
    18  H    0.156138
    19  H    0.164409
    20  H    0.160293
    21  C   -0.297855
    22  C   -0.306418
    23  C   -0.475327
    24  H    0.149778
    25  H    0.148629
    26  H    0.152578
    27  H    0.156696
    28  H    0.154742
    29  H    0.155593
    30  H    0.160461
    31  C   -0.306823
    32  C   -0.299059
    33  C   -0.475737
    34  H    0.149140
    35  H    0.159981
    36  H    0.151684
    37  H    0.151351
    38  H    0.154987
    39  H    0.155286
    40  H    0.160120
 Sum of Mulliken charges =  -0.00000

 Dipole moment (field-independent basis, Debye):
    X=             -0.0197    Y=             -0.0043    Z=              0.0260  Tot=              0.0329
 Quadrupole moment (field-independent basis, Debye-Ang):
   XX=            -84.6227   YY=            -85.4655   ZZ=            -84.6773
   XY=              1.1089   XZ=             -0.6226   YZ=             -0.0137

 Normal termination of Gaussian 16 at Wed May  5 15:16:38 2021.
