 Gaussian 16, Revision A.03,
 Gaussian 16:  EM64L-G16RevA.03 25-Dec-2016

 -------------
 #p 6-31g* mp2
 -------------

 ------------------------------------------------------
 Input file generated by CHIRIPA (05-May-2021 14:53:14)
 ------------------------------------------------------
 Symbolic Z-matrix:
 Charge =  0 Multiplicity = 1

                         Standard orientation:
 ---------------------------------------------------------------------
 Center     Atomic      Atomic             Coordinates (Angstroms)
 Number     Number       Type             X           Y           Z
 ---------------------------------------------------------------------
      1          6           0       -3.329588    0.724389   -0.476679
      2          6           0       -2.886742    2.075289    0.086299
      3          6           0       -2.009243    2.862516   -0.887386
      4          1           0       -2.440621    0.131801   -0.732652
      5          1           0       -3.877149    0.887856   -1.415215
      6          1           0       -2.341376    1.909416    1.024210
      7          1           0       -3.776865    2.664656    0.341140
      8          1           0       -2.547922    3.057171   -1.820411
      9          1           0       -1.104277    2.297640   -1.133460
     10          1           0       -1.704061    3.824848   -0.464727
     11          6           0       -4.207484   -0.074346    0.485116
     12          6           0       -4.650329   -1.425246   -0.077862
     13          6           0       -5.527828   -2.212473    0.895823
     14          1           0       -3.659923   -0.237813    1.423652
     15          1           0       -5.096450    0.518242    0.741089
     16          1           0       -3.760206   -2.014612   -0.332703
     17          1           0       -5.195695   -1.259373   -1.015773
     18          1           0       -6.432795   -1.647597    1.141897
     19          1           0       -4.989149   -2.407128    1.828848
     20          1           0       -5.833010   -3.174805    0.473164
     21          6           0        3.060428    2.196391    0.586931
     22          6           0        1.992900    1.709709   -0.174676
     23          6           0        1.918224    0.353940   -0.507636
     24          6           0        2.932929   -0.490810   -0.060357
     25          6           0        4.009287   -0.036148    0.699923
     26          6           0        4.063447    1.323448    1.021034
     27          1           0        3.110470    3.251072    0.840980
     28          1           0        1.212521    2.385338   -0.513173
     29          1           0        1.103032   -0.049507   -1.095948
     30          1           0        4.772226   -0.733996    1.022957
     31          1           0        4.893683    1.698615    1.612645
     32          7           0        2.864733   -1.928128   -0.406574
     33          8           0        3.771338   -2.651798   -0.000367
     34          8           0        1.905966   -2.303812   -1.077593
 ---------------------------------------------------------------------

 SCF Done:  E(RHF) =  -669.535513189     A.U. after   15 cycles
 E2 =    -0.2091175377D+01 EUMP2 =    -0.67162668856594D+03

 The electronic state is 1-A.
 Alpha  occ. eigenvalues --  -20.60768 -20.60763 -15.85821 -11.31179 -11.27742
 Alpha  occ. eigenvalues --  -11.27739 -11.27472 -11.26758 -11.26705 -11.22191
 Alpha  occ. eigenvalues --  -11.22010 -11.21758 -11.21622 -11.21547 -11.21038
 Alpha  occ. eigenvalues --   -1.59843  -1.39397  -1.19345  -1.08753  -1.08736
 Alpha  occ. eigenvalues --   -1.04748  -1.03884  -0.96361  -0.95579  -0.87387
 Alpha  occ. eigenvalues --   -0.86142  -0.82414  -0.79962  -0.78503  -0.77463
 Alpha  occ. eigenvalues --   -0.72039  -0.71166  -0.70455  -0.65400  -0.64995
 Alpha  occ. eigenvalues --   -0.64753  -0.62160  -0.61230  -0.59760  -0.57934
 Alpha  occ. eigenvalues --   -0.55691  -0.55226  -0.53106  -0.53075  -0.52885
 Alpha  occ. eigenvalues --   -0.52690  -0.50290  -0.48796  -0.48794  -0.48267
 Alpha  occ. eigenvalues --   -0.46978  -0.46058  -0.45943  -0.44805  -0.44118
 Alpha  occ. eigenvalues --   -0.37324  -0.36348
 Alpha virt. eigenvalues --    0.05067   0.11299   0.16541   0.19471   0.22873
 Alpha virt. eigenvalues --    0.23880   0.25403   0.26496   0.26907   0.28392
 Alpha virt. eigenvalues --    0.29216   0.30310   0.31182   0.31506   0.31855

 Mulliken charges:
               1
     1  C   -0.299114
     2  C   -0.300115
     3  C   -0.479224
     4  H    0.149798
     5  H    0.151066
     6  H    0.152773
     7  H    0.154986
     8  H    0.161162
     9  H    0.146035
    10  H    0.158839
    11  C   -0.298694
    12  C   -0.301059
    13  C   -0.476010
    14  H    0.150619
    15  H    0.149538
    16  H    0.156755
    17  H    0.151866
    18  H    0.154159
    19  H    0.156054
    20  H    0.162062
    21  C   -0.171535
    22  C   -0.223802
    23  C   -0.173635
    24  C    0.158692
    25  C   -0.171195
    26  C   -0.218404
    27  H    0.225961
    28  H    0.231697
    29  H    0.274976
    30  H    0.275504
    31  H    0.223320
    32  N    0.488114
    33  O   -0.460436
    34  O   -0.460756
 Sum of Mulliken charges =  -0.00000

 Dipole moment (field-independent basis, Debye):
    X=              0.0839    Y=              5.0344    Z=              1.2435  Tot=              5.1864
 Quadrupole moment (field-independent basis, Debye-Ang):
   XX=            -89.0422   YY=           -100.4491   ZZ=            -94.5564
   XY=             13.3404   XZ=              6.8760   YZ=             -1.0837

 Normal termination of Gaussian 16 at Thu May  6 02:39:33 2021.
