 Gaussian 16, Revision A.03,
 Gaussian 16:  EM64L-G16RevA.03 25-Dec-2016

 -------------
 #p 6-31g* mp2
 -------------

 ------------------------------------------------------
 Input file generated by CHIRIPA (05-May-2021 14:55:25)
 ------------------------------------------------------
 Symbolic Z-matrix:
 Charge =  0 Multiplicity = 1

                         Standard orientation:
 ---------------------------------------------------------------------
 Center     Atomic      Atomic             Coordinates (Angstroms)
 Number     Number       Type             X           Y           Z
 ---------------------------------------------------------------------
      1          6           0       -0.388098   -1.431689    1.379192
      2          6           0       -1.125962   -2.155799    0.436990
      3          6           0       -2.216487   -1.570308   -0.213012
      4          6           0       -2.542746   -0.252801    0.104827
      5          6           0       -1.827112    0.494647    1.038893
      6          6           0       -0.740408   -0.111106    1.676612
      7          1           0        0.457564   -1.894382    1.879358
      8          1           0       -0.854644   -3.181546    0.204020
      9          1           0       -2.804938   -2.107948   -0.946556
     10          1           0       -2.121701    1.515431    1.250164
     11          1           0       -0.169178    0.453652    2.407906
     12          7           0       -3.695215    0.377756   -0.576799
     13          8           0       -3.962281    1.539943   -0.279082
     14          8           0       -4.309630   -0.302138   -1.395868
     15          6           0        2.473816    0.992634   -0.194876
     16          6           0        3.035829    2.414029   -0.152873
     17          6           0        1.947774    3.475241    0.013739
     18          1           0        1.753590    0.914194   -1.020749
     19          1           0        1.911569    0.800662    0.729472
     20          1           0        3.598012    2.602784   -1.076418
     21          1           0        3.754943    2.489041    0.672877
     22          1           0        1.392471    3.314954    0.943550
     23          1           0        1.234648    3.429343   -0.815685
     24          1           0        2.371637    4.483924    0.041301
     25          6           0        3.549367   -0.079418   -0.361072
     26          6           0        2.987354   -1.500813   -0.403076
     27          6           0        4.075409   -2.562025   -0.569688
     28          1           0        4.111614    0.112555   -1.285420
     29          1           0        4.269593   -0.000978    0.464801
     30          1           0        2.268239   -1.575825   -1.228826
     31          1           0        2.425171   -1.689567    0.520470
     32          1           0        4.788535   -2.516128    0.259736
     33          1           0        4.630712   -2.401738   -1.499499
     34          1           0        3.651546   -3.570708   -0.597250
 ---------------------------------------------------------------------

 SCF Done:  E(RHF) =  -669.534030487     A.U. after   15 cycles
 E2 =    -0.2093985172D+01 EUMP2 =    -0.67162801565862D+03

 The electronic state is 1-A.
 Alpha  occ. eigenvalues --  -20.60758 -20.60752 -15.85812 -11.31175 -11.27753
 Alpha  occ. eigenvalues --  -11.27747 -11.27484 -11.26765 -11.26754 -11.22349
 Alpha  occ. eigenvalues --  -11.22040 -11.21984 -11.21843 -11.21762 -11.21488
 Alpha  occ. eigenvalues --   -1.59834  -1.39387  -1.19358  -1.09030  -1.08738
 Alpha  occ. eigenvalues --   -1.04764  -1.04112  -0.96542  -0.95591  -0.87559
 Alpha  occ. eigenvalues --   -0.86164  -0.82428  -0.80187  -0.78828  -0.77459
 Alpha  occ. eigenvalues --   -0.72031  -0.71158  -0.70499  -0.65685  -0.65011
 Alpha  occ. eigenvalues --   -0.64748  -0.62119  -0.61520  -0.59926  -0.58161
 Alpha  occ. eigenvalues --   -0.55847  -0.55290  -0.53327  -0.53075  -0.52939
 Alpha  occ. eigenvalues --   -0.52842  -0.50484  -0.48796  -0.48785  -0.48490
 Alpha  occ. eigenvalues --   -0.47222  -0.46348  -0.46272  -0.44793  -0.44350
 Alpha  occ. eigenvalues --   -0.37234  -0.36325
 Alpha virt. eigenvalues --    0.05039   0.11162   0.16411   0.19807   0.22972
 Alpha virt. eigenvalues --    0.23116   0.25674   0.26654   0.26907   0.27520
 Alpha virt. eigenvalues --    0.29419   0.30266   0.31232   0.31325   0.32203

 Mulliken charges:
               1
     1  C   -0.165489
     2  C   -0.218884
     3  C   -0.171250
     4  C    0.158055
     5  C   -0.171414
     6  C   -0.216863
     7  H    0.225688
     8  H    0.223597
     9  H    0.275495
    10  H    0.275857
    11  H    0.222370
    12  N    0.488036
    13  O   -0.460357
    14  O   -0.460649
    15  C   -0.298696
    16  C   -0.300490
    17  C   -0.474581
    18  H    0.154146
    19  H    0.144423
    20  H    0.154204
    21  H    0.150660
    22  H    0.148041
    23  H    0.159746
    24  H    0.162802
    25  C   -0.299000
    26  C   -0.299464
    27  C   -0.475706
    28  H    0.152496
    29  H    0.148609
    30  H    0.155606
    31  H    0.140799
    32  H    0.155496
    33  H    0.158857
    34  H    0.157860
 Sum of Mulliken charges =  -0.00000

 Dipole moment (field-independent basis, Debye):
    X=              4.0897    Y=             -2.1743    Z=              2.2887  Tot=              5.1664
 Quadrupole moment (field-independent basis, Debye-Ang):
   XX=           -116.5359   YY=            -90.9842   ZZ=            -92.4675
   XY=              6.1188   XZ=             -5.3732   YZ=              1.3848

 Normal termination of Gaussian 16 at Thu May  6 08:01:47 2021.
