 Gaussian 16, Revision A.03,
 Gaussian 16:  EM64L-G16RevA.03 25-Dec-2016

 -------------
 #p 6-31g* mp2
 -------------

 ------------------------------------------------------
 Input file generated by CHIRIPA (05-May-2021 14:57:25)
 ------------------------------------------------------
 Symbolic Z-matrix:
 Charge =  0 Multiplicity = 1

                         Standard orientation:
 ---------------------------------------------------------------------
 Center     Atomic      Atomic             Coordinates (Angstroms)
 Number     Number       Type             X           Y           Z
 ---------------------------------------------------------------------
      1          6           0       -1.912935    2.396985   -0.622942
      2          6           0       -3.207797    2.149784   -0.155238
      3          6           0       -3.658272    0.839079    0.028257
      4          6           0       -2.783465   -0.205301   -0.267165
      5          6           0       -1.487708    0.008671   -0.734625
      6          6           0       -1.058530    1.327524   -0.910635
      7          1           0       -1.571267    3.418337   -0.762578
      8          1           0       -3.873517    2.978385    0.069001
      9          1           0       -4.655721    0.619186    0.389036
     10          1           0       -0.847029   -0.837931   -0.949595
     11          1           0       -0.052400    1.516514   -1.273997
     12          7           0       -3.249090   -1.597199   -0.076868
     13          8           0       -2.459014   -2.499896   -0.344364
     14          8           0       -4.395307   -1.759116    0.336179
     15          6           0        3.789682   -0.576760   -1.912285
     16          6           0        3.701602   -1.551444   -0.912909
     17          6           0        3.103656   -1.256401    0.315895
     18          6           0        2.602029    0.029328    0.512261
     19          6           0        2.674698    1.021980   -0.463779
     20          6           0        3.276852    0.704582   -1.684932
     21          1           0        4.255815   -0.814640   -2.863879
     22          1           0        4.099010   -2.547392   -1.086685
     23          1           0        3.022156   -1.991954    1.106932
     24          1           0        2.269461    2.005926   -0.261162
     25          1           0        3.343861    1.463527   -2.459242
     26          7           0        1.966783    0.353510    1.809091
     27          8           0        1.532513    1.493724    1.957280
     28          8           0        1.915174   -0.538749    2.652802
 ---------------------------------------------------------------------

 SCF Done:  E(RHF) =  -868.337061524     A.U. after   16 cycles
 E2 =    -0.2601915423D+01 EUMP2 =    -0.87093897694699D+03

 The electronic state is 1-A.
 Alpha  occ. eigenvalues --  -20.61259 -20.61242 -20.60462 -20.60452 -15.86307
 Alpha  occ. eigenvalues --  -15.85513 -11.31867 -11.30831 -11.28509 -11.28348
 Alpha  occ. eigenvalues --  -11.28130 -11.27527 -11.27420 -11.27386 -11.27376
 Alpha  occ. eigenvalues --  -11.27145 -11.26427 -11.26396  -1.60318  -1.59532
 Alpha  occ. eigenvalues --   -1.39868  -1.39089  -1.20043  -1.18996  -1.09373
 Alpha  occ. eigenvalues --   -1.08404  -1.05469  -1.04410  -0.96188  -0.95250
 Alpha  occ. eigenvalues --   -0.86840  -0.85819  -0.83013  -0.82099  -0.78056
 Alpha  occ. eigenvalues --   -0.77151  -0.72519  -0.71740  -0.71650  -0.71106
 Alpha  occ. eigenvalues --   -0.70846  -0.70130  -0.65668  -0.65453  -0.64667
 Alpha  occ. eigenvalues --   -0.64462  -0.62799  -0.61772  -0.55896  -0.54943
 Alpha  occ. eigenvalues --   -0.53792  -0.53533  -0.52704  -0.52481  -0.49298
 Alpha  occ. eigenvalues --   -0.49264  -0.48494  -0.48488  -0.45228  -0.44506
 Alpha  occ. eigenvalues --   -0.38005  -0.37092  -0.36928  -0.35965
 Alpha virt. eigenvalues --    0.04436   0.05404   0.10462   0.11711   0.15883
 Alpha virt. eigenvalues --    0.16916   0.20371   0.21953   0.26018   0.27399
 Alpha virt. eigenvalues --    0.28150   0.28872   0.30495   0.31339   0.31921

 Mulliken charges:
               1
     1  C   -0.166845
     2  C   -0.217318
     3  C   -0.169947
     4  C    0.160790
     5  C   -0.175113
     6  C   -0.213450
     7  H    0.223646
     8  H    0.222987
     9  H    0.275148
    10  H    0.272898
    11  H    0.216631
    12  N    0.488650
    13  O   -0.462595
    14  O   -0.460476
    15  C   -0.170618
    16  C   -0.217252
    17  C   -0.170256
    18  C    0.159760
    19  C   -0.182247
    20  C   -0.220593
    21  H    0.228799
    22  H    0.228444
    23  H    0.280994
    24  H    0.271780
    25  H    0.223723
    26  N    0.488678
    27  O   -0.461614
    28  O   -0.454604
 Sum of Mulliken charges =  -0.00000

 Dipole moment (field-independent basis, Debye):
    X=              4.0416    Y=              3.6027    Z=             -5.0799  Tot=              7.4242
 Quadrupole moment (field-independent basis, Debye-Ang):
   XX=            -98.3015   YY=           -102.5188   ZZ=           -109.4094
   XY=            -20.4946   XZ=            -10.9067   YZ=             -2.8957

 Normal termination of Gaussian 16 at Fri May  7 06:33:48 2021.
