 Gaussian 16, Revision A.03,
 Gaussian 16:  EM64L-G16RevA.03 25-Dec-2016

 -------------
 #p 6-31g* mp2
 -------------

 ------------------------------------------------------
 Input file generated by CHIRIPA (05-May-2021 14:53:18)
 ------------------------------------------------------
 Symbolic Z-matrix:
 Charge =  0 Multiplicity = 1

                         Standard orientation:
 ---------------------------------------------------------------------
 Center     Atomic      Atomic             Coordinates (Angstroms)
 Number     Number       Type             X           Y           Z
 ---------------------------------------------------------------------
      1          6           0       -3.534318   -0.660817   -0.042334
      2          6           0       -4.718438   -1.601633    0.182852
      3          6           0       -4.325723   -3.076903    0.098316
      4          1           0       -3.091469   -0.868048   -1.026145
      5          1           0       -2.756124   -0.877324    0.702605
      6          1           0       -5.494742   -1.382484   -0.561421
      7          1           0       -5.158638   -1.392008    1.166162
      8          1           0       -3.568259   -3.317673    0.851229
      9          1           0       -3.906273   -3.308095   -0.886170
     10          1           0       -5.187227   -3.731714    0.262313
     11          6           0       -3.911044    0.817416    0.039109
     12          6           0       -2.726923    1.758231   -0.186077
     13          6           0       -3.119638    3.233502   -0.101541
     14          1           0       -4.689238    1.033923   -0.705830
     15          1           0       -4.353892    1.024647    1.022921
     16          1           0       -2.286723    1.548606   -1.169387
     17          1           0       -1.950619    1.539082    0.558196
     18          1           0       -3.539088    3.464693    0.882945
     19          1           0       -3.877102    3.474272   -0.854454
     20          1           0       -2.258134    3.888313   -0.265538
     21          6           0        5.398613   -0.464569    0.043186
     22          6           0        4.716674   -0.172883    1.229103
     23          6           0        3.336942    0.052416    1.217740
     24          6           0        2.667594   -0.022173   -0.002794
     25          6           0        3.318847   -0.310684   -1.201093
     26          6           0        4.698756   -0.532419   -1.165995
     27          1           0        6.470490   -0.638202    0.061232
     28          1           0        5.257607   -0.119543    2.169630
     29          1           0        2.784144    0.280085    2.121066
     30          1           0        2.752392   -0.357046   -2.123263
     31          1           0        5.225753   -0.758752   -2.088542
     32          7           0        1.206840    0.214455   -0.027387
     33          8           0        0.640129    0.142994   -1.115674
     34          8           0        0.656271    0.466903    1.042090
 ---------------------------------------------------------------------

 SCF Done:  E(RHF) =  -669.536551758     A.U. after   15 cycles
 E2 =    -0.2091932029D+01 EUMP2 =    -0.67162848378682D+03

 The electronic state is 1-A.
 Alpha  occ. eigenvalues --  -20.61071 -20.61063 -15.86076 -11.31368 -11.27922
 Alpha  occ. eigenvalues --  -11.27918 -11.27652 -11.26920 -11.26910 -11.20447
 Alpha  occ. eigenvalues --  -11.20133 -11.19836 -11.19776 -11.19589 -11.19445
 Alpha  occ. eigenvalues --   -1.60103  -1.39663  -1.19527  -1.08938  -1.06893
 Alpha  occ. eigenvalues --   -1.04918  -1.02074  -0.95784  -0.94601  -0.86320
 Alpha  occ. eigenvalues --   -0.85627  -0.82622  -0.78126  -0.77678  -0.76604
 Alpha  occ. eigenvalues --   -0.72291  -0.71410  -0.70635  -0.65184  -0.64920
 Alpha  occ. eigenvalues --   -0.63537  -0.62265  -0.59481  -0.57984  -0.56174
 Alpha  occ. eigenvalues --   -0.55422  -0.53917  -0.53251  -0.53009  -0.51350
 Alpha  occ. eigenvalues --   -0.51014  -0.49150  -0.49052  -0.48557  -0.46402
 Alpha  occ. eigenvalues --   -0.45209  -0.45007  -0.44138  -0.43973  -0.42315
 Alpha  occ. eigenvalues --   -0.37504  -0.36517
 Alpha virt. eigenvalues --    0.04845   0.11139   0.16352   0.21276   0.24297
 Alpha virt. eigenvalues --    0.25660   0.27198   0.28120   0.28181   0.29052
 Alpha virt. eigenvalues --    0.29408   0.30870   0.32351   0.32759   0.33160

 Mulliken charges:
               1
     1  C   -0.297762
     2  C   -0.298676
     3  C   -0.474369
     4  H    0.152731
     5  H    0.157039
     6  H    0.148176
     7  H    0.148575
     8  H    0.154111
     9  H    0.153985
    10  H    0.155521
    11  C   -0.298043
    12  C   -0.308623
    13  C   -0.474978
    14  H    0.142043
    15  H    0.143454
    16  H    0.158617
    17  H    0.177026
    18  H    0.149357
    19  H    0.148149
    20  H    0.156265
    21  C   -0.170438
    22  C   -0.218548
    23  C   -0.170656
    24  C    0.158512
    25  C   -0.170648
    26  C   -0.218575
    27  H    0.226261
    28  H    0.224056
    29  H    0.275790
    30  H    0.275919
    31  H    0.224080
    32  N    0.489305
    33  O   -0.457880
    34  O   -0.459774
 Sum of Mulliken charges =  -0.00000

 Dipole moment (field-independent basis, Debye):
    X=              5.6634    Y=             -0.9007    Z=              0.0838  Tot=              5.7352
 Quadrupole moment (field-independent basis, Debye-Ang):
   XX=            -69.7433   YY=            -97.8224   ZZ=            -88.8268
   XY=             -2.0712   XZ=              0.4566   YZ=              0.9120

 Normal termination of Gaussian 16 at Wed May  5 18:48:10 2021.
