 Gaussian 16, Revision A.03,
 Gaussian 16:  EM64L-G16RevA.03 25-Dec-2016

 -------------
 #p 6-31g* mp2
 -------------

 ------------------------------------------------------
 Input file generated by CHIRIPA (05-May-2021 14:57:22)
 ------------------------------------------------------
 Symbolic Z-matrix:
 Charge =  0 Multiplicity = 1

                         Standard orientation:
 ---------------------------------------------------------------------
 Center     Atomic      Atomic             Coordinates (Angstroms)
 Number     Number       Type             X           Y           Z
 ---------------------------------------------------------------------
      1          6           0        5.241970   -0.004113    0.849312
      2          6           0        4.663441    1.036529    0.115222
      3          6           0        3.421035    0.864530   -0.502348
      4          6           0        2.782073   -0.366751   -0.364643
      5          6           0        3.332609   -1.422677    0.360079
      6          6           0        4.575883   -1.228236    0.969187
      7          1           0        6.207438    0.138216    1.325769
      8          1           0        5.178451    1.988277    0.020436
      9          1           0        2.950333    1.653299   -1.076544
     10          1           0        2.795172   -2.360066    0.436759
     11          1           0        5.022784   -2.038180    1.538674
     12          7           0        1.466334   -0.560718   -1.013957
     13          8           0        0.923712   -1.655070   -0.877604
     14          8           0        1.002594    0.385276   -1.646948
     15          6           0       -1.361733    2.240866    0.486509
     16          6           0       -1.718490    1.485951    1.608717
     17          6           0       -2.624666    0.427578    1.493646
     18          6           0       -3.157200    0.150510    0.235500
     19          6           0       -2.821525    0.884247   -0.901268
     20          6           0       -1.913417    1.938138   -0.762699
     21          1           0       -0.657044    3.061294    0.585026
     22          1           0       -1.291629    1.718783    2.580119
     23          1           0       -2.918300   -0.173090    2.345933
     24          1           0       -3.263728    0.628225   -1.856427
     25          1           0       -1.638184    2.522713   -1.635948
     26          7           0       -4.117551   -0.967569    0.101242
     27          8           0       -4.572626   -1.191469   -1.018317
     28          8           0       -4.397013   -1.598848    1.118111
 ---------------------------------------------------------------------

 SCF Done:  E(RHF) =  -868.337768795     A.U. after   16 cycles
 E2 =    -0.2600661427D+01 EUMP2 =    -0.87093843022282D+03

 The electronic state is 1-A.
 Alpha  occ. eigenvalues --  -20.61212 -20.61198 -20.59774 -20.59754 -15.86242
 Alpha  occ. eigenvalues --  -15.84815 -11.31633 -11.30065 -11.28239 -11.28158
 Alpha  occ. eigenvalues --  -11.27924 -11.27233 -11.27179 -11.26680 -11.26535
 Alpha  occ. eigenvalues --  -11.26410 -11.25764 -11.25578  -1.60263  -1.58837
 Alpha  occ. eigenvalues --   -1.39824  -1.38397  -1.19800  -1.18224  -1.09187
 Alpha  occ. eigenvalues --   -1.07667  -1.05206  -1.03620  -0.96023  -0.94524
 Alpha  occ. eigenvalues --   -0.86601  -0.85048  -0.82860  -0.81364  -0.77909
 Alpha  occ. eigenvalues --   -0.76409  -0.72482  -0.71584  -0.71051  -0.70902
 Alpha  occ. eigenvalues --   -0.70139  -0.69413  -0.65454  -0.65204  -0.63909
 Alpha  occ. eigenvalues --   -0.63671  -0.62555  -0.60996  -0.55694  -0.54213
 Alpha  occ. eigenvalues --   -0.53539  -0.53295  -0.51950  -0.51755  -0.49239
 Alpha  occ. eigenvalues --   -0.49198  -0.47804  -0.47794  -0.45232  -0.43830
 Alpha  occ. eigenvalues --   -0.37779  -0.36816  -0.36192  -0.35124
 Alpha virt. eigenvalues --    0.04618   0.06135   0.10838   0.12480   0.16143
 Alpha virt. eigenvalues --    0.17646   0.20979   0.22349   0.26877   0.27811
 Alpha virt. eigenvalues --    0.28340   0.29184   0.30598   0.31782   0.32202

 Mulliken charges:
               1
     1  C   -0.170963
     2  C   -0.218618
     3  C   -0.172662
     4  C    0.159076
     5  C   -0.170937
     6  C   -0.218501
     7  H    0.226751
     8  H    0.223176
     9  H    0.271298
    10  H    0.278125
    11  H    0.225368
    12  N    0.489514
    13  O   -0.455346
    14  O   -0.465300
    15  C   -0.172515
    16  C   -0.221376
    17  C   -0.171670
    18  C    0.161249
    19  C   -0.165002
    20  C   -0.197689
    21  H    0.217458
    22  H    0.216350
    23  H    0.271137
    24  H    0.274802
    25  H    0.222846
    26  N    0.488860
    27  O   -0.460659
    28  O   -0.464770
 Sum of Mulliken charges =  -0.00000

 Dipole moment (field-independent basis, Debye):
    X=              8.1836    Y=              4.4805    Z=              2.5327  Tot=              9.6675
 Quadrupole moment (field-independent basis, Debye-Ang):
   XX=           -102.0089   YY=           -100.5129   ZZ=           -101.8506
   XY=            -11.8632   XZ=              5.2553   YZ=             -3.3638

 Normal termination of Gaussian 16 at Thu May  6 04:58:44 2021.
