 Gaussian 16, Revision A.03,
 Gaussian 16:  EM64L-G16RevA.03 25-Dec-2016

 -------------
 #p 6-31g* mp2
 -------------

 ------------------------------------------------------
 Input file generated by CHIRIPA (05-May-2021 14:53:14)
 ------------------------------------------------------
 Symbolic Z-matrix:
 Charge =  0 Multiplicity = 1

                         Standard orientation:
 ---------------------------------------------------------------------
 Center     Atomic      Atomic             Coordinates (Angstroms)
 Number     Number       Type             X           Y           Z
 ---------------------------------------------------------------------
      1          6           0        3.553212   -0.507125    0.029632
      2          6           0        4.152976   -1.297494   -1.133805
      3          6           0        4.004488   -2.809320   -0.960230
      4          1           0        4.037351   -0.819550    0.965016
      5          1           0        2.489146   -0.763110    0.127761
      6          1           0        5.215266   -1.039054   -1.230585
      7          1           0        3.667487   -0.983013   -2.066553
      8          1           0        2.947992   -3.086635   -0.885969
      9          1           0        4.504565   -3.142995   -0.045252
     10          1           0        4.440007   -3.354895   -1.803160
     11          6           0        3.693877    1.005705   -0.129391
     12          6           0        3.094113    1.796074    1.034046
     13          6           0        3.242602    3.307900    0.860471
     14          1           0        4.757943    1.261691   -0.227520
     15          1           0        3.209738    1.318130   -1.064775
     16          1           0        3.579602    1.481594    1.966794
     17          1           0        2.031824    1.537635    1.130826
     18          1           0        2.742524    3.641575   -0.054507
     19          1           0        4.299097    3.585215    0.786210
     20          1           0        2.807082    3.853475    1.703401
     21          6           0       -1.639052   -2.128087    1.137910
     22          6           0       -3.033962   -2.133327    1.034381
     23          6           0       -3.704890   -1.067465    0.427470
     24          6           0       -2.946117   -0.007851   -0.067273
     25          6           0       -1.555304    0.026509    0.020758
     26          6           0       -0.905468   -1.050086    0.631659
     27          1           0       -1.126052   -2.960244    1.610923
     28          1           0       -3.606252   -2.969184    1.426649
     29          1           0       -4.783875   -1.045810    0.333982
     30          1           0       -1.011994    0.873791   -0.379676
     31          1           0        0.177933   -1.043322    0.710663
     32          7           0       -3.645234    1.126212   -0.711896
     33          8           0       -2.953810    2.047864   -1.139828
     34          8           0       -4.871388    1.071963   -0.777013
 ---------------------------------------------------------------------

 SCF Done:  E(RHF) =  -669.535549477     A.U. after   15 cycles
 E2 =    -0.2091487696D+01 EUMP2 =    -0.67162703717329D+03

 The electronic state is 1-A.
 Alpha  occ. eigenvalues --  -20.60760 -20.60755 -15.85814 -11.31178 -11.27749
 Alpha  occ. eigenvalues --  -11.27746 -11.27485 -11.26762 -11.26735 -11.22318
 Alpha  occ. eigenvalues --  -11.22258 -11.22233 -11.22026 -11.21762 -11.21439
 Alpha  occ. eigenvalues --   -1.59836  -1.39389  -1.19350  -1.09148  -1.08744
 Alpha  occ. eigenvalues --   -1.04755  -1.04152  -0.96601  -0.95580  -0.87610
 Alpha  occ. eigenvalues --   -0.86154  -0.82416  -0.80224  -0.78986  -0.77459
 Alpha  occ. eigenvalues --   -0.72032  -0.71159  -0.70458  -0.65829  -0.65001
 Alpha  occ. eigenvalues --   -0.64740  -0.62105  -0.61546  -0.59966  -0.58213
 Alpha  occ. eigenvalues --   -0.55901  -0.55251  -0.53256  -0.53085  -0.53058
 Alpha  occ. eigenvalues --   -0.52820  -0.50535  -0.48795  -0.48787  -0.48532
 Alpha  occ. eigenvalues --   -0.47268  -0.46495  -0.46423  -0.44795  -0.44435
 Alpha  occ. eigenvalues --   -0.37329  -0.36357
 Alpha virt. eigenvalues --    0.05069   0.11286   0.16544   0.18618   0.22910
 Alpha virt. eigenvalues --    0.23480   0.24441   0.26486   0.27373   0.27979
 Alpha virt. eigenvalues --    0.29419   0.30818   0.31262   0.31431   0.31845

 Mulliken charges:
               1
     1  C   -0.304278
     2  C   -0.299695
     3  C   -0.475835
     4  H    0.151773
     5  H    0.141964
     6  H    0.155551
     7  H    0.154706
     8  H    0.150942
     9  H    0.155614
    10  H    0.163917
    11  C   -0.299295
    12  C   -0.299800
    13  C   -0.476468
    14  H    0.153464
    15  H    0.151998
    16  H    0.153152
    17  H    0.144843
    18  H    0.158630
    19  H    0.156718
    20  H    0.163127
    21  C   -0.173017
    22  C   -0.218452
    23  C   -0.171045
    24  C    0.158878
    25  C   -0.174646
    26  C   -0.227820
    27  H    0.226577
    28  H    0.223416
    29  H    0.275586
    30  H    0.275411
    31  H    0.237000
    32  N    0.488150
    33  O   -0.460552
    34  O   -0.460513
 Sum of Mulliken charges =  -0.00000

 Dipole moment (field-independent basis, Debye):
    X=              2.6600    Y=             -3.9294    Z=              2.2346  Tot=              5.2450
 Quadrupole moment (field-independent basis, Debye-Ang):
   XX=           -103.7732   YY=            -95.1030   ZZ=            -95.4272
   XY=             14.2814   XZ=             -7.5098   YZ=             -0.2186

 Normal termination of Gaussian 16 at Thu May  6 20:20:04 2021.
