 Gaussian 16, Revision A.03,
 Gaussian 16:  EM64L-G16RevA.03 25-Dec-2016

 -------------
 #p 6-31g* mp2
 -------------

 ------------------------------------------------------
 Input file generated by CHIRIPA (05-May-2021 14:51:13)
 ------------------------------------------------------
 Symbolic Z-matrix:
 Charge =  0 Multiplicity = 1

                         Standard orientation:
 ---------------------------------------------------------------------
 Center     Atomic      Atomic             Coordinates (Angstroms)
 Number     Number       Type             X           Y           Z
 ---------------------------------------------------------------------
      1          6           0        3.296245   -0.157391    0.442351
      2          6           0        2.721902   -1.534811    0.109441
      3          6           0        1.373118   -1.791270    0.782348
      4          1           0        3.405109   -0.066085    1.531735
      5          1           0        2.578750    0.615619    0.134047
      6          1           0        3.440869   -2.304938    0.417022
      7          1           0        2.614571   -1.622921   -0.979289
      8          1           0        0.637149   -1.044572    0.467083
      9          1           0        1.468142   -1.730464    1.871327
     10          1           0        0.980815   -2.781564    0.530801
     11          6           0        4.644395    0.113780   -0.222995
     12          6           0        5.218738    1.491200    0.109915
     13          6           0        6.567522    1.747659   -0.562992
     14          1           0        5.361890   -0.659230    0.085310
     15          1           0        4.535530    0.022473   -1.312379
     16          1           0        5.326068    1.579309    1.198645
     17          1           0        4.499771    2.261327   -0.197665
     18          1           0        6.472497    1.686853   -1.651970
     19          1           0        7.303490    1.000960   -0.247726
     20          1           0        6.959825    2.737953   -0.311444
     21          6           0       -4.521436    0.500395   -0.334745
     22          6           0       -4.579375    1.788164    0.487617
     23          6           0       -5.686966    2.735446    0.025346
     24          1           0       -4.370284    0.754966   -1.392711
     25          1           0       -5.492171   -0.010590   -0.271812
     26          1           0       -3.608375    2.295868    0.424278
     27          1           0       -4.730215    1.530489    1.543774
     28          1           0       -6.665821    2.251605    0.104990
     29          1           0       -5.537607    3.021332   -1.020866
     30          1           0       -5.710411    3.649537    0.626800
     31          6           0       -3.419204   -0.456784    0.115389
     32          6           0       -3.361264   -1.744553   -0.706973
     33          6           0       -2.253673   -2.691834   -0.244703
     34          1           0       -2.448467    0.054201    0.052456
     35          1           0       -3.570356   -0.711356    1.173354
     36          1           0       -3.210424   -1.486879   -1.763130
     37          1           0       -4.332264   -2.252257   -0.643634
     38          1           0       -2.403032   -2.977722    0.801510
     39          1           0       -1.274819   -2.207994   -0.324347
     40          1           0       -2.230229   -3.605926   -0.846157
 ---------------------------------------------------------------------

 SCF Done:  E(RHF) =  -470.732446184     A.U. after   11 cycles
 E2 =    -0.1582810811D+01 EUMP2 =    -0.47231525699504D+03

 The electronic state is 1-A.
 Alpha  occ. eigenvalues --  -11.21613 -11.21609 -11.21584 -11.21523 -11.21420
 Alpha  occ. eigenvalues --  -11.21375 -11.21360 -11.21315 -11.21081 -11.21059
 Alpha  occ. eigenvalues --  -11.21056 -11.20866  -1.08446  -1.08387  -1.03559
 Alpha  occ. eigenvalues --   -1.03460  -0.96042  -0.95880  -0.87101  -0.86861
 Alpha  occ. eigenvalues --   -0.79690  -0.79465  -0.78267  -0.78191  -0.65101
 Alpha  occ. eigenvalues --   -0.65004  -0.61059  -0.60791  -0.59380  -0.59291
 Alpha  occ. eigenvalues --   -0.57611  -0.57532  -0.55470  -0.55061  -0.52862
 Alpha  occ. eigenvalues --   -0.52608  -0.52408  -0.52192  -0.50120  -0.49675
 Alpha  occ. eigenvalues --   -0.47941  -0.47823  -0.46753  -0.46442  -0.45831
 Alpha  occ. eigenvalues --   -0.45756  -0.45711  -0.45579  -0.43771  -0.43719
 Alpha virt. eigenvalues --    0.21968   0.23038   0.23645   0.24788   0.26026
 Alpha virt. eigenvalues --    0.26821   0.27084   0.27375   0.27803   0.29162
 Alpha virt. eigenvalues --    0.30298   0.31216   0.31777   0.31846   0.32115

 Mulliken charges:
               1
     1  C   -0.298562
     2  C   -0.300077
     3  C   -0.479588
     4  H    0.149823
     5  H    0.149328
     6  H    0.152174
     7  H    0.151855
     8  H    0.155993
     9  H    0.155610
    10  H    0.164674
    11  C   -0.298274
    12  C   -0.299643
    13  C   -0.475711
    14  H    0.149638
    15  H    0.149598
    16  H    0.152000
    17  H    0.151836
    18  H    0.155164
    19  H    0.155229
    20  H    0.160283
    21  C   -0.298225
    22  C   -0.299581
    23  C   -0.475679
    24  H    0.149414
    25  H    0.149648
    26  H    0.151694
    27  H    0.152009
    28  H    0.155195
    29  H    0.155076
    30  H    0.160183
    31  C   -0.298463
    32  C   -0.299604
    33  C   -0.482966
    34  H    0.148742
    35  H    0.149912
    36  H    0.151074
    37  H    0.151329
    38  H    0.154451
    39  H    0.165923
    40  H    0.158516
 Sum of Mulliken charges =  -0.00000

 Dipole moment (field-independent basis, Debye):
    X=              0.0492    Y=             -0.0109    Z=              0.0215  Tot=              0.0548
 Quadrupole moment (field-independent basis, Debye-Ang):
   XX=            -85.8326   YY=            -85.2136   ZZ=            -83.9129
   XY=              0.2566   XZ=              0.1770   YZ=             -0.3676

 Normal termination of Gaussian 16 at Wed May  5 21:33:48 2021.
