 Gaussian 16, Revision A.03,
 Gaussian 16:  EM64L-G16RevA.03 25-Dec-2016

 -------------
 #p 6-31g* mp2
 -------------

 ------------------------------------------------------
 Input file generated by CHIRIPA (05-May-2021 14:51:10)
 ------------------------------------------------------
 Symbolic Z-matrix:
 Charge =  0 Multiplicity = 1

                         Standard orientation:
 ---------------------------------------------------------------------
 Center     Atomic      Atomic             Coordinates (Angstroms)
 Number     Number       Type             X           Y           Z
 ---------------------------------------------------------------------
      1          6           0        3.780252    0.354616   -0.121571
      2          6           0        3.470034    1.851843   -0.113786
      3          6           0        4.654427    2.703341   -0.571999
      4          1           0        4.644997    0.162420    0.528215
      5          1           0        4.078386    0.054293   -1.135631
      6          1           0        3.171239    2.148976    0.899648
      7          1           0        2.605808    2.040470   -0.763516
      8          1           0        4.949981    2.435352   -1.591524
      9          1           0        5.518624    2.544474    0.081090
     10          1           0        4.410772    3.770260   -0.558769
     11          6           0        2.605942   -0.509752    0.334054
     12          6           0        2.916160   -2.006979    0.326268
     13          6           0        1.731767   -2.858477    0.784481
     14          1           0        2.307808   -0.209429    1.348113
     15          1           0        1.741197   -0.317557   -0.315733
     16          1           0        3.780386   -2.195607    0.975998
     17          1           0        3.214955   -2.304113   -0.687166
     18          1           0        0.867570   -2.699610    0.131392
     19          1           0        1.436213   -2.590488    1.804006
     20          1           0        1.975423   -3.925397    0.771252
     21          6           0       -2.653097   -0.452736   -0.209242
     22          6           0       -3.217157   -1.848637   -0.476222
     23          6           0       -2.124605   -2.898642   -0.680213
     24          1           0       -2.010595   -0.156889   -1.049844
     25          1           0       -2.007944   -0.489374    0.679482
     26          1           0       -3.862155   -1.809087   -1.363368
     27          1           0       -3.858543   -2.141116    0.365025
     28          1           0       -1.486053   -2.967437    0.206420
     29          1           0       -1.489684   -2.633521   -1.531794
     30          1           0       -2.550020   -3.889105   -0.869596
     31          6           0       -3.733098    0.607872   -0.003239
     32          6           0       -3.169036    2.003774    0.263739
     33          6           0       -4.261589    3.053778    0.467731
     34          1           0       -4.378250    0.644510   -0.891964
     35          1           0       -4.375600    0.312025    0.837362
     36          1           0       -2.527650    2.296253   -0.577507
     37          1           0       -2.524039    1.964223    1.150886
     38          1           0       -4.896510    2.788657    1.319311
     39          1           0       -4.900141    3.122574   -0.418903
     40          1           0       -3.836174    4.044241    0.657113
 ---------------------------------------------------------------------

 SCF Done:  E(RHF) =  -470.733095962     A.U. after   11 cycles
 E2 =    -0.1582739520D+01 EUMP2 =    -0.47231583548209D+03

 The electronic state is 1-A.
 Alpha  occ. eigenvalues --  -11.21603 -11.21598 -11.21578 -11.21545 -11.21409
 Alpha  occ. eigenvalues --  -11.21369 -11.21349 -11.21308 -11.21069 -11.21055
 Alpha  occ. eigenvalues --  -11.21053 -11.20953  -1.08434  -1.08389  -1.03543
 Alpha  occ. eigenvalues --   -1.03477  -0.96013  -0.95910  -0.87056  -0.86904
 Alpha  occ. eigenvalues --   -0.79662  -0.79493  -0.78270  -0.78177  -0.65064
 Alpha  occ. eigenvalues --   -0.65021  -0.60961  -0.60866  -0.59365  -0.59290
 Alpha  occ. eigenvalues --   -0.57716  -0.57457  -0.55340  -0.55169  -0.52693
 Alpha  occ. eigenvalues --   -0.52647  -0.52581  -0.52173  -0.50002  -0.49797
 Alpha  occ. eigenvalues --   -0.48094  -0.47690  -0.46661  -0.46525  -0.45898
 Alpha  occ. eigenvalues --   -0.45737  -0.45676  -0.45524  -0.43787  -0.43742
 Alpha virt. eigenvalues --    0.21993   0.23143   0.23583   0.24872   0.26197
 Alpha virt. eigenvalues --    0.26310   0.27108   0.27183   0.28257   0.29149
 Alpha virt. eigenvalues --    0.30903   0.31280   0.31662   0.31946   0.32159

 Mulliken charges:
               1
     1  C   -0.298262
     2  C   -0.299543
     3  C   -0.475687
     4  H    0.149562
     5  H    0.149366
     6  H    0.151871
     7  H    0.151939
     8  H    0.155090
     9  H    0.155136
    10  H    0.160160
    11  C   -0.298524
    12  C   -0.299404
    13  C   -0.482657
    14  H    0.149085
    15  H    0.150277
    16  H    0.151475
    17  H    0.151639
    18  H    0.164061
    19  H    0.153459
    20  H    0.159936
    21  C   -0.298825
    22  C   -0.299525
    23  C   -0.480796
    24  H    0.148849
    25  H    0.150571
    26  H    0.151750
    27  H    0.152062
    28  H    0.162059
    29  H    0.154098
    30  H    0.160550
    31  C   -0.298258
    32  C   -0.299592
    33  C   -0.475729
    34  H    0.149483
    35  H    0.149725
    36  H    0.151788
    37  H    0.152229
    38  H    0.155173
    39  H    0.155124
    40  H    0.160284
 Sum of Mulliken charges =  -0.00000

 Dipole moment (field-independent basis, Debye):
    X=             -0.0343    Y=             -0.0114    Z=              0.0011  Tot=              0.0362
 Quadrupole moment (field-independent basis, Debye-Ang):
   XX=            -85.8387   YY=            -86.0672   ZZ=            -82.9681
   XY=              0.1026   XZ=              0.6064   YZ=             -0.0340

 Normal termination of Gaussian 16 at Thu May  6 00:38:12 2021.
