 Gaussian 16, Revision A.03,
 Gaussian 16:  EM64L-G16RevA.03 25-Dec-2016

 -------------
 #p 6-31g* mp2
 -------------

 ------------------------------------------------------
 Input file generated by CHIRIPA (05-May-2021 14:57:21)
 ------------------------------------------------------
 Symbolic Z-matrix:
 Charge =  0 Multiplicity = 1

                         Standard orientation:
 ---------------------------------------------------------------------
 Center     Atomic      Atomic             Coordinates (Angstroms)
 Number     Number       Type             X           Y           Z
 ---------------------------------------------------------------------
      1          6           0        0.721009   -1.185824    0.420156
      2          6           0        1.713671   -1.446557    1.370504
      3          6           0        3.023093   -0.999394    1.170480
      4          6           0        3.306046   -0.291223    0.003552
      5          6           0        2.338989   -0.015641   -0.961924
      6          6           0        1.036280   -0.472456   -0.740977
      7          1           0       -0.293574   -1.536940    0.583666
      8          1           0        1.471710   -2.000330    2.273186
      9          1           0        3.810953   -1.187297    1.889776
     10          1           0        2.610554    0.538897   -1.851956
     11          1           0        0.267395   -0.268505   -1.480752
     12          7           0        4.688719    0.187278   -0.219279
     13          8           0        4.912364    0.809060   -1.255622
     14          8           0        5.522632   -0.068516    0.646629
     15          6           0       -1.728782    2.438351    0.476798
     16          6           0       -2.596853    1.910419    1.438183
     17          6           0       -3.349418    0.764877    1.162627
     18          6           0       -3.208618    0.170133   -0.090267
     19          6           0       -2.352235    0.672199   -1.068953
     20          6           0       -1.609454    1.818649   -0.771501
     21          1           0       -1.147972    3.328588    0.699361
     22          1           0       -2.691552    2.389590    2.408478
     23          1           0       -4.028947    0.335058    1.888516
     24          1           0       -2.279187    0.172434   -2.027242
     25          1           0       -0.936085    2.226435   -1.520053
     26          7           0       -4.000146   -1.043081   -0.393576
     27          8           0       -3.858074   -1.548391   -1.504933
     28          8           0       -4.747629   -1.465715    0.485791
 ---------------------------------------------------------------------

 SCF Done:  E(RHF) =  -868.335720376     A.U. after   16 cycles
 E2 =    -0.2603252230D+01 EUMP2 =    -0.87093897260543D+03

 The electronic state is 1-A.
 Alpha  occ. eigenvalues --  -20.61777 -20.61767 -20.61020 -20.61012 -15.86832
 Alpha  occ. eigenvalues --  -15.86071 -11.32290 -11.31418 -11.28840 -11.28754
 Alpha  occ. eigenvalues --  -11.28425 -11.27997 -11.27956 -11.27816 -11.27745
 Alpha  occ. eigenvalues --  -11.27635 -11.26957 -11.26945  -1.60859  -1.60095
 Alpha  occ. eigenvalues --   -1.40406  -1.39650  -1.20433  -1.19578  -1.09773
 Alpha  occ. eigenvalues --   -1.08962  -1.05856  -1.04981  -0.96608  -0.95801
 Alpha  occ. eigenvalues --   -0.87201  -0.86391  -0.83451  -0.82643  -0.78524
 Alpha  occ. eigenvalues --   -0.77707  -0.73028  -0.72291  -0.72214  -0.71456
 Alpha  occ. eigenvalues --   -0.71422  -0.70645  -0.66074  -0.65796  -0.65221
 Alpha  occ. eigenvalues --   -0.65048  -0.63192  -0.62318  -0.56222  -0.55439
 Alpha  occ. eigenvalues --   -0.54296  -0.53896  -0.53233  -0.52982  -0.49800
 Alpha  occ. eigenvalues --   -0.49789  -0.49049  -0.49042  -0.45787  -0.45061
 Alpha  occ. eigenvalues --   -0.38420  -0.37821  -0.37247  -0.36345
 Alpha virt. eigenvalues --    0.03989   0.04822   0.09978   0.11207   0.15417
 Alpha virt. eigenvalues --    0.16417   0.19628   0.21691   0.25186   0.27043
 Alpha virt. eigenvalues --    0.27691   0.28473   0.30168   0.30888   0.31769

 Mulliken charges:
               1
     1  C   -0.170184
     2  C   -0.219594
     3  C   -0.171622
     4  C    0.158579
     5  C   -0.176349
     6  C   -0.212135
     7  H    0.228795
     8  H    0.224899
     9  H    0.275806
    10  H    0.272546
    11  H    0.217205
    12  N    0.487979
    13  O   -0.461619
    14  O   -0.459695
    15  C   -0.168588
    16  C   -0.217332
    17  C   -0.174097
    18  C    0.156302
    19  C   -0.185603
    20  C   -0.212871
    21  H    0.231651
    22  H    0.227888
    23  H    0.278083
    24  H    0.274883
    25  H    0.225330
    26  N    0.486460
    27  O   -0.459524
    28  O   -0.457192
 Sum of Mulliken charges =  -0.00000

 Dipole moment (field-independent basis, Debye):
    X=             -2.2785    Y=              2.7248    Z=              2.0575  Tot=              4.1048
 Quadrupole moment (field-independent basis, Debye-Ang):
   XX=           -154.9766   YY=           -102.3163   ZZ=            -97.3135
   XY=            -18.5369   XZ=             -2.0008   YZ=             -2.1377

 Normal termination of Gaussian 16 at Thu May  6 16:08:16 2021.
