 Gaussian 16, Revision A.03,
 Gaussian 16:  EM64L-G16RevA.03 25-Dec-2016

 -------------
 #p 6-31g* mp2
 -------------

 ------------------------------------------------------
 Input file generated by CHIRIPA (05-May-2021 14:55:25)
 ------------------------------------------------------
 Symbolic Z-matrix:
 Charge =  0 Multiplicity = 1

                         Standard orientation:
 ---------------------------------------------------------------------
 Center     Atomic      Atomic             Coordinates (Angstroms)
 Number     Number       Type             X           Y           Z
 ---------------------------------------------------------------------
      1          6           0        5.582066   -0.365433    0.737433
      2          6           0        4.867891    0.831116    0.858872
      3          6           0        3.549108    0.920204    0.403435
      4          6           0        2.972917   -0.211809   -0.170882
      5          6           0        3.658397   -1.418108   -0.305978
      6          6           0        4.976107   -1.484253    0.156419
      7          1           0        6.606111   -0.425727    1.093930
      8          1           0        5.335939    1.701607    1.309673
      9          1           0        2.973214    1.834048    0.485006
     10          1           0        3.164983   -2.268992   -0.759803
     11          1           0        5.528334   -2.414817    0.060803
     12          7           0        1.577349   -0.129640   -0.656717
     13          8           0        1.092384   -1.141183   -1.158939
     14          8           0        0.994891    0.944752   -0.526093
     15          6           0       -4.339609   -0.406675   -0.090396
     16          6           0       -5.505333   -0.921840    0.754397
     17          6           0       -5.973985   -2.313650    0.328931
     18          1           0       -4.641265   -0.386598   -1.146590
     19          1           0       -3.502356   -1.114589   -0.017857
     20          1           0       -6.339644   -0.212466    0.681392
     21          1           0       -5.200930   -0.940511    1.808725
     22          1           0       -5.158733   -3.038834    0.418783
     23          1           0       -6.303916   -2.306652   -0.714954
     24          1           0       -6.807903   -2.662510    0.945970
     25          6           0       -3.859877    0.983576    0.322871
     26          6           0       -2.694152    1.498739   -0.521923
     27          6           0       -2.225501    2.890551   -0.096456
     28          1           0       -4.697129    1.691489    0.250332
     29          1           0       -3.558220    0.963498    1.379065
     30          1           0       -2.998556    1.517412   -1.576249
     31          1           0       -1.859842    0.789366   -0.448917
     32          1           0       -1.895569    2.883552    0.947430
     33          1           0       -3.040753    3.615735   -0.186308
     34          1           0       -1.391583    3.239411   -0.713495
 ---------------------------------------------------------------------

 SCF Done:  E(RHF) =  -669.536442673     A.U. after   15 cycles
 E2 =    -0.2091371468D+01 EUMP2 =    -0.67162781414136D+03

 The electronic state is 1-A.
 Alpha  occ. eigenvalues --  -20.61058 -20.61043 -15.86065 -11.31357 -11.27912
 Alpha  occ. eigenvalues --  -11.27909 -11.27644 -11.26911 -11.26901 -11.20718
 Alpha  occ. eigenvalues --  -11.20322 -11.20234 -11.20068 -11.19752 -11.19533
 Alpha  occ. eigenvalues --   -1.60102  -1.39658  -1.19519  -1.08931  -1.07189
 Alpha  occ. eigenvalues --   -1.04909  -1.02260  -0.95777  -0.94766  -0.86311
 Alpha  occ. eigenvalues --   -0.85802  -0.82610  -0.78365  -0.77668  -0.76928
 Alpha  occ. eigenvalues --   -0.72279  -0.71412  -0.70627  -0.65175  -0.64912
 Alpha  occ. eigenvalues --   -0.63828  -0.62256  -0.59661  -0.58165  -0.56332
 Alpha  occ. eigenvalues --   -0.55414  -0.54084  -0.53243  -0.52999  -0.51476
 Alpha  occ. eigenvalues --   -0.51191  -0.49096  -0.49038  -0.48733  -0.46665
 Alpha  occ. eigenvalues --   -0.45395  -0.45078  -0.44512  -0.44267  -0.42528
 Alpha  occ. eigenvalues --   -0.37497  -0.36508
 Alpha virt. eigenvalues --    0.04849   0.11147   0.16353   0.21280   0.24024
 Alpha virt. eigenvalues --    0.25525   0.27210   0.27849   0.28155   0.28816
 Alpha virt. eigenvalues --    0.29119   0.30865   0.32380   0.32576   0.32947

 Mulliken charges:
               1
     1  C   -0.170452
     2  C   -0.218578
     3  C   -0.170768
     4  C    0.157873
     5  C   -0.170656
     6  C   -0.218613
     7  H    0.226231
     8  H    0.224111
     9  H    0.276181
    10  H    0.275958
    11  H    0.224027
    12  N    0.489358
    13  O   -0.459043
    14  O   -0.459492
    15  C   -0.298041
    16  C   -0.298530
    17  C   -0.474971
    18  H    0.148295
    19  H    0.153869
    20  H    0.149460
    21  H    0.149558
    22  H    0.155086
    23  H    0.154355
    24  H    0.156750
    25  C   -0.297644
    26  C   -0.306201
    27  C   -0.471604
    28  H    0.143429
    29  H    0.145246
    30  H    0.146231
    31  H    0.179141
    32  H    0.149241
    33  H    0.145010
    34  H    0.165178
 Sum of Mulliken charges =  -0.00000

 Dipole moment (field-independent basis, Debye):
    X=              5.3810    Y=             -0.3889    Z=              1.6305  Tot=              5.6361
 Quadrupole moment (field-independent basis, Debye-Ang):
   XX=            -67.4450   YY=            -91.5246   ZZ=            -95.4616
   XY=             -2.5996   XZ=              4.9907   YZ=              0.8312

 Normal termination of Gaussian 16 at Thu May  6 04:47:39 2021.
