 Gaussian 16, Revision A.03,
 Gaussian 16:  EM64L-G16RevA.03 25-Dec-2016

 -------------
 #p 6-31g* mp2
 -------------

 ------------------------------------------------------
 Input file generated by CHIRIPA (05-May-2021 14:51:13)
 ------------------------------------------------------
 Symbolic Z-matrix:
 Charge =  0 Multiplicity = 1

                         Standard orientation:
 ---------------------------------------------------------------------
 Center     Atomic      Atomic             Coordinates (Angstroms)
 Number     Number       Type             X           Y           Z
 ---------------------------------------------------------------------
      1          6           0       -2.622225   -0.349707   -0.109383
      2          6           0       -1.839677   -1.655356   -0.253902
      3          6           0       -0.332517   -1.430466   -0.379158
      4          1           0       -2.416631    0.291576   -0.977388
      5          1           0       -2.256882    0.192803    0.773568
      6          1           0       -2.207334   -2.195896   -1.135526
      7          1           0       -2.047307   -2.293684    0.614454
      8          1           0        0.054475   -0.912711    0.504453
      9          1           0       -0.106461   -0.814367   -1.255470
     10          1           0        0.207488   -2.376930   -0.481427
     11          6           0       -4.130322   -0.558102    0.016880
     12          6           0       -4.912870    0.747547    0.161399
     13          6           0       -6.420029    0.522657    0.286655
     14          1           0       -4.495665   -1.100612   -0.866071
     15          1           0       -4.335915   -1.199385    0.884885
     16          1           0       -4.705240    1.385875   -0.706957
     17          1           0       -4.545212    1.288087    1.043023
     18          1           0       -6.646085   -0.093441    1.162967
     19          1           0       -6.807022    0.004902   -0.596955
     20          1           0       -6.960035    1.469121    0.388924
     21          6           0        2.947543    0.999016   -0.273867
     22          6           0        3.149779    2.377581    0.355931
     23          6           0        2.285242    3.457568   -0.295220
     24          1           0        3.176038    1.056066   -1.346938
     25          1           0        1.887945    0.719149   -0.194364
     26          1           0        4.208933    2.654162    0.276498
     27          1           0        2.920961    2.317199    1.427664
     28          1           0        1.223190    3.208120   -0.203443
     29          1           0        2.518481    3.546999   -1.361148
     30          1           0        2.445618    4.435015    0.170330
     31          6           0        3.805003   -0.091207    0.366370
     32          6           0        3.602768   -1.469772   -0.263428
     33          6           0        4.467305   -2.549760    0.387724
     34          1           0        4.864601    0.188661    0.286867
     35          1           0        3.576509   -0.148258    1.439440
     36          1           0        3.831586   -1.409389   -1.335162
     37          1           0        2.543613   -1.746354   -0.183996
     38          1           0        4.234066   -2.639190    1.453652
     39          1           0        5.529357   -2.300311    0.295946
     40          1           0        4.306929   -3.527206   -0.077828
 ---------------------------------------------------------------------

 SCF Done:  E(RHF) =  -470.732365929     A.U. after   11 cycles
 E2 =    -0.1583737844D+01 EUMP2 =    -0.47231610377322D+03

 The electronic state is 1-A.
 Alpha  occ. eigenvalues --  -11.21669 -11.21636 -11.21517 -11.21465 -11.21401
 Alpha  occ. eigenvalues --  -11.21396 -11.21269 -11.21196 -11.21180 -11.21098
 Alpha  occ. eigenvalues --  -11.21014 -11.20972  -1.08494  -1.08309  -1.03602
 Alpha  occ. eigenvalues --   -1.03421  -0.96062  -0.95878  -0.87093  -0.86894
 Alpha  occ. eigenvalues --   -0.79721  -0.79469  -0.78336  -0.78062  -0.65129
 Alpha  occ. eigenvalues --   -0.64948  -0.60999  -0.60850  -0.59466  -0.59203
 Alpha  occ. eigenvalues --   -0.57733  -0.57434  -0.55345  -0.55172  -0.52836
 Alpha  occ. eigenvalues --   -0.52603  -0.52473  -0.52263  -0.49999  -0.49819
 Alpha  occ. eigenvalues --   -0.48049  -0.47778  -0.46702  -0.46507  -0.46006
 Alpha  occ. eigenvalues --   -0.45770  -0.45646  -0.45335  -0.43775  -0.43655
 Alpha virt. eigenvalues --    0.21759   0.22994   0.24224   0.24438   0.25760
 Alpha virt. eigenvalues --    0.26542   0.27135   0.27391   0.27817   0.29753
 Alpha virt. eigenvalues --    0.30382   0.31220   0.31681   0.31921   0.32270

 Mulliken charges:
               1
     1  C   -0.298769
     2  C   -0.300237
     3  C   -0.479828
     4  H    0.149891
     5  H    0.149111
     6  H    0.152358
     7  H    0.152102
     8  H    0.155994
     9  H    0.158502
    10  H    0.161670
    11  C   -0.298326
    12  C   -0.299681
    13  C   -0.475744
    14  H    0.149738
    15  H    0.149744
    16  H    0.152112
    17  H    0.151935
    18  H    0.155210
    19  H    0.155262
    20  H    0.160418
    21  C   -0.305791
    22  C   -0.299106
    23  C   -0.475678
    24  H    0.148487
    25  H    0.158530
    26  H    0.151564
    27  H    0.151113
    28  H    0.155080
    29  H    0.154893
    30  H    0.159895
    31  C   -0.297080
    32  C   -0.310159
    33  C   -0.475042
    34  H    0.148841
    35  H    0.148157
    36  H    0.150587
    37  H    0.165858
    38  H    0.154429
    39  H    0.154680
    40  H    0.159280
 Sum of Mulliken charges =  -0.00000

 Dipole moment (field-independent basis, Debye):
    X=             -0.0976    Y=             -0.0316    Z=             -0.0216  Tot=              0.1048
 Quadrupole moment (field-independent basis, Debye-Ang):
   XX=            -86.1674   YY=            -85.6464   ZZ=            -83.4348
   XY=              0.6571   XZ=             -0.5173   YZ=              0.1524

 Normal termination of Gaussian 16 at Wed May  5 23:12:03 2021.
