 Gaussian 16, Revision A.03,
 Gaussian 16:  EM64L-G16RevA.03 25-Dec-2016

 -------------
 #p 6-31g* mp2
 -------------

 ------------------------------------------------------
 Input file generated by CHIRIPA (05-May-2021 14:55:23)
 ------------------------------------------------------
 Symbolic Z-matrix:
 Charge =  0 Multiplicity = 1

                         Standard orientation:
 ---------------------------------------------------------------------
 Center     Atomic      Atomic             Coordinates (Angstroms)
 Number     Number       Type             X           Y           Z
 ---------------------------------------------------------------------
      1          6           0       -1.587848    0.964473    1.930336
      2          6           0       -2.705349    0.206896    2.296109
      3          6           0       -3.528547   -0.361326    1.319371
      4          6           0       -3.203266   -0.150859   -0.019728
      5          6           0       -2.096840    0.598933   -0.415861
      6          6           0       -1.287689    1.157733    0.577902
      7          1           0       -0.953824    1.402222    2.695702
      8          1           0       -2.940882    0.055151    3.345653
      9          1           0       -4.399827   -0.952228    1.574565
     10          1           0       -1.887607    0.732739   -1.470250
     11          1           0       -0.420468    1.745615    0.290906
     12          7           0       -4.067313   -0.747423   -1.062768
     13          8           0       -3.759162   -0.547260   -2.235634
     14          8           0       -5.036344   -1.403877   -0.687688
     15          6           0        3.834846    0.687549   -0.632693
     16          6           0        2.919587    1.746375   -0.016921
     17          6           0        2.763328    2.981323   -0.904772
     18          1           0        4.821695    1.131100   -0.823316
     19          1           0        3.432301    0.388757   -1.610485
     20          1           0        3.322991    2.042076    0.960034
     21          1           0        1.934860    1.300200    0.172436
     22          1           0        2.339172    2.706422   -1.875916
     23          1           0        3.735189    3.452513   -1.083842
     24          1           0        2.105069    3.725332   -0.445418
     25          6           0        4.000958   -0.553051    0.243117
     26          6           0        4.916216   -1.611877   -0.372655
     27          6           0        5.072475   -2.846826    0.515196
     28          1           0        4.403503   -0.254258    1.220909
     29          1           0        3.014109   -0.996602    0.433740
     30          1           0        5.900944   -1.165701   -0.562012
     31          1           0        4.512813   -1.907577   -1.349610
     32          1           0        4.100614   -3.318015    0.694267
     33          1           0        5.496632   -2.571923    1.486340
     34          1           0        5.730734   -3.590835    0.055842
 ---------------------------------------------------------------------

 SCF Done:  E(RHF) =  -669.535589225     A.U. after   15 cycles
 E2 =    -0.2091134435D+01 EUMP2 =    -0.67162672365970D+03

 The electronic state is 1-A.
 Alpha  occ. eigenvalues --  -20.60767 -20.60762 -15.85820 -11.31187 -11.27761
 Alpha  occ. eigenvalues --  -11.27755 -11.27496 -11.26769 -11.26735 -11.22527
 Alpha  occ. eigenvalues --  -11.22034 -11.21990 -11.21954 -11.21887 -11.21387
 Alpha  occ. eigenvalues --   -1.59842  -1.39396  -1.19360  -1.09053  -1.08753
 Alpha  occ. eigenvalues --   -1.04765  -1.04161  -0.96587  -0.95588  -0.87601
 Alpha  occ. eigenvalues --   -0.86162  -0.82421  -0.80249  -0.78839  -0.77467
 Alpha  occ. eigenvalues --   -0.72038  -0.71166  -0.70464  -0.65723  -0.65010
 Alpha  occ. eigenvalues --   -0.64760  -0.62171  -0.61500  -0.59981  -0.58198
 Alpha  occ. eigenvalues --   -0.55863  -0.55255  -0.53300  -0.53097  -0.53003
 Alpha  occ. eigenvalues --   -0.52856  -0.50521  -0.48808  -0.48794  -0.48537
 Alpha  occ. eigenvalues --   -0.47270  -0.46376  -0.46276  -0.44801  -0.44397
 Alpha  occ. eigenvalues --   -0.37337  -0.36362
 Alpha virt. eigenvalues --    0.05067   0.11192   0.16523   0.19857   0.22632
 Alpha virt. eigenvalues --    0.23611   0.25761   0.26509   0.27017   0.28294
 Alpha virt. eigenvalues --    0.28678   0.30518   0.30903   0.31318   0.31835

 Mulliken charges:
               1
     1  C   -0.172025
     2  C   -0.218587
     3  C   -0.170899
     4  C    0.158642
     5  C   -0.172276
     6  C   -0.224000
     7  H    0.226166
     8  H    0.223446
     9  H    0.275629
    10  H    0.275620
    11  H    0.231853
    12  N    0.488078
    13  O   -0.460494
    14  O   -0.460448
    15  C   -0.297909
    16  C   -0.305669
    17  C   -0.477923
    18  H    0.152276
    19  H    0.151867
    20  H    0.153188
    21  H    0.145487
    22  H    0.157058
    23  H    0.160762
    24  H    0.156935
    25  C   -0.299248
    26  C   -0.300267
    27  C   -0.476173
    28  H    0.149033
    29  H    0.150351
    30  H    0.152676
    31  H    0.153880
    32  H    0.156086
    33  H    0.154807
    34  H    0.162078
 Sum of Mulliken charges =  -0.00000

 Dipole moment (field-independent basis, Debye):
    X=              3.2002    Y=              2.0661    Z=              3.6487  Tot=              5.2748
 Quadrupole moment (field-independent basis, Debye-Ang):
   XX=           -111.7968   YY=            -95.9569   ZZ=            -92.6812
   XY=             -5.3362   XZ=            -14.2747   YZ=             -1.5317

 Normal termination of Gaussian 16 at Thu May  6 17:37:31 2021.
