 Gaussian 16, Revision A.03,
 Gaussian 16:  EM64L-G16RevA.03 25-Dec-2016

 -------------
 #p 6-31g* mp2
 -------------

 ------------------------------------------------------
 Input file generated by CHIRIPA (05-May-2021 14:53:12)
 ------------------------------------------------------
 Symbolic Z-matrix:
 Charge =  0 Multiplicity = 1

                         Standard orientation:
 ---------------------------------------------------------------------
 Center     Atomic      Atomic             Coordinates (Angstroms)
 Number     Number       Type             X           Y           Z
 ---------------------------------------------------------------------
      1          6           0       -2.973466    1.223677    0.277925
      2          6           0       -1.769734    1.630581   -0.572629
      3          6           0       -0.944120    2.747143    0.067250
      4          1           0       -3.610461    2.103055    0.444887
      5          1           0       -2.621855    0.900020    1.267375
      6          1           0       -2.123400    1.952063   -1.560650
      7          1           0       -1.135629    0.750090   -0.737747
      8          1           0       -0.563505    2.433156    1.044566
      9          1           0       -1.556888    3.641958    0.216986
     10          1           0       -0.088686    3.022404   -0.557509
     11          6           0       -3.808658    0.108442   -0.348519
     12          6           0       -5.012390   -0.298462    0.502035
     13          6           0       -5.838004   -1.415024   -0.137844
     14          1           0       -4.160269    0.432099   -1.337969
     15          1           0       -3.171663   -0.770936   -0.515482
     16          1           0       -5.646495    0.582028    0.667153
     17          1           0       -4.658724   -0.619944    1.490056
     18          1           0       -5.225236   -2.309840   -0.287581
     19          1           0       -6.218619   -1.101038   -1.115160
     20          1           0       -6.693438   -1.690285    0.486915
     21          6           0        4.947790    0.519717   -0.003324
     22          6           0        4.323192    0.166282   -1.203941
     23          6           0        3.049744   -0.410651   -1.198802
     24          6           0        2.427055   -0.620909    0.030563
     25          6           0        3.023283   -0.279611    1.243542
     26          6           0        4.296990    0.296037    1.214439
     27          1           0        5.937136    0.967393   -0.016625
     28          1           0        4.826234    0.338830   -2.151159
     29          1           0        2.543193   -0.693831   -2.113479
     30          1           0        2.496761   -0.463894    2.172107
     31          1           0        4.779650    0.569516    2.148405
     32          7           0        1.078774   -1.231002    0.048689
     33          8           0        0.551347   -1.405873    1.144990
     34          8           0        0.574951   -1.522770   -1.033749
 ---------------------------------------------------------------------

 SCF Done:  E(RHF) =  -669.536527406     A.U. after   15 cycles
 E2 =    -0.2091852895D+01 EUMP2 =    -0.67162838030114D+03

 The electronic state is 1-A.
 Alpha  occ. eigenvalues --  -20.61034 -20.61026 -15.86040 -11.31318 -11.27876
 Alpha  occ. eigenvalues --  -11.27872 -11.27607 -11.26872 -11.26863 -11.20631
 Alpha  occ. eigenvalues --  -11.20591 -11.20461 -11.20338 -11.20200 -11.20194
 Alpha  occ. eigenvalues --   -1.60087  -1.39642  -1.19481  -1.08896  -1.07399
 Alpha  occ. eigenvalues --   -1.04871  -1.02628  -0.95746  -0.95097  -0.86274
 Alpha  occ. eigenvalues --   -0.86117  -0.82582  -0.78679  -0.77642  -0.77194
 Alpha  occ. eigenvalues --   -0.72264  -0.71414  -0.70592  -0.65138  -0.64876
 Alpha  occ. eigenvalues --   -0.64001  -0.62219  -0.60016  -0.58476  -0.56707
 Alpha  occ. eigenvalues --   -0.55380  -0.54379  -0.53204  -0.52963  -0.51838
 Alpha  occ. eigenvalues --   -0.51529  -0.49100  -0.49036  -0.48968  -0.47011
 Alpha  occ. eigenvalues --   -0.45762  -0.45087  -0.44741  -0.44481  -0.42844
 Alpha  occ. eigenvalues --   -0.37454  -0.36467
 Alpha virt. eigenvalues --    0.04848   0.11183   0.16333   0.21310   0.23844
 Alpha virt. eigenvalues --    0.25055   0.27237   0.27620   0.28228   0.28595
 Alpha virt. eigenvalues --    0.28866   0.30877   0.32204   0.32305   0.32604

 Mulliken charges:
               1
     1  C   -0.296825
     2  C   -0.307516
     3  C   -0.476772
     4  H    0.143404
     5  H    0.154033
     6  H    0.147859
     7  H    0.167392
     8  H    0.153894
     9  H    0.152846
    10  H    0.154177
    11  C   -0.301654
    12  C   -0.299208
    13  C   -0.475614
    14  H    0.144786
    15  H    0.165520
    16  H    0.147429
    17  H    0.153361
    18  H    0.158377
    19  H    0.152676
    20  H    0.156760
    21  C   -0.170313
    22  C   -0.218628
    23  C   -0.170688
    24  C    0.158924
    25  C   -0.170500
    26  C   -0.218490
    27  H    0.226158
    28  H    0.223964
    29  H    0.276051
    30  H    0.275665
    31  H    0.223965
    32  N    0.487322
    33  O   -0.459405
    34  O   -0.458951
 Sum of Mulliken charges =  -0.00000

 Dipole moment (field-independent basis, Debye):
    X=              4.9826    Y=              1.9336    Z=             -0.0522  Tot=              5.3448
 Quadrupole moment (field-independent basis, Debye-Ang):
   XX=            -73.1762   YY=            -98.9692   ZZ=            -89.6503
   XY=              1.8524   XZ=             -0.0566   YZ=             -0.1253

 Normal termination of Gaussian 16 at Wed May  5 18:30:56 2021.
