 Gaussian 16, Revision A.03,
 Gaussian 16:  EM64L-G16RevA.03 25-Dec-2016

 -------------
 #p 6-31g* mp2
 -------------

 ------------------------------------------------------
 Input file generated by CHIRIPA (05-May-2021 14:51:12)
 ------------------------------------------------------
 Symbolic Z-matrix:
 Charge =  0 Multiplicity = 1

                         Standard orientation:
 ---------------------------------------------------------------------
 Center     Atomic      Atomic             Coordinates (Angstroms)
 Number     Number       Type             X           Y           Z
 ---------------------------------------------------------------------
      1          6           0        3.023633   -0.146914    0.787250
      2          6           0        2.388473    1.204194    1.117499
      3          6           0        1.133804    1.072234    1.981319
      4          1           0        2.285435   -0.775433    0.270557
      5          1           0        3.274598   -0.664828    1.723294
      6          1           0        2.140045    1.720000    0.181100
      7          1           0        3.128329    1.829639    1.633296
      8          1           0        1.369612    0.580361    2.930560
      9          1           0        0.375712    0.470100    1.470112
     10          1           0        0.696026    2.049979    2.205429
     11          6           0        4.278892   -0.031475   -0.075725
     12          6           0        4.914052   -1.382583   -0.405973
     13          6           0        6.168721   -1.250623   -1.269794
     14          1           0        4.027927    0.486438   -1.011768
     15          1           0        5.017090    0.597044    0.440969
     16          1           0        4.174196   -2.008028   -0.921770
     17          1           0        5.162480   -1.898390    0.530426
     18          1           0        6.926813   -0.648489   -0.758587
     19          1           0        5.932913   -0.758751   -2.219034
     20          1           0        6.606499   -2.228368   -1.493903
     21          6           0       -3.554576    0.818898   -0.559763
     22          6           0       -2.086499    1.212421   -0.726724
     23          6           0       -1.909330    2.675198   -1.134997
     24          1           0       -4.086974    1.004988   -1.502562
     25          1           0       -4.017922    1.469792    0.194586
     26          1           0       -1.625704    0.560071   -1.479534
     27          1           0       -1.557494    1.025193    0.216522
     28          1           0       -2.343212    3.340679   -0.381683
     29          1           0       -2.411810    2.872913   -2.087376
     30          1           0       -0.852262    2.935049   -1.248771
     31          6           0       -3.747949   -0.640509   -0.151763
     32          6           0       -5.216026   -1.034032    0.015198
     33          6           0       -5.393195   -2.496809    0.423473
     34          1           0       -3.284604   -1.291402   -0.906112
     35          1           0       -3.215551   -0.826599    0.791036
     36          1           0       -5.745032   -0.846804   -0.928048
     37          1           0       -5.676821   -0.381681    0.768009
     38          1           0       -4.890715   -2.694524    1.375850
     39          1           0       -4.959313   -3.162289   -0.329843
     40          1           0       -6.450263   -2.756659    0.537246
 ---------------------------------------------------------------------

 SCF Done:  E(RHF) =  -470.733242126     A.U. after   11 cycles
 E2 =    -0.1582652999D+01 EUMP2 =    -0.47231589512538D+03

 The electronic state is 1-A.
 Alpha  occ. eigenvalues --  -11.21612 -11.21602 -11.21599 -11.21563 -11.21405
 Alpha  occ. eigenvalues --  -11.21400 -11.21346 -11.21340 -11.21072 -11.21071
 Alpha  occ. eigenvalues --  -11.21069 -11.21068  -1.08439  -1.08417  -1.03556
 Alpha  occ. eigenvalues --   -1.03501  -0.96002  -0.95957  -0.87019  -0.86976
 Alpha  occ. eigenvalues --   -0.79659  -0.79534  -0.78267  -0.78217  -0.65119
 Alpha  occ. eigenvalues --   -0.65007  -0.61073  -0.60805  -0.59372  -0.59317
 Alpha  occ. eigenvalues --   -0.57596  -0.57586  -0.55345  -0.55192  -0.52692
 Alpha  occ. eigenvalues --   -0.52657  -0.52442  -0.52373  -0.50054  -0.49833
 Alpha  occ. eigenvalues --   -0.48000  -0.47831  -0.46791  -0.46463  -0.45854
 Alpha  occ. eigenvalues --   -0.45747  -0.45727  -0.45546  -0.43791  -0.43773
 Alpha virt. eigenvalues --    0.21289   0.23094   0.23580   0.25068   0.25827
 Alpha virt. eigenvalues --    0.26544   0.26970   0.27475   0.28169   0.28921
 Alpha virt. eigenvalues --    0.30642   0.30962   0.31631   0.31799   0.32354

 Mulliken charges:
               1
     1  C   -0.298635
     2  C   -0.299685
     3  C   -0.480609
     4  H    0.150227
     5  H    0.149494
     6  H    0.152114
     7  H    0.152031
     8  H    0.155113
     9  H    0.160111
    10  H    0.160131
    11  C   -0.298338
    12  C   -0.299667
    13  C   -0.475710
    14  H    0.149521
    15  H    0.149631
    16  H    0.151981
    17  H    0.151931
    18  H    0.155180
    19  H    0.155178
    20  H    0.160257
    21  C   -0.297550
    22  C   -0.307547
    23  C   -0.475486
    24  H    0.149477
    25  H    0.149575
    26  H    0.150689
    27  H    0.160678
    28  H    0.155215
    29  H    0.155073
    30  H    0.160064
    31  C   -0.298479
    32  C   -0.299614
    33  C   -0.475740
    34  H    0.149236
    35  H    0.149523
    36  H    0.151951
    37  H    0.152039
    38  H    0.155292
    39  H    0.155091
    40  H    0.160258
 Sum of Mulliken charges =  -0.00000

 Dipole moment (field-independent basis, Debye):
    X=              0.0050    Y=             -0.0017    Z=              0.0148  Tot=              0.0157
 Quadrupole moment (field-independent basis, Debye-Ang):
   XX=            -85.4202   YY=            -85.8169   ZZ=            -83.5840
   XY=             -0.2021   XZ=              1.1540   YZ=              0.6044

 Normal termination of Gaussian 16 at Thu May  6 00:43:43 2021.
