 Gaussian 16, Revision A.03,
 Gaussian 16:  EM64L-G16RevA.03 25-Dec-2016

 -------------
 #p 6-31g* mp2
 -------------

 ------------------------------------------------------
 Input file generated by CHIRIPA (05-May-2021 14:57:25)
 ------------------------------------------------------
 Symbolic Z-matrix:
 Charge =  0 Multiplicity = 1

                         Standard orientation:
 ---------------------------------------------------------------------
 Center     Atomic      Atomic             Coordinates (Angstroms)
 Number     Number       Type             X           Y           Z
 ---------------------------------------------------------------------
      1          6           0       -5.501198    0.987008   -0.695528
      2          6           0       -4.256048    1.593039   -0.892626
      3          6           0       -3.076870    0.912124   -0.575701
      4          6           0       -3.180207   -0.379364   -0.061240
      5          6           0       -4.405875   -1.010134    0.146508
      6          6           0       -5.572012   -0.310358   -0.177503
      7          1           0       -6.412147    1.523285   -0.944475
      8          1           0       -4.198020    2.600488   -1.294777
      9          1           0       -2.099763    1.357499   -0.718252
     10          1           0       -4.431770   -2.015490    0.549009
     11          1           0       -6.537634   -0.783504   -0.023382
     12          7           0       -1.938767   -1.110203    0.278025
     13          8           0       -2.056782   -2.247092    0.729901
     14          8           0       -0.871218   -0.532306    0.085641
     15          6           0        1.894805    1.751241    1.502349
     16          6           0        1.959600    0.380585    1.773687
     17          6           0        2.781737   -0.455771    1.012670
     18          6           0        3.528860    0.114641   -0.016760
     19          6           0        3.485826    1.476440   -0.311617
     20          6           0        2.656781    2.293837    0.462396
     21          1           0        1.253465    2.393578    2.098572
     22          1           0        1.368953   -0.043560    2.580709
     23          1           0        2.850890   -1.520257    1.201102
     24          1           0        4.086358    1.870197   -1.122625
     25          1           0        2.608451    3.357953    0.249403
     26          7           0        4.402877   -0.760736   -0.829294
     27          8           0        5.051177   -0.233677   -1.730710
     28          8           0        4.423081   -1.957341   -0.549356
 ---------------------------------------------------------------------

 SCF Done:  E(RHF) =  -868.337973270     A.U. after   15 cycles
 E2 =    -0.2599836125D+01 EUMP2 =    -0.87093780939568D+03

 The electronic state is 1-A.
 Alpha  occ. eigenvalues --  -20.61299 -20.61293 -20.59846 -20.59823 -15.86327
 Alpha  occ. eigenvalues --  -15.84882 -11.31636 -11.30084 -11.28209 -11.28182
 Alpha  occ. eigenvalues --  -11.27917 -11.27201 -11.27176 -11.26701 -11.26531
 Alpha  occ. eigenvalues --  -11.26415 -11.25771 -11.25561  -1.60377  -1.58913
 Alpha  occ. eigenvalues --   -1.39928  -1.38471  -1.19803  -1.18239  -1.09209
 Alpha  occ. eigenvalues --   -1.07694  -1.05195  -1.03618  -0.96054  -0.94555
 Alpha  occ. eigenvalues --   -0.86594  -0.85057  -0.82883  -0.81391  -0.77943
 Alpha  occ. eigenvalues --   -0.76444  -0.72553  -0.71699  -0.71115  -0.70903
 Alpha  occ. eigenvalues --   -0.70225  -0.69423  -0.65454  -0.65194  -0.63921
 Alpha  occ. eigenvalues --   -0.63672  -0.62542  -0.60993  -0.55691  -0.54219
 Alpha  occ. eigenvalues --   -0.53530  -0.53284  -0.51945  -0.51753  -0.49320
 Alpha  occ. eigenvalues --   -0.49302  -0.47873  -0.47856  -0.45349  -0.43913
 Alpha  occ. eigenvalues --   -0.37780  -0.36798  -0.36231  -0.35119
 Alpha virt. eigenvalues --    0.04568   0.06088   0.10858   0.12473   0.16099
 Alpha virt. eigenvalues --    0.17616   0.21020   0.22377   0.26925   0.27903
 Alpha virt. eigenvalues --    0.28334   0.29231   0.30594   0.31856   0.32126

 Mulliken charges:
               1
     1  C   -0.170441
     2  C   -0.218478
     3  C   -0.172071
     4  C    0.157696
     5  C   -0.170717
     6  C   -0.218456
     7  H    0.226917
     8  H    0.223731
     9  H    0.274778
    10  H    0.276538
    11  H    0.224923
    12  N    0.488495
    13  O   -0.459947
    14  O   -0.462249
    15  C   -0.172215
    16  C   -0.198769
    17  C   -0.162593
    18  C    0.157630
    19  C   -0.173150
    20  C   -0.220005
    21  H    0.218267
    22  H    0.223696
    23  H    0.276769
    24  H    0.270769
    25  H    0.216114
    26  N    0.488146
    27  O   -0.465253
    28  O   -0.460126
 Sum of Mulliken charges =  -0.00000

 Dipole moment (field-independent basis, Debye):
    X=             -7.7818    Y=              5.4262    Z=              1.7481  Tot=              9.6466
 Quadrupole moment (field-independent basis, Debye-Ang):
   XX=            -98.4974   YY=           -100.8209   ZZ=           -104.2472
   XY=              7.0863   XZ=             12.8739   YZ=             -3.4586

 Normal termination of Gaussian 16 at Thu May  6 14:42:36 2021.
