 Gaussian 16, Revision A.03,
 Gaussian 16:  EM64L-G16RevA.03 25-Dec-2016

 -------------
 #p 6-31g* mp2
 -------------

 ------------------------------------------------------
 Input file generated by CHIRIPA (05-May-2021 14:57:23)
 ------------------------------------------------------
 Symbolic Z-matrix:
 Charge =  0 Multiplicity = 1

                         Standard orientation:
 ---------------------------------------------------------------------
 Center     Atomic      Atomic             Coordinates (Angstroms)
 Number     Number       Type             X           Y           Z
 ---------------------------------------------------------------------
      1          6           0        1.934049   -2.124465   -0.033027
      2          6           0        2.824237   -1.784659   -1.057047
      3          6           0        3.568113   -0.602947   -0.988094
      4          6           0        3.396165    0.219410    0.124315
      5          6           0        2.517202   -0.091628    1.160640
      6          6           0        1.783638   -1.278357    1.070603
      7          1           0        1.360194   -3.044396   -0.094780
      8          1           0        2.943091   -2.439849   -1.915328
      9          1           0        4.264284   -0.315598   -1.766678
     10          1           0        2.420250    0.581614    2.003708
     11          1           0        1.093042   -1.539710    1.867357
     12          7           0        4.178215    1.473091    0.208473
     13          8           0        4.008554    2.180605    1.199067
     14          8           0        4.946038    1.724473   -0.717751
     15          6           0       -5.110007    1.710365   -0.078864
     16          6           0       -5.063740    0.716864    0.904668
     17          6           0       -4.047316   -0.243017    0.897003
     18          6           0       -3.089126   -0.179376   -0.113497
     19          6           0       -3.108144    0.798061   -1.107250
     20          6           0       -4.133783    1.747727   -1.079920
     21          1           0       -5.903169    2.452057   -0.065271
     22          1           0       -5.820552    0.685406    1.683314
     23          1           0       -3.987603   -1.023105    1.646213
     24          1           0       -2.339638    0.803675   -1.870654
     25          1           0       -4.167211    2.518145   -1.845024
     26          7           0       -2.008205   -1.190152   -0.132022
     27          8           0       -1.175923   -1.112349   -1.033073
     28          8           0       -2.013729   -2.041063    0.754859
 ---------------------------------------------------------------------

 SCF Done:  E(RHF) =  -868.340284805     A.U. after   16 cycles
 E2 =    -0.2599651878D+01 EUMP2 =    -0.87093993668251D+03

 The electronic state is 1-A.
 Alpha  occ. eigenvalues --  -20.61734 -20.61671 -20.59895 -20.59890 -15.86694
 Alpha  occ. eigenvalues --  -15.84941 -11.31759 -11.29944 -11.28305 -11.28269
 Alpha  occ. eigenvalues --  -11.27970 -11.27241 -11.27212 -11.26550 -11.26519
 Alpha  occ. eigenvalues --  -11.26019 -11.25379 -11.25281  -1.60762  -1.58982
 Alpha  occ. eigenvalues --   -1.40320  -1.38546  -1.19902  -1.18082  -1.09358
 Alpha  occ. eigenvalues --   -1.07487  -1.05256  -1.03460  -0.96245  -0.94396
 Alpha  occ. eigenvalues --   -0.86669  -0.84845  -0.83085  -0.81273  -0.78168
 Alpha  occ. eigenvalues --   -0.76402  -0.72942  -0.72057  -0.71169  -0.71004
 Alpha  occ. eigenvalues --   -0.70307  -0.69111  -0.65557  -0.65255  -0.63722
 Alpha  occ. eigenvalues --   -0.63439  -0.62606  -0.60842  -0.55771  -0.53829
 Alpha  occ. eigenvalues --   -0.53605  -0.53342  -0.51820  -0.51546  -0.49718
 Alpha  occ. eigenvalues --   -0.49640  -0.47942  -0.47888  -0.45779  -0.44036
 Alpha  occ. eigenvalues --   -0.37868  -0.36844  -0.35850  -0.35082
 Alpha virt. eigenvalues --    0.04322   0.06169   0.10816   0.12601   0.15894
 Alpha virt. eigenvalues --    0.17794   0.20996   0.22822   0.26925   0.27859
 Alpha virt. eigenvalues --    0.28578   0.29735   0.30608   0.32054   0.32461

 Mulliken charges:
               1
     1  C   -0.148423
     2  C   -0.220826
     3  C   -0.172489
     4  C    0.155881
     5  C   -0.174661
     6  C   -0.221740
     7  H    0.233990
     8  H    0.219505
     9  H    0.270387
    10  H    0.269426
    11  H    0.227382
    12  N    0.488285
    13  O   -0.465354
    14  O   -0.464673
    15  C   -0.169546
    16  C   -0.218479
    17  C   -0.171063
    18  C    0.157803
    19  C   -0.169853
    20  C   -0.218344
    21  H    0.228081
    22  H    0.225045
    23  H    0.274601
    24  H    0.277154
    25  H    0.226304
    26  N    0.488865
    27  O   -0.457592
    28  O   -0.469665
 Sum of Mulliken charges =  -0.00000

 Dipole moment (field-independent basis, Debye):
    X=             -7.1088    Y=             -1.0198    Z=             -0.3435  Tot=              7.1898
 Quadrupole moment (field-independent basis, Debye-Ang):
   XX=           -100.4548   YY=           -107.8612   ZZ=            -98.2896
   XY=            -26.8694   XZ=             -5.0958   YZ=             -2.0933

 Normal termination of Gaussian 16 at Wed May  5 19:25:20 2021.
