 Gaussian 16, Revision A.03,
 Gaussian 16:  EM64L-G16RevA.03 25-Dec-2016

 -------------
 #p 6-31g* mp2
 -------------

 ------------------------------------------------------
 Input file generated by CHIRIPA (05-May-2021 14:57:21)
 ------------------------------------------------------
 Symbolic Z-matrix:
 Charge =  0 Multiplicity = 1

                         Standard orientation:
 ---------------------------------------------------------------------
 Center     Atomic      Atomic             Coordinates (Angstroms)
 Number     Number       Type             X           Y           Z
 ---------------------------------------------------------------------
      1          6           0       -3.229593   -2.330756    0.094700
      2          6           0       -4.397213   -1.581871   -0.085173
      3          6           0       -4.342666   -0.186423   -0.150734
      4          6           0       -3.098077    0.430204   -0.032164
      5          6           0       -1.917083   -0.288248    0.147752
      6          6           0       -1.995430   -1.682697    0.210384
      7          1           0       -3.281210   -3.414385    0.144492
      8          1           0       -5.357064   -2.082475   -0.175321
      9          1           0       -5.231013    0.417763   -0.289364
     10          1           0       -0.974838    0.239090    0.234389
     11          1           0       -1.087007   -2.261730    0.350141
     12          7           0       -3.027733    1.906973   -0.100020
     13          8           0       -1.918937    2.426320    0.007164
     14          8           0       -4.082724    2.517155   -0.259106
     15          6           0        3.995256    2.174714    0.090590
     16          6           0        3.425916    1.606601    1.234976
     17          6           0        2.932019    0.298976    1.207938
     18          6           0        3.024055   -0.415118    0.014251
     19          6           0        3.585722    0.123117   -1.142522
     20          6           0        4.073205    1.432467   -1.092421
     21          1           0        4.376436    3.191178    0.120550
     22          1           0        3.364050    2.180688    2.155107
     23          1           0        2.486331   -0.165359    2.079242
     24          1           0        3.633383   -0.473940   -2.045113
     25          1           0        4.514846    1.871100   -1.982701
     26          7           0        2.504585   -1.800356   -0.026581
     27          8           0        2.597496   -2.408555   -1.090582
     28          8           0        2.014348   -2.251676    1.006190
 ---------------------------------------------------------------------

 SCF Done:  E(RHF) =  -868.340597086     A.U. after   16 cycles
 E2 =    -0.2598709054D+01 EUMP2 =    -0.87093930613998D+03

 The electronic state is 1-A.
 Alpha  occ. eigenvalues --  -20.61534 -20.61499 -20.60533 -20.60519 -15.86531
 Alpha  occ. eigenvalues --  -15.85571 -11.31541 -11.30726 -11.28061 -11.28036
 Alpha  occ. eigenvalues --  -11.27680 -11.27266 -11.27206 -11.26960 -11.26947
 Alpha  occ. eigenvalues --  -11.26876 -11.26256 -11.26016  -1.60592  -1.59607
 Alpha  occ. eigenvalues --   -1.40149  -1.39167  -1.19660  -1.18846  -1.09117
 Alpha  occ. eigenvalues --   -1.08272  -1.04998  -1.04199  -0.96012  -0.95156
 Alpha  occ. eigenvalues --   -0.86415  -0.85600  -0.82854  -0.81984  -0.77953
 Alpha  occ. eigenvalues --   -0.77068  -0.72746  -0.71908  -0.71797  -0.70925
 Alpha  occ. eigenvalues --   -0.70745  -0.69949  -0.65307  -0.64988  -0.64485
 Alpha  occ. eigenvalues --   -0.64153  -0.62353  -0.61536  -0.55493  -0.54689
 Alpha  occ. eigenvalues --   -0.53349  -0.53081  -0.52561  -0.52249  -0.49530
 Alpha  occ. eigenvalues --   -0.49478  -0.48564  -0.48528  -0.45618  -0.44620
 Alpha  occ. eigenvalues --   -0.37599  -0.36809  -0.36577  -0.35800
 Alpha virt. eigenvalues --    0.04510   0.05427   0.11050   0.11855   0.16090
 Alpha virt. eigenvalues --    0.16997   0.21244   0.22075   0.27147   0.27595
 Alpha virt. eigenvalues --    0.28330   0.28802   0.30950   0.31752   0.32344

 Mulliken charges:
               1
     1  C   -0.171662
     2  C   -0.218373
     3  C   -0.172899
     4  C    0.158239
     5  C   -0.174046
     6  C   -0.224547
     7  H    0.227572
     8  H    0.221672
     9  H    0.273149
    10  H    0.270271
    11  H    0.244217
    12  N    0.488249
    13  O   -0.464583
    14  O   -0.461797
    15  C   -0.167659
    16  C   -0.215408
    17  C   -0.173489
    18  C    0.155132
    19  C   -0.170247
    20  C   -0.217296
    21  H    0.229222
    22  H    0.227025
    23  H    0.274587
    24  H    0.275702
    25  H    0.225754
    26  N    0.486475
    27  O   -0.457407
    28  O   -0.467854
 Sum of Mulliken charges =  -0.00000

 Dipole moment (field-independent basis, Debye):
    X=              1.9245    Y=             -0.3014    Z=              0.3552  Tot=              1.9801
 Quadrupole moment (field-independent basis, Debye-Ang):
   XX=            -87.3741   YY=           -114.1722   ZZ=           -100.9480
   XY=             31.0378   XZ=             -1.2184   YZ=              0.7684

 Normal termination of Gaussian 16 at Wed May  5 20:56:09 2021.
