 Gaussian 16, Revision A.03,
 Gaussian 16:  EM64L-G16RevA.03 25-Dec-2016

 -------------
 #p 6-31g* mp2
 -------------

 ------------------------------------------------------
 Input file generated by CHIRIPA (05-May-2021 14:53:14)
 ------------------------------------------------------
 Symbolic Z-matrix:
 Charge =  0 Multiplicity = 1

                         Standard orientation:
 ---------------------------------------------------------------------
 Center     Atomic      Atomic             Coordinates (Angstroms)
 Number     Number       Type             X           Y           Z
 ---------------------------------------------------------------------
      1          6           0        4.966597    0.027586   -0.145245
      2          6           0        5.389356    1.493464   -0.042959
      3          6           0        6.899445    1.684661   -0.187421
      4          1           0        5.486821   -0.552352    0.629341
      5          1           0        5.297296   -0.375520   -1.112478
      6          1           0        5.056746    1.894074    0.923217
      7          1           0        4.867920    2.070013   -0.817757
      8          1           0        7.244004    1.311277   -1.157197
      9          1           0        7.433902    1.134339    0.593669
     10          1           0        7.179620    2.739908   -0.111168
     11          6           0        3.459794   -0.179713   -0.002767
     12          6           0        3.037035   -1.645591   -0.105052
     13          6           0        1.526946   -1.836788    0.039410
     14          1           0        3.129096    0.223394    0.964466
     15          1           0        2.939571    0.400225   -0.777353
     16          1           0        3.558472   -2.222140    0.669745
     17          1           0        3.369646   -2.046201   -1.071229
     18          1           0        0.992489   -1.286465   -0.741680
     19          1           0        1.182388   -1.463404    1.009186
     20          1           0        1.246771   -2.892035   -0.036843
     21          6           0       -4.705086    2.129374   -0.230584
     22          6           0       -3.930482    1.965765    0.922559
     23          6           0       -3.143478    0.822906    1.092992
     24          6           0       -3.154905   -0.140690    0.085699
     25          6           0       -3.915931   -0.006584   -1.074536
     26          6           0       -4.695356    1.144413   -1.223701
     27          1           0       -5.313506    3.020335   -0.354720
     28          1           0       -3.936085    2.729056    1.695475
     29          1           0       -2.534337    0.670744    1.975722
     30          1           0       -3.889761   -0.784763   -1.827643
     31          1           0       -5.295932    1.268802   -2.120295
     32          7           0       -2.325750   -1.354892    0.254871
     33          8           0       -2.353196   -2.189223   -0.647225
     34          8           0       -1.664114   -1.449261    1.286360
 ---------------------------------------------------------------------

 SCF Done:  E(RHF) =  -669.535728418     A.U. after   15 cycles
 E2 =    -0.2091463037D+01 EUMP2 =    -0.67162719145472D+03

 The electronic state is 1-A.
 Alpha  occ. eigenvalues --  -20.60848 -20.60835 -15.85871 -11.31240 -11.27807
 Alpha  occ. eigenvalues --  -11.27803 -11.27550 -11.26822 -11.26812 -11.21197
 Alpha  occ. eigenvalues --  -11.20820 -11.20746 -11.20640 -11.20506 -11.19449
 Alpha  occ. eigenvalues --   -1.59895  -1.39454  -1.19410  -1.08806  -1.07737
 Alpha  occ. eigenvalues --   -1.04813  -1.02724  -0.95647  -0.95130  -0.86214
 Alpha  occ. eigenvalues --   -0.86138  -0.82476  -0.78820  -0.77531  -0.77509
 Alpha  occ. eigenvalues --   -0.72097  -0.71207  -0.70519  -0.65066  -0.64816
 Alpha  occ. eigenvalues --   -0.64380  -0.62160  -0.60129  -0.58584  -0.56744
 Alpha  occ. eigenvalues --   -0.55316  -0.54432  -0.53146  -0.52905  -0.51788
 Alpha  occ. eigenvalues --   -0.51574  -0.49133  -0.48846  -0.48814  -0.47112
 Alpha  occ. eigenvalues --   -0.45908  -0.45132  -0.45010  -0.44635  -0.42961
 Alpha  occ. eigenvalues --   -0.37389  -0.36416
 Alpha virt. eigenvalues --    0.04983   0.11239   0.16461   0.21366   0.23488
 Alpha virt. eigenvalues --    0.25147   0.27270   0.27299   0.28071   0.28222
 Alpha virt. eigenvalues --    0.28941   0.30938   0.32118   0.32370   0.32581

 Mulliken charges:
               1
     1  C   -0.297344
     2  C   -0.298854
     3  C   -0.475237
     4  H    0.149062
     5  H    0.148580
     6  H    0.150576
     7  H    0.150238
     8  H    0.154739
     9  H    0.154945
    10  H    0.158254
    11  C   -0.296887
    12  C   -0.302180
    13  C   -0.470867
    14  H    0.147753
    15  H    0.146406
    16  H    0.149121
    17  H    0.147803
    18  H    0.146677
    19  H    0.165982
    20  H    0.166887
    21  C   -0.170726
    22  C   -0.218528
    23  C   -0.170652
    24  C    0.158744
    25  C   -0.170970
    26  C   -0.218568
    27  H    0.225777
    28  H    0.223620
    29  H    0.275469
    30  H    0.275736
    31  H    0.223606
    32  N    0.489123
    33  O   -0.459735
    34  O   -0.458551
 Sum of Mulliken charges =  -0.00000

 Dipole moment (field-independent basis, Debye):
    X=             -3.2050    Y=              4.1835    Z=             -0.5243  Tot=              5.2961
 Quadrupole moment (field-independent basis, Debye-Ang):
   XX=            -78.6998   YY=            -95.9714   ZZ=            -90.0961
   XY=            -13.2201   XZ=              3.6727   YZ=              2.0401

 Normal termination of Gaussian 16 at Thu May  6 02:39:29 2021.
