 Gaussian 16, Revision A.03,
 Gaussian 16:  EM64L-G16RevA.03 25-Dec-2016

 -------------
 #p 6-31g* mp2
 -------------

 ------------------------------------------------------
 Input file generated by CHIRIPA (05-May-2021 14:51:09)
 ------------------------------------------------------
 Symbolic Z-matrix:
 Charge =  0 Multiplicity = 1

                         Standard orientation:
 ---------------------------------------------------------------------
 Center     Atomic      Atomic             Coordinates (Angstroms)
 Number     Number       Type             X           Y           Z
 ---------------------------------------------------------------------
      1          6           0       -2.318532   -0.703339    1.039830
      2          6           0       -0.791219   -0.649290    1.088612
      3          6           0       -0.229626   -1.031394    2.458430
      4          1           0       -2.727550   -0.030600    1.806035
      5          1           0       -2.651233   -1.716750    1.303846
      6          1           0       -0.461444    0.363350    0.823235
      7          1           0       -0.385791   -1.322092    0.322073
      8          1           0       -0.530150   -2.049114    2.727748
      9          1           0       -0.606232   -0.354096    3.231758
     10          1           0        0.863830   -0.986024    2.470908
     11          6           0       -2.894928   -0.323950   -0.323093
     12          6           0       -4.422240   -0.377999   -0.371875
     13          6           0       -4.983834    0.004105   -1.741693
     14          1           0       -2.562227    0.689461   -0.587109
     15          1           0       -2.485910   -0.996689   -1.089298
     16          1           0       -4.827669    0.294803    0.394664
     17          1           0       -4.752016   -1.390639   -0.106498
     18          1           0       -4.607227   -0.673193   -2.515021
     19          1           0       -4.683310    1.021825   -2.011012
     20          1           0       -6.077290   -0.041265   -1.754171
     21          6           0        2.399764    1.065661    0.127300
     22          6           0        1.484032    2.115657   -0.502723
     23          6           0        1.078600    3.213394    0.481346
     24          1           0        1.891506    0.616096    0.991309
     25          1           0        3.299974    1.560765    0.517030
     26          1           0        0.586450    1.618533   -0.892379
     27          1           0        1.994452    2.562640   -1.365447
     28          1           0        1.962546    3.735498    0.861672
     29          1           0        0.546543    2.786027    1.337427
     30          1           0        0.424136    3.953305    0.010104
     31          6           0        2.813696   -0.038372   -0.844038
     32          6           0        3.729428   -1.088368   -0.214013
     33          6           0        4.134860   -2.186105   -1.198083
     34          1           0        1.913486   -0.533477   -1.233766
     35          1           0        3.321953    0.411194   -1.708045
     36          1           0        3.219007   -1.535350    0.648711
     37          1           0        4.627008   -0.591243    0.175643
     38          1           0        4.666916   -1.758738   -2.054164
     39          1           0        3.250914   -2.708209   -1.578408
     40          1           0        4.789323   -2.926016   -0.726842
 ---------------------------------------------------------------------

 SCF Done:  E(RHF) =  -470.731481833     A.U. after   11 cycles
 E2 =    -0.1585885349D+01 EUMP2 =    -0.47231736718192D+03

 The electronic state is 1-A.
 Alpha  occ. eigenvalues --  -11.21644 -11.21638 -11.21589 -11.21563 -11.21465
 Alpha  occ. eigenvalues --  -11.21406 -11.21335 -11.21254 -11.21169 -11.21106
 Alpha  occ. eigenvalues --  -11.21100 -11.21065  -1.08553  -1.08353  -1.03645
 Alpha  occ. eigenvalues --   -1.03488  -0.96075  -0.95949  -0.87066  -0.86989
 Alpha  occ. eigenvalues --   -0.79683  -0.79583  -0.78332  -0.78217  -0.65382
 Alpha  occ. eigenvalues --   -0.64913  -0.61335  -0.60633  -0.59387  -0.59330
 Alpha  occ. eigenvalues --   -0.57727  -0.57529  -0.55329  -0.55237  -0.52763
 Alpha  occ. eigenvalues --   -0.52670  -0.52520  -0.52347  -0.50030  -0.49883
 Alpha  occ. eigenvalues --   -0.48043  -0.47879  -0.46734  -0.46589  -0.46023
 Alpha  occ. eigenvalues --   -0.45833  -0.45527  -0.45450  -0.43846  -0.43756
 Alpha virt. eigenvalues --    0.20106   0.22482   0.23609   0.24108   0.25484
 Alpha virt. eigenvalues --    0.26213   0.26618   0.27882   0.28962   0.29526
 Alpha virt. eigenvalues --    0.30697   0.31098   0.31488   0.31920   0.32185

 Mulliken charges:
               1
     1  C   -0.297131
     2  C   -0.310851
     3  C   -0.480688
     4  H    0.149729
     5  H    0.149548
     6  H    0.163475
     7  H    0.152706
     8  H    0.156307
     9  H    0.155581
    10  H    0.163143
    11  C   -0.299455
    12  C   -0.299668
    13  C   -0.475794
    14  H    0.150050
    15  H    0.149419
    16  H    0.152169
    17  H    0.152146
    18  H    0.155229
    19  H    0.155343
    20  H    0.160433
    21  C   -0.305746
    22  C   -0.305030
    23  C   -0.477651
    24  H    0.158985
    25  H    0.149331
    26  H    0.153988
    27  H    0.153571
    28  H    0.155991
    29  H    0.155256
    30  H    0.160126
    31  C   -0.299183
    32  C   -0.301508
    33  C   -0.475505
    34  H    0.151385
    35  H    0.149415
    36  H    0.152617
    37  H    0.151965
    38  H    0.155297
    39  H    0.154813
    40  H    0.160188
 Sum of Mulliken charges =  -0.00000

 Dipole moment (field-independent basis, Debye):
    X=             -0.0287    Y=             -0.0032    Z=              0.0103  Tot=              0.0307
 Quadrupole moment (field-independent basis, Debye-Ang):
   XX=            -84.6221   YY=            -84.3827   ZZ=            -85.8425
   XY=              0.8617   XZ=             -0.5149   YZ=             -0.1274

 Normal termination of Gaussian 16 at Thu May  6 03:44:47 2021.
