 Gaussian 16, Revision A.03,
 Gaussian 16:  EM64L-G16RevA.03 25-Dec-2016

 -------------
 #p 6-31g* mp2
 -------------

 ------------------------------------------------------
 Input file generated by CHIRIPA (05-May-2021 14:53:18)
 ------------------------------------------------------
 Symbolic Z-matrix:
 Charge =  0 Multiplicity = 1

                         Standard orientation:
 ---------------------------------------------------------------------
 Center     Atomic      Atomic             Coordinates (Angstroms)
 Number     Number       Type             X           Y           Z
 ---------------------------------------------------------------------
      1          6           0       -4.348139   -0.312496   -0.353961
      2          6           0       -4.960767    1.052111   -0.036914
      3          6           0       -6.294666    1.280948   -0.748349
      4          1           0       -4.205964   -0.400139   -1.439801
      5          1           0       -5.057780   -1.100824   -0.067004
      6          1           0       -4.249615    1.837587   -0.323106
      7          1           0       -5.101322    1.136591    1.048316
      8          1           0       -7.023525    0.518528   -0.454951
      9          1           0       -6.166978    1.223508   -1.834166
     10          1           0       -6.714860    2.262450   -0.507616
     11          6           0       -3.014345   -0.556046    0.349889
     12          6           0       -2.401717   -1.920653    0.032843
     13          6           0       -1.067817   -2.149491    0.744278
     14          1           0       -2.304704    0.232282    0.062933
     15          1           0       -3.156519   -0.468403    1.435730
     16          1           0       -2.261161   -2.005133   -1.052387
     17          1           0       -3.112869   -2.706129    0.319035
     18          1           0       -1.195506   -2.092050    1.830094
     19          1           0       -0.338959   -1.387071    0.450880
     20          1           0       -0.647624   -3.130992    0.503545
     21          6           0        2.354587    2.758032    0.495244
     22          6           0        3.256309    2.429927   -0.522480
     23          6           0        3.552703    1.093127   -0.804734
     24          6           0        2.926376    0.105437   -0.046134
     25          6           0        2.023556    0.400426    0.974252
     26          6           0        1.742166    1.744022    1.239050
     27          1           0        2.130168    3.799129    0.707726
     28          1           0        3.733417    3.215330   -1.101751
     29          1           0        4.246896    0.810962   -1.586972
     30          1           0        1.563699   -0.404521    1.534617
     31          1           0        1.041468    1.995882    2.030021
     32          7           0        3.232212   -1.313369   -0.335704
     33          8           0        2.667121   -2.164936    0.347044
     34          8           0        4.031225   -1.546999   -1.239934
 ---------------------------------------------------------------------

 SCF Done:  E(RHF) =  -669.535310273     A.U. after   15 cycles
 E2 =    -0.2092003827D+01 EUMP2 =    -0.67162731409938D+03

 The electronic state is 1-A.
 Alpha  occ. eigenvalues --  -20.60794 -20.60778 -15.85830 -11.31208 -11.27780
 Alpha  occ. eigenvalues --  -11.27735 -11.27523 -11.26800 -11.26784 -11.21750
 Alpha  occ. eigenvalues --  -11.21483 -11.21440 -11.21398 -11.21196 -11.20749
 Alpha  occ. eigenvalues --   -1.59858  -1.39410  -1.19384  -1.08776  -1.08460
 Alpha  occ. eigenvalues --   -1.04787  -1.03507  -0.95955  -0.95602  -0.86971
 Alpha  occ. eigenvalues --   -0.86178  -0.82436  -0.79588  -0.78295  -0.77471
 Alpha  occ. eigenvalues --   -0.72050  -0.71180  -0.70493  -0.65102  -0.65031
 Alpha  occ. eigenvalues --   -0.64786  -0.62160  -0.60894  -0.59307  -0.57562
 Alpha  occ. eigenvalues --   -0.55358  -0.55188  -0.53131  -0.52934  -0.52578
 Alpha  occ. eigenvalues --   -0.52310  -0.49909  -0.48814  -0.48801  -0.47886
 Alpha  occ. eigenvalues --   -0.46630  -0.45824  -0.45759  -0.44775  -0.43737
 Alpha  occ. eigenvalues --   -0.37365  -0.36372
 Alpha virt. eigenvalues --    0.05014   0.11156   0.16519   0.21285   0.22849
 Alpha virt. eigenvalues --    0.24382   0.26457   0.26628   0.27544   0.27791
 Alpha virt. eigenvalues --    0.29039   0.30715   0.31338   0.31672   0.32247

 Mulliken charges:
               1
     1  C   -0.297987
     2  C   -0.299297
     3  C   -0.475639
     4  H    0.150665
     5  H    0.150543
     6  H    0.149694
     7  H    0.150814
     8  H    0.156004
     9  H    0.155714
    10  H    0.159467
    11  C   -0.298291
    12  C   -0.300801
    13  C   -0.477282
    14  H    0.146062
    15  H    0.146809
    16  H    0.153803
    17  H    0.152126
    18  H    0.148243
    19  H    0.152535
    20  H    0.174145
    21  C   -0.170786
    22  C   -0.218412
    23  C   -0.170976
    24  C    0.157753
    25  C   -0.173277
    26  C   -0.220444
    27  H    0.225721
    28  H    0.223516
    29  H    0.275614
    30  H    0.281301
    31  H    0.224445
    32  N    0.488173
    33  O   -0.459559
    34  O   -0.460395
 Sum of Mulliken charges =  -0.00000

 Dipole moment (field-independent basis, Debye):
    X=             -1.0098    Y=              4.8990    Z=              0.9826  Tot=              5.0976
 Quadrupole moment (field-independent basis, Debye-Ang):
   XX=           -100.5027   YY=            -93.4078   ZZ=            -92.2443
   XY=             16.2995   XZ=             -0.2835   YZ=             -1.4440

 Normal termination of Gaussian 16 at Thu May  6 02:50:13 2021.
