 Gaussian 16, Revision A.03,
 Gaussian 16:  EM64L-G16RevA.03 25-Dec-2016

 -------------
 #p 6-31g* mp2
 -------------

 ------------------------------------------------------
 Input file generated by CHIRIPA (05-May-2021 14:57:26)
 ------------------------------------------------------
 Symbolic Z-matrix:
 Charge =  0 Multiplicity = 1

                         Standard orientation:
 ---------------------------------------------------------------------
 Center     Atomic      Atomic             Coordinates (Angstroms)
 Number     Number       Type             X           Y           Z
 ---------------------------------------------------------------------
      1          6           0       -1.269405   -0.346838   -0.755436
      2          6           0       -2.231197   -1.090864   -1.446741
      3          6           0       -3.582950   -0.998502   -1.102097
      4          6           0       -3.939255   -0.148452   -0.056271
      5          6           0       -3.004536    0.605666    0.651470
      6          6           0       -1.658458    0.497564    0.289620
      7          1           0       -0.221534   -0.424701   -1.029847
      8          1           0       -1.931949   -1.747447   -2.258772
      9          1           0       -4.348308   -1.563184   -1.620537
     10          1           0       -3.333364    1.251653    1.456450
     11          1           0       -0.913695    1.076571    0.828252
     12          7           0       -5.367291   -0.042341    0.317696
     13          8           0       -5.655427    0.713754    1.242864
     14          8           0       -6.171412   -0.717274   -0.321438
     15          6           0        4.797576   -2.059675    0.583120
     16          6           0        5.185758   -1.308236   -0.530960
     17          6           0        4.586620   -0.073728   -0.798490
     18          6           0        3.598164    0.381105    0.072930
     19          6           0        3.189691   -0.344316    1.191054
     20          6           0        3.802535   -1.576168    1.439063
     21          1           0        5.268324   -3.017639    0.783362
     22          1           0        5.958249   -1.681246   -1.197419
     23          1           0        4.867975    0.528531   -1.653791
     24          1           0        2.416781    0.053730    1.837265
     25          1           0        3.499059   -2.157595    2.305025
     26          7           0        2.956628    1.686619   -0.199959
     27          8           0        2.088206    2.065197    0.583084
     28          8           0        3.334363    2.306580   -1.191725
 ---------------------------------------------------------------------

 SCF Done:  E(RHF) =  -868.339346077     A.U. after   16 cycles
 E2 =    -0.2599094835D+01 EUMP2 =    -0.87093844091174D+03

 The electronic state is 1-A.
 Alpha  occ. eigenvalues --  -20.61953 -20.61891 -20.60414 -20.60406 -15.86955
 Alpha  occ. eigenvalues --  -15.85460 -11.32171 -11.30745 -11.28726 -11.28674
 Alpha  occ. eigenvalues --  -11.28368 -11.27656 -11.27638 -11.27321 -11.27234
 Alpha  occ. eigenvalues --  -11.27001 -11.26346 -11.26132  -1.60988  -1.59489
 Alpha  occ. eigenvalues --   -1.40546  -1.39045  -1.20313  -1.18893  -1.09727
 Alpha  occ. eigenvalues --   -1.08302  -1.05678  -1.04270  -0.96587  -0.95158
 Alpha  occ. eigenvalues --   -0.87080  -0.85665  -0.83417  -0.81983  -0.78498
 Alpha  occ. eigenvalues --   -0.77041  -0.73165  -0.72318  -0.71680  -0.71390
 Alpha  occ. eigenvalues --   -0.70811  -0.70008  -0.65954  -0.65656  -0.64537
 Alpha  occ. eigenvalues --   -0.64233  -0.63021  -0.61601  -0.56155  -0.54786
 Alpha  occ. eigenvalues --   -0.54025  -0.53751  -0.52623  -0.52335  -0.49936
 Alpha  occ. eigenvalues --   -0.49899  -0.48441  -0.48429  -0.45970  -0.44469
 Alpha  occ. eigenvalues --   -0.38276  -0.37280  -0.36876  -0.35875
 Alpha virt. eigenvalues --    0.03979   0.05465   0.10350   0.11776   0.15491
 Alpha virt. eigenvalues --    0.16989   0.20425   0.21846   0.26204   0.26979
 Alpha virt. eigenvalues --    0.28226   0.28438   0.30295   0.31026   0.32051

 Mulliken charges:
               1
     1  C   -0.171406
     2  C   -0.218683
     3  C   -0.172472
     4  C    0.158638
     5  C   -0.172350
     6  C   -0.224568
     7  H    0.222463
     8  H    0.220591
     9  H    0.273601
    10  H    0.275513
    11  H    0.240179
    12  N    0.488049
    13  O   -0.460773
    14  O   -0.462142
    15  C   -0.170290
    16  C   -0.218444
    17  C   -0.171381
    18  C    0.155035
    19  C   -0.174227
    20  C   -0.218124
    21  H    0.229130
    22  H    0.226637
    23  H    0.277530
    24  H    0.273804
    25  H    0.226949
    26  N    0.488269
    27  O   -0.467554
    28  O   -0.453977
 Sum of Mulliken charges =  -0.00000

 Dipole moment (field-independent basis, Debye):
    X=              7.7129    Y=             -4.9593    Z=             -0.3330  Tot=              9.1758
 Quadrupole moment (field-independent basis, Debye-Ang):
   XX=           -126.8099   YY=           -106.8923   ZZ=            -99.2380
   XY=            -14.4816   XZ=              6.6514   YZ=              2.2286

 Normal termination of Gaussian 16 at Thu May  6 13:06:21 2021.
