 Gaussian 16, Revision A.03,
 Gaussian 16:  EM64L-G16RevA.03 25-Dec-2016

 -------------
 #p 6-31g* mp2
 -------------

 ------------------------------------------------------
 Input file generated by CHIRIPA (05-May-2021 14:51:12)
 ------------------------------------------------------
 Symbolic Z-matrix:
 Charge =  0 Multiplicity = 1

                         Standard orientation:
 ---------------------------------------------------------------------
 Center     Atomic      Atomic             Coordinates (Angstroms)
 Number     Number       Type             X           Y           Z
 ---------------------------------------------------------------------
      1          6           0        3.580929   -0.950421   -0.302943
      2          6           0        2.115782   -0.514206   -0.335271
      3          6           0        1.185730   -1.605276   -0.866651
      4          1           0        3.893331   -1.239245   -1.315826
      5          1           0        3.674825   -1.849692    0.321468
      6          1           0        2.024893    0.384779   -0.958313
      7          1           0        1.806886   -0.226204    0.677771
      8          1           0        1.246860   -2.501811   -0.241281
      9          1           0        1.466105   -1.887357   -1.886662
     10          1           0        0.143278   -1.272194   -0.881170
     11          6           0        4.523046    0.129601    0.225919
     12          6           0        5.988194   -0.306614    0.258247
     13          6           0        6.918245    0.784455    0.789627
     14          1           0        4.429151    1.028872   -0.398493
     15          1           0        4.210644    0.418425    1.238801
     16          1           0        6.297089   -0.594616   -0.754796
     17          1           0        6.079082   -1.205599    0.881289
     18          1           0        6.637870    1.066536    1.809637
     19          1           0        6.857115    1.680991    0.164257
     20          1           0        7.960697    0.451374    0.804146
     21          6           0       -3.344941    0.603786    0.253275
     22          6           0       -2.574130    1.372806   -0.820244
     23          6           0       -1.161351    1.752634   -0.375742
     24          1           0       -3.397564    1.213614    1.165572
     25          1           0       -2.785658   -0.304704    0.516416
     26          1           0       -3.135383    2.278869   -1.082277
     27          1           0       -2.523501    0.761155   -1.730154
     28          1           0       -0.579998    0.857200   -0.133204
     29          1           0       -1.195357    2.383536    0.518355
     30          1           0       -0.628253    2.301592   -1.158245
     31          6           0       -4.759034    0.217034   -0.176250
     32          6           0       -5.529846   -0.551986    0.897269
     33          6           0       -6.942623   -0.931814    0.452766
     34          1           0       -5.318317    1.125524   -0.439391
     35          1           0       -4.706410   -0.392794   -1.088547
     36          1           0       -5.580474    0.059664    1.807178
     37          1           0       -4.968592   -1.458050    1.159301
     38          1           0       -6.908618   -1.562717   -0.441330
     39          1           0       -7.523976   -0.036379    0.210228
     40          1           0       -7.475722   -1.480771    1.235269
 ---------------------------------------------------------------------

 SCF Done:  E(RHF) =  -470.732835329     A.U. after   11 cycles
 E2 =    -0.1583083454D+01 EUMP2 =    -0.47231591878233D+03

 The electronic state is 1-A.
 Alpha  occ. eigenvalues --  -11.21594 -11.21593 -11.21589 -11.21579 -11.21399
 Alpha  occ. eigenvalues --  -11.21398 -11.21339 -11.21338 -11.21102 -11.21063
 Alpha  occ. eigenvalues --  -11.21063 -11.20976  -1.08440  -1.08407  -1.03577
 Alpha  occ. eigenvalues --   -1.03474  -0.96043  -0.95908  -0.87016  -0.86964
 Alpha  occ. eigenvalues --   -0.79654  -0.79521  -0.78270  -0.78198  -0.65064
 Alpha  occ. eigenvalues --   -0.65055  -0.61004  -0.60928  -0.59380  -0.59309
 Alpha  occ. eigenvalues --   -0.57756  -0.57461  -0.55273  -0.55190  -0.52707
 Alpha  occ. eigenvalues --   -0.52649  -0.52477  -0.52285  -0.49923  -0.49857
 Alpha  occ. eigenvalues --   -0.47926  -0.47870  -0.46626  -0.46593  -0.45822
 Alpha  occ. eigenvalues --   -0.45739  -0.45701  -0.45662  -0.43812  -0.43743
 Alpha virt. eigenvalues --    0.21033   0.23029   0.23553   0.25179   0.26250
 Alpha virt. eigenvalues --    0.26621   0.26880   0.27416   0.27951   0.29132
 Alpha virt. eigenvalues --    0.30463   0.31144   0.31378   0.31863   0.32377

 Mulliken charges:
               1
     1  C   -0.298258
     2  C   -0.301347
     3  C   -0.480193
     4  H    0.149571
     5  H    0.149377
     6  H    0.154637
     7  H    0.152152
     8  H    0.155354
     9  H    0.155739
    10  H    0.162213
    11  C   -0.298302
    12  C   -0.299675
    13  C   -0.475694
    14  H    0.149693
    15  H    0.149825
    16  H    0.151884
    17  H    0.151878
    18  H    0.155214
    19  H    0.155212
    20  H    0.160208
    21  C   -0.298867
    22  C   -0.300021
    23  C   -0.483965
    24  H    0.149764
    25  H    0.149257
    26  H    0.151879
    27  H    0.151656
    28  H    0.166442
    29  H    0.154727
    30  H    0.159472
    31  C   -0.298235
    32  C   -0.299675
    33  C   -0.475709
    34  H    0.149576
    35  H    0.149712
    36  H    0.151886
    37  H    0.152004
    38  H    0.155225
    39  H    0.155155
    40  H    0.160227
 Sum of Mulliken charges =  -0.00000

 Dipole moment (field-independent basis, Debye):
    X=              0.0231    Y=              0.0012    Z=              0.0027  Tot=              0.0233
 Quadrupole moment (field-independent basis, Debye-Ang):
   XX=            -86.4361   YY=            -84.5300   ZZ=            -83.8881
   XY=             -1.1324   XZ=             -0.7554   YZ=             -0.3069

 Normal termination of Gaussian 16 at Thu May  6 00:44:10 2021.
