 Gaussian 16, Revision A.03,
 Gaussian 16:  EM64L-G16RevA.03 25-Dec-2016

 -------------
 #p 6-31g* mp2
 -------------

 ------------------------------------------------------
 Input file generated by CHIRIPA (05-May-2021 14:51:10)
 ------------------------------------------------------
 Symbolic Z-matrix:
 Charge =  0 Multiplicity = 1

                         Standard orientation:
 ---------------------------------------------------------------------
 Center     Atomic      Atomic             Coordinates (Angstroms)
 Number     Number       Type             X           Y           Z
 ---------------------------------------------------------------------
      1          6           0       -2.527044    0.547725   -0.502999
      2          6           0       -2.646676    2.051083   -0.755165
      3          6           0       -1.287974    2.733145   -0.917993
      4          1           0       -1.920952    0.380586    0.397924
      5          1           0       -1.981250    0.085379   -1.337109
      6          1           0       -3.193290    2.510247    0.078500
      7          1           0       -3.252714    2.214668   -1.655484
      8          1           0       -0.739198    2.302148   -1.761609
      9          1           0       -0.679437    2.599406   -0.017773
     10          1           0       -1.396913    3.807305   -1.097364
     11          6           0       -3.876942   -0.148202   -0.338109
     12          6           0       -3.757310   -1.651560   -0.085943
     13          6           0       -5.116012   -2.333622    0.076885
     14          1           0       -4.422737    0.314145    0.496001
     15          1           0       -4.483034    0.018937   -1.239032
     16          1           0       -3.151272   -1.815145    0.814376
     17          1           0       -3.210696   -2.110724   -0.919609
     18          1           0       -5.724549   -2.199882   -0.823336
     19          1           0       -5.664788   -1.902624    0.920501
     20          1           0       -5.007073   -3.407782    0.256256
     21          6           0        3.936301   -0.331030    0.256258
     22          6           0        4.170299   -0.724369   -1.202684
     23          6           0        5.644211   -0.983718   -1.515920
     24          1           0        4.525099    0.567550    0.486076
     25          1           0        4.316001   -1.128998    0.909303
     26          1           0        3.789019    0.073484   -1.852815
     27          1           0        3.580727   -1.622006   -1.429109
     28          1           0        6.033905   -1.794243   -0.891589
     29          1           0        6.243380   -0.089119   -1.317702
     30          1           0        5.788694   -1.263419   -2.564134
     31          6           0        2.467685   -0.068494    0.584850
     32          6           0        2.233687    0.324846    2.043793
     33          6           0        0.759775    0.584195    2.357028
     34          1           0        2.087985    0.729475   -0.068196
     35          1           0        1.878887   -0.967073    0.355032
     36          1           0        2.823259    1.222483    2.270217
     37          1           0        2.614967   -0.473007    2.693924
     38          1           0        0.160606   -0.310404    2.158811
     39          1           0        0.370081    1.394719    1.732697
     40          1           0        0.615292    0.863896    3.405242
 ---------------------------------------------------------------------

 SCF Done:  E(RHF) =  -470.733099067     A.U. after   11 cycles
 E2 =    -0.1583325734D+01 EUMP2 =    -0.47231642480116D+03

 The electronic state is 1-A.
 Alpha  occ. eigenvalues --  -11.21622 -11.21591 -11.21579 -11.21571 -11.21390
 Alpha  occ. eigenvalues --  -11.21344 -11.21330 -11.21267 -11.21118 -11.21073
 Alpha  occ. eigenvalues --  -11.21063 -11.21053  -1.08432  -1.08383  -1.03554
 Alpha  occ. eigenvalues --   -1.03495  -0.95996  -0.95954  -0.87016  -0.86973
 Alpha  occ. eigenvalues --   -0.79662  -0.79524  -0.78284  -0.78140  -0.65075
 Alpha  occ. eigenvalues --   -0.65009  -0.61044  -0.60830  -0.59389  -0.59292
 Alpha  occ. eigenvalues --   -0.57609  -0.57562  -0.55430  -0.55110  -0.52690
 Alpha  occ. eigenvalues --   -0.52659  -0.52438  -0.52388  -0.50089  -0.49755
 Alpha  occ. eigenvalues --   -0.48122  -0.47773  -0.46717  -0.46480  -0.45952
 Alpha  occ. eigenvalues --   -0.45711  -0.45671  -0.45406  -0.43790  -0.43750
 Alpha virt. eigenvalues --    0.21040   0.23040   0.23474   0.24541   0.25701
 Alpha virt. eigenvalues --    0.26113   0.26913   0.27663   0.28198   0.29602
 Alpha virt. eigenvalues --    0.30184   0.31690   0.31757   0.31848   0.32036

 Mulliken charges:
               1
     1  C   -0.303910
     2  C   -0.299132
     3  C   -0.482072
     4  H    0.156696
     5  H    0.149107
     6  H    0.151835
     7  H    0.151802
     8  H    0.155334
     9  H    0.160107
    10  H    0.160265
    11  C   -0.298072
    12  C   -0.299569
    13  C   -0.475648
    14  H    0.149451
    15  H    0.149365
    16  H    0.151490
    17  H    0.151767
    18  H    0.155176
    19  H    0.155226
    20  H    0.160037
    21  C   -0.298310
    22  C   -0.299660
    23  C   -0.475702
    24  H    0.149646
    25  H    0.149427
    26  H    0.152058
    27  H    0.151904
    28  H    0.155139
    29  H    0.155202
    30  H    0.160194
    31  C   -0.299371
    32  C   -0.299405
    33  C   -0.484300
    34  H    0.151131
    35  H    0.149938
    36  H    0.152013
    37  H    0.151993
    38  H    0.156473
    39  H    0.161994
    40  H    0.160378
 Sum of Mulliken charges =  -0.00000

 Dipole moment (field-independent basis, Debye):
    X=              0.0192    Y=              0.0014    Z=              0.0128  Tot=              0.0231
 Quadrupole moment (field-independent basis, Debye-Ang):
   XX=            -86.7259   YY=            -84.2740   ZZ=            -83.8910
   XY=             -0.2152   XZ=              0.4947   YZ=             -0.0441

 Normal termination of Gaussian 16 at Wed May  5 23:02:14 2021.
