 Gaussian 16, Revision A.03,
 Gaussian 16:  EM64L-G16RevA.03 25-Dec-2016

 -------------
 #p 6-31g* mp2
 -------------

 ------------------------------------------------------
 Input file generated by CHIRIPA (05-May-2021 14:57:24)
 ------------------------------------------------------
 Symbolic Z-matrix:
 Charge =  0 Multiplicity = 1

                         Standard orientation:
 ---------------------------------------------------------------------
 Center     Atomic      Atomic             Coordinates (Angstroms)
 Number     Number       Type             X           Y           Z
 ---------------------------------------------------------------------
      1          6           0       -0.993624   -2.458952    1.443504
      2          6           0       -1.295115   -2.573688    0.082453
      3          6           0       -1.733805   -1.462488   -0.643724
      4          6           0       -1.860290   -0.246375    0.025873
      5          6           0       -1.567693   -0.100167    1.380975
      6          6           0       -1.130634   -1.224734    2.087286
      7          1           0       -0.653472   -3.327351    1.999900
      8          1           0       -1.189639   -3.530943   -0.420123
      9          1           0       -1.974080   -1.523170   -1.698240
     10          1           0       -1.682604    0.867296    1.854502
     11          1           0       -0.897212   -1.132679    3.144208
     12          7           0       -2.323848    0.937079   -0.732383
     13          8           0       -2.427037    1.997311   -0.119279
     14          8           0       -2.575220    0.782028   -1.925450
     15          6           0        1.191831    2.565533    1.075347
     16          6           0        0.956426    2.462144   -0.299576
     17          6           0        1.280517    1.290021   -0.989243
     18          6           0        1.841128    0.236071   -0.269386
     19          6           0        2.087767    0.308547    1.100726
     20          6           0        1.755756    1.490299    1.769887
     21          1           0        0.936993    3.479806    1.603133
     22          1           0        0.518590    3.295581   -0.841542
     23          1           0        1.108952    1.183039   -2.053451
     24          1           0        2.525434   -0.539155    1.613821
     25          1           0        1.939693    1.567769    2.837693
     26          7           0        2.188421   -1.009901   -0.988651
     27          8           0        2.681298   -1.924173   -0.331524
     28          8           0        1.961176   -1.048629   -2.195920
 ---------------------------------------------------------------------

 SCF Done:  E(RHF) =  -868.338774033     A.U. after   16 cycles
 E2 =    -0.2607761759D+01 EUMP2 =    -0.87094653579262D+03

 The electronic state is 1-A.
 Alpha  occ. eigenvalues --  -20.61052 -20.61011 -20.60889 -20.60863 -15.86037
 Alpha  occ. eigenvalues --  -15.85917 -11.31117 -11.31112 -11.27726 -11.27722
 Alpha  occ. eigenvalues --  -11.27610 -11.27535 -11.27362 -11.27328 -11.26741
 Alpha  occ. eigenvalues --  -11.26693 -11.26539 -11.26490  -1.60098  -1.59949
 Alpha  occ. eigenvalues --   -1.39660  -1.39509  -1.19409  -1.19175  -1.08736
 Alpha  occ. eigenvalues --   -1.08691  -1.04722  -1.04590  -0.95621  -0.95552
 Alpha  occ. eigenvalues --   -0.86064  -0.86035  -0.82466  -0.82390  -0.77565
 Alpha  occ. eigenvalues --   -0.77446  -0.72295  -0.72148  -0.71516  -0.71197
 Alpha  occ. eigenvalues --   -0.70385  -0.70353  -0.64943  -0.64919  -0.64660
 Alpha  occ. eigenvalues --   -0.64610  -0.62033  -0.61955  -0.55160  -0.55123
 Alpha  occ. eigenvalues --   -0.53956  -0.52741  -0.52710  -0.52052  -0.49060
 Alpha  occ. eigenvalues --   -0.49025  -0.48909  -0.48889  -0.45140  -0.44969
 Alpha  occ. eigenvalues --   -0.37674  -0.37058  -0.36667  -0.35467
 Alpha virt. eigenvalues --    0.04764   0.05215   0.11308   0.11489   0.16123
 Alpha virt. eigenvalues --    0.16949   0.21206   0.21947   0.27075   0.27854
 Alpha virt. eigenvalues --    0.28299   0.28659   0.30851   0.31409   0.32589

 Mulliken charges:
               1
     1  C   -0.168269
     2  C   -0.217380
     3  C   -0.173785
     4  C    0.155674
     5  C   -0.162865
     6  C   -0.221504
     7  H    0.228184
     8  H    0.230453
     9  H    0.279107
    10  H    0.269496
    11  H    0.218316
    12  N    0.488897
    13  O   -0.466541
    14  O   -0.459747
    15  C   -0.172544
    16  C   -0.210159
    17  C   -0.186374
    18  C    0.164227
    19  C   -0.167444
    20  C   -0.224389
    21  H    0.227966
    22  H    0.235960
    23  H    0.281027
    24  H    0.270114
    25  H    0.218927
    26  N    0.488910
    27  O   -0.465732
    28  O   -0.460523
 Sum of Mulliken charges =  -0.00000

 Dipole moment (field-independent basis, Debye):
    X=              0.3488    Y=              0.2220    Z=              5.0146  Tot=              5.0316
 Quadrupole moment (field-independent basis, Debye-Ang):
   XX=           -116.9903   YY=            -98.2975   ZZ=            -99.5923
   XY=             15.1011   XZ=              2.0131   YZ=             -0.8333

 Normal termination of Gaussian 16 at Wed May  5 22:42:26 2021.
