 Gaussian 16, Revision A.03,
 Gaussian 16:  EM64L-G16RevA.03 25-Dec-2016

 -------------
 #p 6-31g* mp2
 -------------

 ------------------------------------------------------
 Input file generated by CHIRIPA (05-May-2021 14:55:23)
 ------------------------------------------------------
 Symbolic Z-matrix:
 Charge =  0 Multiplicity = 1

                         Standard orientation:
 ---------------------------------------------------------------------
 Center     Atomic      Atomic             Coordinates (Angstroms)
 Number     Number       Type             X           Y           Z
 ---------------------------------------------------------------------
      1          6           0        1.996620    2.276916   -1.426281
      2          6           0        1.887437    2.491036   -0.048328
      3          6           0        2.094639    1.441641    0.851886
      4          6           0        2.410924    0.185317    0.337197
      5          6           0        2.526870   -0.059601   -1.030231
      6          6           0        2.315426    1.004524   -1.911978
      7          1           0        1.834013    3.097833   -2.118416
      8          1           0        1.639973    3.478139    0.331717
      9          1           0        2.016434    1.579536    1.923467
     10          1           0        2.774869   -1.054697   -1.379086
     11          1           0        2.400882    0.835314   -2.981609
     12          7           0        2.632525   -0.933428    1.280438
     13          8           0        2.910062   -2.030878    0.801676
     14          8           0        2.524482   -0.691666    2.480653
     15          6           0       -2.295096   -0.635239   -0.291268
     16          6           0       -1.993048   -1.739888   -1.304434
     17          6           0       -0.500168   -2.052723   -1.410445
     18          1           0       -1.747777    0.273920   -0.575551
     19          1           0       -1.911660   -0.935806    0.693634
     20          1           0       -2.378166   -1.437930   -2.286839
     21          1           0       -2.541301   -2.646466   -1.017814
     22          1           0       -0.105236   -2.378809   -0.442820
     23          1           0        0.058827   -1.163406   -1.719056
     24          1           0       -0.306866   -2.845128   -2.140230
     25          6           0       -3.783372   -0.311192   -0.173986
     26          6           0       -4.085419    0.793457    0.839179
     27          6           0       -5.578299    1.106292    0.945190
     28          1           0       -4.166807   -0.010625   -1.158888
     29          1           0       -4.330691   -1.220350    0.110297
     30          1           0       -3.537166    1.700035    0.552559
     31          1           0       -3.700301    0.491499    1.821585
     32          1           0       -6.137295    0.216975    1.253803
     33          1           0       -5.973232    1.432377   -0.022433
     34          1           0       -5.771601    1.898697    1.674975
 ---------------------------------------------------------------------

 SCF Done:  E(RHF) =  -669.535014597     A.U. after   15 cycles
 E2 =    -0.2093145959D+01 EUMP2 =    -0.67162816055688D+03

 The electronic state is 1-A.
 Alpha  occ. eigenvalues --  -20.60821 -20.60803 -15.85852 -11.31180 -11.27800
 Alpha  occ. eigenvalues --  -11.27769 -11.27555 -11.26792 -11.26781 -11.21647
 Alpha  occ. eigenvalues --  -11.21517 -11.21389 -11.21307 -11.21124 -11.20851
 Alpha  occ. eigenvalues --   -1.59879  -1.39433  -1.19396  -1.08787  -1.08404
 Alpha  occ. eigenvalues --   -1.04808  -1.03496  -0.95954  -0.95618  -0.86977
 Alpha  occ. eigenvalues --   -0.86185  -0.82459  -0.79579  -0.78224  -0.77495
 Alpha  occ. eigenvalues --   -0.72075  -0.71196  -0.70509  -0.65066  -0.65020
 Alpha  occ. eigenvalues --   -0.64796  -0.62148  -0.60901  -0.59321  -0.57580
 Alpha  occ. eigenvalues --   -0.55316  -0.55258  -0.53254  -0.52899  -0.52631
 Alpha  occ. eigenvalues --   -0.52260  -0.49874  -0.48833  -0.48830  -0.47876
 Alpha  occ. eigenvalues --   -0.46600  -0.45759  -0.45680  -0.44809  -0.43756
 Alpha  occ. eigenvalues --   -0.37368  -0.36310
 Alpha virt. eigenvalues --    0.05015   0.11237   0.16440   0.21326   0.22878
 Alpha virt. eigenvalues --    0.24322   0.26657   0.26923   0.27508   0.27921
 Alpha virt. eigenvalues --    0.28601   0.30641   0.31605   0.31784   0.32024

 Mulliken charges:
               1
     1  C   -0.170547
     2  C   -0.219212
     3  C   -0.170165
     4  C    0.160735
     5  C   -0.169841
     6  C   -0.220237
     7  H    0.225774
     8  H    0.223531
     9  H    0.275796
    10  H    0.278204
    11  H    0.224006
    12  N    0.487978
    13  O   -0.459865
    14  O   -0.460347
    15  C   -0.299556
    16  C   -0.298723
    17  C   -0.485398
    18  H    0.147437
    19  H    0.152938
    20  H    0.148450
    21  H    0.153613
    22  H    0.165110
    23  H    0.153175
    24  H    0.158469
    25  C   -0.298072
    26  C   -0.299435
    27  C   -0.475610
    28  H    0.147815
    29  H    0.151072
    30  H    0.148668
    31  H    0.153925
    32  H    0.156368
    33  H    0.154215
    34  H    0.159729
 Sum of Mulliken charges =  -0.00000

 Dipole moment (field-independent basis, Debye):
    X=             -0.6960    Y=              3.9098    Z=             -3.2477  Tot=              5.1301
 Quadrupole moment (field-independent basis, Debye-Ang):
   XX=           -100.3330   YY=            -91.3827   ZZ=            -93.9517
   XY=              9.2923   XZ=             -9.1972   YZ=              2.6773

 Normal termination of Gaussian 16 at Thu May  6 11:01:41 2021.
