 Gaussian 16, Revision A.03,
 Gaussian 16:  EM64L-G16RevA.03 25-Dec-2016

 -------------
 #p 6-31g* mp2
 -------------

 ------------------------------------------------------
 Input file generated by CHIRIPA (05-May-2021 14:51:14)
 ------------------------------------------------------
 Symbolic Z-matrix:
 Charge =  0 Multiplicity = 1

                         Standard orientation:
 ---------------------------------------------------------------------
 Center     Atomic      Atomic             Coordinates (Angstroms)
 Number     Number       Type             X           Y           Z
 ---------------------------------------------------------------------
      1          6           0        2.661501   -0.642830   -0.230178
      2          6           0        2.671172   -1.632754   -1.395485
      3          6           0        1.940972   -2.936091   -1.070041
      4          1           0        3.124232   -1.114769    0.647375
      5          1           0        1.621034   -0.422226    0.045791
      6          1           0        3.711298   -1.850360   -1.670078
      7          1           0        2.208537   -1.158337   -2.270421
      8          1           0        0.894351   -2.738423   -0.816833
      9          1           0        2.405651   -3.434378   -0.213079
     10          1           0        1.960079   -3.629215   -1.916843
     11          6           0        3.387608    0.664981   -0.540220
     12          6           0        3.377937    1.654905    0.625088
     13          6           0        4.108137    2.958242    0.299643
     14          1           0        4.428075    0.444377   -0.816189
     15          1           0        2.924877    1.136919   -1.417773
     16          1           0        3.840572    1.180487    1.500024
     17          1           0        2.337811    1.872510    0.899681
     18          1           0        3.643458    3.456528   -0.557319
     19          1           0        5.154758    2.760574    0.046435
     20          1           0        4.089030    3.651365    1.146446
     21          6           0       -3.300253    0.141796   -0.310540
     22          6           0       -4.574513    0.986563   -0.285681
     23          6           0       -5.113949    1.284047   -1.685076
     24          1           0       -2.532709    0.664640   -0.897441
     25          1           0       -3.504768   -0.802399   -0.834053
     26          1           0       -4.368023    1.928292    0.238841
     27          1           0       -5.339052    0.461735    0.301389
     28          1           0       -5.347656    0.354168   -2.213572
     29          1           0       -4.371110    1.829058   -2.276476
     30          1           0       -6.025058    1.889062   -1.643891
     31          6           0       -2.748855   -0.163947    1.080938
     32          6           0       -1.474596   -1.008713    1.056079
     33          6           0       -0.935160   -1.306198    2.455474
     34          1           0       -2.544340    0.780248    1.604450
     35          1           0       -3.516400   -0.686792    1.667838
     36          1           0       -0.710057   -0.483885    0.469008
     37          1           0       -1.681086   -1.950442    0.531557
     38          1           0       -1.677999   -1.851209    3.046874
     39          1           0       -0.701453   -0.376319    2.983970
     40          1           0       -0.024051   -1.911214    2.414289
 ---------------------------------------------------------------------

 SCF Done:  E(RHF) =  -470.733250189     A.U. after   11 cycles
 E2 =    -0.1583445807D+01 EUMP2 =    -0.47231669599607D+03

 The electronic state is 1-A.
 Alpha  occ. eigenvalues --  -11.21647 -11.21633 -11.21615 -11.21582 -11.21447
 Alpha  occ. eigenvalues --  -11.21395 -11.21387 -11.21327 -11.21098 -11.21084
 Alpha  occ. eigenvalues --  -11.21070 -11.21030  -1.08480  -1.08418  -1.03576
 Alpha  occ. eigenvalues --   -1.03510  -0.96005  -0.95970  -0.87020  -0.86987
 Alpha  occ. eigenvalues --   -0.79676  -0.79552  -0.78360  -0.78169  -0.65196
 Alpha  occ. eigenvalues --   -0.64984  -0.61007  -0.60891  -0.59438  -0.59274
 Alpha  occ. eigenvalues --   -0.57617  -0.57578  -0.55338  -0.55217  -0.52700
 Alpha  occ. eigenvalues --   -0.52661  -0.52429  -0.52396  -0.50000  -0.49872
 Alpha  occ. eigenvalues --   -0.48048  -0.47849  -0.46788  -0.46585  -0.46043
 Alpha  occ. eigenvalues --   -0.45770  -0.45756  -0.45308  -0.43812  -0.43777
 Alpha virt. eigenvalues --    0.20643   0.23181   0.23501   0.24763   0.25718
 Alpha virt. eigenvalues --    0.26350   0.26961   0.27770   0.28005   0.29308
 Alpha virt. eigenvalues --    0.30519   0.31448   0.31504   0.31835   0.32176

 Mulliken charges:
               1
     1  C   -0.307724
     2  C   -0.298818
     3  C   -0.479665
     4  H    0.149512
     5  H    0.158812
     6  H    0.151835
     7  H    0.151584
     8  H    0.159751
     9  H    0.154601
    10  H    0.160025
    11  C   -0.297740
    12  C   -0.299450
    13  C   -0.475693
    14  H    0.149653
    15  H    0.149222
    16  H    0.152241
    17  H    0.151059
    18  H    0.155048
    19  H    0.155334
    20  H    0.160229
    21  C   -0.298389
    22  C   -0.299665
    23  C   -0.475736
    24  H    0.149118
    25  H    0.149694
    26  H    0.151974
    27  H    0.152133
    28  H    0.155281
    29  H    0.155097
    30  H    0.160397
    31  C   -0.297695
    32  C   -0.307007
    33  C   -0.476472
    34  H    0.149537
    35  H    0.149989
    36  H    0.156500
    37  H    0.152643
    38  H    0.155243
    39  H    0.155119
    40  H    0.162420
 Sum of Mulliken charges =  -0.00000

 Dipole moment (field-independent basis, Debye):
    X=             -0.0211    Y=             -0.0059    Z=              0.0155  Tot=              0.0269
 Quadrupole moment (field-independent basis, Debye-Ang):
   XX=            -84.2079   YY=            -85.0003   ZZ=            -85.5539
   XY=             -0.1735   XZ=             -0.1308   YZ=              0.1617

 Normal termination of Gaussian 16 at Wed May  5 23:16:53 2021.
