 Gaussian 16, Revision A.03,
 Gaussian 16:  EM64L-G16RevA.03 25-Dec-2016

 -------------
 #p 6-31g* mp2
 -------------

 ------------------------------------------------------
 Input file generated by CHIRIPA (05-May-2021 14:57:22)
 ------------------------------------------------------
 Symbolic Z-matrix:
 Charge =  0 Multiplicity = 1

                         Standard orientation:
 ---------------------------------------------------------------------
 Center     Atomic      Atomic             Coordinates (Angstroms)
 Number     Number       Type             X           Y           Z
 ---------------------------------------------------------------------
      1          6           0       -4.997405   -1.810324   -0.102863
      2          6           0       -4.068862   -1.768054    0.942384
      3          6           0       -3.107614   -0.754397    0.997609
      4          6           0       -3.103665    0.205133   -0.013616
      5          6           0       -4.015446    0.190076   -1.067997
      6          6           0       -4.967786   -0.832848   -1.102954
      7          1           0       -5.740666   -2.601357   -0.137891
      8          1           0       -4.089501   -2.525847    1.720438
      9          1           0       -2.376987   -0.697797    1.795355
     10          1           0       -3.969961    0.959472   -1.829167
     11          1           0       -5.687670   -0.863173   -1.915907
     12          7           0       -2.090750    1.283152    0.034119
     13          8           0       -2.108302    2.116689   -0.868956
     14          8           0       -1.298454    1.274154    0.973706
     15          6           0        2.013444    2.065975    0.656295
     16          6           0        2.547644    1.933041   -0.629583
     17          6           0        3.246056    0.777536   -0.992318
     18          6           0        3.392143   -0.229849   -0.039887
     19          6           0        2.871552   -0.127073    1.249187
     20          6           0        2.176815    1.037307    1.589930
     21          1           0        1.472328    2.967047    0.929535
     22          1           0        2.422311    2.730299   -1.356711
     23          1           0        3.669891    0.648442   -1.980810
     24          1           0        3.012749   -0.938877    1.952363
     25          1           0        1.763026    1.137802    2.589292
     26          7           0        4.129575   -1.457828   -0.412258
     27          8           0        4.244552   -2.330935    0.445123
     28          8           0        4.578635   -1.523961   -1.554453
 ---------------------------------------------------------------------

 SCF Done:  E(RHF) =  -868.339803374     A.U. after   16 cycles
 E2 =    -0.2599441630D+01 EUMP2 =    -0.87093924500419D+03

 The electronic state is 1-A.
 Alpha  occ. eigenvalues --  -20.61539 -20.61522 -20.59976 -20.59970 -15.86549
 Alpha  occ. eigenvalues --  -15.85022 -11.31661 -11.30052 -11.28207 -11.28193
 Alpha  occ. eigenvalues --  -11.27886 -11.27154 -11.27144 -11.26630 -11.26621
 Alpha  occ. eigenvalues --  -11.26120 -11.25467 -11.25448  -1.60591  -1.59062
 Alpha  occ. eigenvalues --   -1.40154  -1.38625  -1.19807  -1.18189  -1.09251
 Alpha  occ. eigenvalues --   -1.07590  -1.05173  -1.03563  -0.96135  -0.94493
 Alpha  occ. eigenvalues --   -0.86584  -0.84949  -0.82978  -0.81365  -0.78053
 Alpha  occ. eigenvalues --   -0.76492  -0.72815  -0.71882  -0.71247  -0.70915
 Alpha  occ. eigenvalues --   -0.70386  -0.69206  -0.65467  -0.65175  -0.63823
 Alpha  occ. eigenvalues --   -0.63544  -0.62528  -0.60945  -0.55683  -0.53936
 Alpha  occ. eigenvalues --   -0.53513  -0.53264  -0.51902  -0.51648  -0.49558
 Alpha  occ. eigenvalues --   -0.49518  -0.48020  -0.47969  -0.45610  -0.44108
 Alpha  occ. eigenvalues --   -0.37771  -0.36763  -0.35973  -0.35176
 Alpha virt. eigenvalues --    0.04459   0.06077   0.10897   0.12509   0.16029
 Alpha virt. eigenvalues --    0.17695   0.21050   0.22689   0.26970   0.27880
 Alpha virt. eigenvalues --    0.28480   0.29632   0.30651   0.32072   0.32357

 Mulliken charges:
               1
     1  C   -0.169709
     2  C   -0.218112
     3  C   -0.169607
     4  C    0.158436
     5  C   -0.170340
     6  C   -0.218346
     7  H    0.227737
     8  H    0.225285
     9  H    0.273677
    10  H    0.275620
    11  H    0.225082
    12  N    0.490827
    13  O   -0.461677
    14  O   -0.466932
    15  C   -0.151538
    16  C   -0.221629
    17  C   -0.173248
    18  C    0.155662
    19  C   -0.175856
    20  C   -0.212143
    21  H    0.233247
    22  H    0.222628
    23  H    0.271091
    24  H    0.269299
    25  H    0.221520
    26  N    0.488328
    27  O   -0.465264
    28  O   -0.464039
 Sum of Mulliken charges =  -0.00000

 Dipole moment (field-independent basis, Debye):
    X=             -6.6642    Y=              0.7329    Z=              1.1950  Tot=              6.8100
 Quadrupole moment (field-independent basis, Debye-Ang):
   XX=           -101.6768   YY=           -107.7881   ZZ=            -97.6067
   XY=             27.1014   XZ=              6.4576   YZ=             -4.1745

 Normal termination of Gaussian 16 at Thu May  6 00:10:43 2021.
