 Gaussian 16, Revision A.03,
 Gaussian 16:  EM64L-G16RevA.03 25-Dec-2016

 -------------
 #p 6-31g* mp2
 -------------

 ------------------------------------------------------
 Input file generated by CHIRIPA (05-May-2021 14:51:10)
 ------------------------------------------------------
 Symbolic Z-matrix:
 Charge =  0 Multiplicity = 1

                         Standard orientation:
 ---------------------------------------------------------------------
 Center     Atomic      Atomic             Coordinates (Angstroms)
 Number     Number       Type             X           Y           Z
 ---------------------------------------------------------------------
      1          6           0       -2.516693    0.302369    0.229741
      2          6           0       -3.190546    0.954907   -0.977778
      3          6           0       -3.551502    2.420368   -0.732978
      4          1           0       -3.184528    0.376733    1.098885
      5          1           0       -1.608954    0.867033    0.483828
      6          1           0       -4.095999    0.388364   -1.230368
      7          1           0       -2.521109    0.878811   -1.844196
      8          1           0       -2.654758    3.004733   -0.502828
      9          1           0       -4.238595    2.511500    0.114488
     10          1           0       -4.032057    2.867194   -1.608919
     11          6           0       -2.149824   -1.162737    0.000397
     12          6           0       -1.475971   -1.815275    1.207916
     13          6           0       -1.115015   -3.280737    0.963115
     14          1           0       -3.057563   -1.727401   -0.253690
     15          1           0       -1.481989   -1.237101   -0.868747
     16          1           0       -2.145408   -1.739179    2.074333
     17          1           0       -0.570518   -1.248733    1.460505
     18          1           0       -0.427922   -3.371868    0.115649
     19          1           0       -2.011759   -3.865101    0.732965
     20          1           0       -0.634460   -3.727562    1.839057
     21          6           0        2.650349    1.114138    0.007783
     22          6           0        1.666925    2.148810    0.555795
     23          6           0        2.316145    3.512047    0.796403
     24          1           0        3.487068    1.004356    0.711199
     25          1           0        3.079255    1.488070   -0.932221
     26          1           0        1.238965    1.772429    1.493774
     27          1           0        0.832353    2.256001   -0.148915
     28          1           0        2.727571    3.912698   -0.135696
     29          1           0        3.136495    3.426378    1.516326
     30          1           0        1.595294    4.236485    1.188093
     31          6           0        2.016168   -0.253770   -0.237921
     32          6           0        2.999592   -1.288441   -0.785932
     33          6           0        2.350371   -2.651679   -1.026540
     34          1           0        1.587263   -0.627702    0.702084
     35          1           0        1.179449   -0.143987   -0.941336
     36          1           0        3.834165   -1.395633   -0.081223
     37          1           0        3.427552   -0.912061   -1.723911
     38          1           0        1.530023   -2.566010   -1.746463
     39          1           0        1.938945   -3.052330   -0.094441
     40          1           0        3.071223   -3.376117   -1.418230
 ---------------------------------------------------------------------

 SCF Done:  E(RHF) =  -470.732260612     A.U. after   11 cycles
 E2 =    -0.1585633038D+01 EUMP2 =    -0.47231789364965D+03

 The electronic state is 1-A.
 Alpha  occ. eigenvalues --  -11.21715 -11.21686 -11.21566 -11.21502 -11.21473
 Alpha  occ. eigenvalues --  -11.21442 -11.21312 -11.21253 -11.21147 -11.21127
 Alpha  occ. eigenvalues --  -11.21050 -11.20921  -1.08553  -1.08333  -1.03641
 Alpha  occ. eigenvalues --   -1.03443  -0.96088  -0.95894  -0.87134  -0.86884
 Alpha  occ. eigenvalues --   -0.79702  -0.79524  -0.78410  -0.78131  -0.65179
 Alpha  occ. eigenvalues --   -0.64986  -0.61069  -0.60856  -0.59411  -0.59280
 Alpha  occ. eigenvalues --   -0.57770  -0.57478  -0.55387  -0.55189  -0.52760
 Alpha  occ. eigenvalues --   -0.52618  -0.52584  -0.52291  -0.50107  -0.49705
 Alpha  occ. eigenvalues --   -0.48172  -0.47702  -0.46729  -0.46603  -0.46244
 Alpha  occ. eigenvalues --   -0.45855  -0.45503  -0.45192  -0.43875  -0.43706
 Alpha virt. eigenvalues --    0.19842   0.22019   0.23459   0.24044   0.25413
 Alpha virt. eigenvalues --    0.26026   0.26341   0.27927   0.29171   0.30217
 Alpha virt. eigenvalues --    0.31016   0.31428   0.31445   0.31864   0.32151

 Mulliken charges:
               1
     1  C   -0.303585
     2  C   -0.299260
     3  C   -0.475898
     4  H    0.149233
     5  H    0.155167
     6  H    0.151890
     7  H    0.150714
     8  H    0.155069
     9  H    0.155279
    10  H    0.160000
    11  C   -0.298774
    12  C   -0.303929
    13  C   -0.482226
    14  H    0.149117
    15  H    0.150351
    16  H    0.151253
    17  H    0.156254
    18  H    0.163121
    19  H    0.154663
    20  H    0.158130
    21  C   -0.297705
    22  C   -0.302721
    23  C   -0.475718
    24  H    0.150080
    25  H    0.149849
    26  H    0.152741
    27  H    0.153189
    28  H    0.155494
    29  H    0.155570
    30  H    0.160744
    31  C   -0.306185
    32  C   -0.299155
    33  C   -0.480989
    34  H    0.155531
    35  H    0.151298
    36  H    0.152241
    37  H    0.152121
    38  H    0.154815
    39  H    0.161215
    40  H    0.161017
 Sum of Mulliken charges =  -0.00000

 Dipole moment (field-independent basis, Debye):
    X=              0.0921    Y=              0.0118    Z=             -0.0031  Tot=              0.0929
 Quadrupole moment (field-independent basis, Debye-Ang):
   XX=            -84.1134   YY=            -86.8405   ZZ=            -83.8506
   XY=              0.1224   XZ=             -0.1182   YZ=             -0.5357

 Normal termination of Gaussian 16 at Wed May  5 19:47:43 2021.
