 Gaussian 16, Revision A.03,
 Gaussian 16:  EM64L-G16RevA.03 25-Dec-2016

 -------------
 #p 6-31g* mp2
 -------------

 ------------------------------------------------------
 Input file generated by CHIRIPA (05-May-2021 14:57:26)
 ------------------------------------------------------
 Symbolic Z-matrix:
 Charge =  0 Multiplicity = 1

                         Standard orientation:
 ---------------------------------------------------------------------
 Center     Atomic      Atomic             Coordinates (Angstroms)
 Number     Number       Type             X           Y           Z
 ---------------------------------------------------------------------
      1          6           0       -4.496750    1.013233    0.808077
      2          6           0       -3.339395    1.683678    0.398744
      3          6           0       -2.281600    0.981570   -0.186629
      4          6           0       -2.415475   -0.396563   -0.348236
      5          6           0       -3.555764   -1.092981    0.049300
      6          6           0       -4.601057   -0.370517    0.632359
      7          1           0       -5.313615    1.566553    1.261910
      8          1           0       -3.255619    2.758267    0.533964
      9          1           0       -1.374309    1.475515   -0.512604
     10          1           0       -3.610086   -2.164703   -0.098617
     11          1           0       -5.498689   -0.893824    0.949300
     12          7           0       -1.302253   -1.150628   -0.966719
     13          8           0       -1.444841   -2.364328   -1.098014
     14          8           0       -0.308200   -0.513687   -1.308480
     15          6           0        2.131366    2.615536   -0.563922
     16          6           0        2.721600    1.682599   -1.422860
     17          6           0        2.985244    0.381436   -0.984666
     18          6           0        2.644152    0.045748    0.324632
     19          6           0        2.055099    0.952696    1.204263
     20          6           0        1.800582    2.248254    0.744591
     21          1           0        1.930106    3.624133   -0.912665
     22          1           0        2.979556    1.965037   -2.439587
     23          1           0        3.441312   -0.360717   -1.628581
     24          1           0        1.809187    0.641673    2.212335
     25          1           0        1.342108    2.970697    1.413859
     26          7           0        2.918429   -1.328769    0.799898
     27          8           0        2.608446   -1.599626    1.957991
     28          8           0        3.438197   -2.109230    0.005317
 ---------------------------------------------------------------------

 SCF Done:  E(RHF) =  -868.337282434     A.U. after   16 cycles
 E2 =    -0.2602036359D+01 EUMP2 =    -0.87093931879262D+03

 The electronic state is 1-A.
 Alpha  occ. eigenvalues --  -20.60856 -20.60822 -20.59873 -20.59825 -15.85878
 Alpha  occ. eigenvalues --  -15.84905 -11.31299 -11.30289 -11.27892 -11.27857
 Alpha  occ. eigenvalues --  -11.27652 -11.27026 -11.26951 -11.26884 -11.26857
 Alpha  occ. eigenvalues --  -11.26850 -11.26156 -11.25961  -1.59909  -1.58912
 Alpha  occ. eigenvalues --   -1.39463  -1.38472  -1.19486  -1.18522  -1.08874
 Alpha  occ. eigenvalues --   -1.07952  -1.04902  -1.03980  -0.95699  -0.94772
 Alpha  occ. eigenvalues --   -0.86295  -0.85402  -0.82537  -0.81625  -0.77571
 Alpha  occ. eigenvalues --   -0.76625  -0.72132  -0.71246  -0.71153  -0.70595
 Alpha  occ. eigenvalues --   -0.70177  -0.69750  -0.65144  -0.64913  -0.64240
 Alpha  occ. eigenvalues --   -0.64059  -0.62250  -0.61355  -0.55405  -0.54583
 Alpha  occ. eigenvalues --   -0.53227  -0.53012  -0.52220  -0.52132  -0.48889
 Alpha  occ. eigenvalues --   -0.48831  -0.47911  -0.47884  -0.44852  -0.43875
 Alpha  occ. eigenvalues --   -0.37482  -0.36552  -0.36458  -0.35515
 Alpha virt. eigenvalues --    0.04957   0.05945   0.11143   0.12055   0.16397
 Alpha virt. eigenvalues --    0.17420   0.21206   0.21989   0.27044   0.27870
 Alpha virt. eigenvalues --    0.28160   0.28913   0.30699   0.31455   0.32257

 Mulliken charges:
               1
     1  C   -0.170515
     2  C   -0.219668
     3  C   -0.173329
     4  C    0.157914
     5  C   -0.169516
     6  C   -0.218640
     7  H    0.225421
     8  H    0.219930
     9  H    0.274994
    10  H    0.277672
    11  H    0.224452
    12  N    0.490054
    13  O   -0.454847
    14  O   -0.465858
    15  C   -0.174661
    16  C   -0.213985
    17  C   -0.154079
    18  C    0.171829
    19  C   -0.172064
    20  C   -0.224337
    21  H    0.219310
    22  H    0.221100
    23  H    0.276785
    24  H    0.271512
    25  H    0.215261
    26  N    0.488642
    27  O   -0.466484
    28  O   -0.456893
 Sum of Mulliken charges =  -0.00000

 Dipole moment (field-independent basis, Debye):
    X=             -4.8655    Y=              7.0996    Z=              0.2849  Tot=              8.6116
 Quadrupole moment (field-independent basis, Debye-Ang):
   XX=            -89.7066   YY=           -104.0724   ZZ=           -104.5319
   XY=              9.7340   XZ=            -11.6154   YZ=              0.4566

 Normal termination of Gaussian 16 at Wed May  5 16:30:21 2021.
