 Gaussian 16, Revision A.03,
 Gaussian 16:  EM64L-G16RevA.03 25-Dec-2016

 -------------
 #p 6-31g* mp2
 -------------

 ------------------------------------------------------
 Input file generated by CHIRIPA (05-May-2021 14:53:17)
 ------------------------------------------------------
 Symbolic Z-matrix:
 Charge =  0 Multiplicity = 1

                         Standard orientation:
 ---------------------------------------------------------------------
 Center     Atomic      Atomic             Coordinates (Angstroms)
 Number     Number       Type             X           Y           Z
 ---------------------------------------------------------------------
      1          6           0       -3.205969    0.787394   -0.474809
      2          6           0       -4.088254    1.786927    0.273852
      3          6           0       -3.898872    3.223645   -0.213765
      4          1           0       -2.153132    1.079374   -0.359805
      5          1           0       -3.430378    0.843597   -1.548996
      6          1           0       -3.863229    1.727872    1.346462
      7          1           0       -5.139101    1.492425    0.157212
      8          1           0       -4.142609    3.304543   -1.278024
      9          1           0       -2.859488    3.541329   -0.082018
     10          1           0       -4.539062    3.921492    0.334895
     11          6           0       -3.384000   -0.653183    0.001394
     12          6           0       -2.501716   -1.652716   -0.747266
     13          6           0       -2.691097   -3.089434   -0.259650
     14          1           0       -3.159591   -0.709386    1.075581
     15          1           0       -4.436838   -0.945163   -0.113609
     16          1           0       -1.450868   -1.358214   -0.630627
     17          1           0       -2.726741   -1.593662   -1.819877
     18          1           0       -3.730482   -3.407118   -0.391397
     19          1           0       -2.447360   -3.170333    0.804610
     20          1           0       -2.050908   -3.787281   -0.808309
     21          6           0        0.820494   -1.695211    0.954128
     22          6           0        1.773496   -2.081453    0.005907
     23          6           0        2.749825   -1.179554   -0.427577
     24          6           0        2.743749    0.106392    0.110564
     25          6           0        1.807671    0.521162    1.056616
     26          6           0        0.840586   -0.397424    1.475537
     27          1           0        0.065649   -2.402309    1.285213
     28          1           0        1.760305   -3.088677   -0.400751
     29          1           0        3.499452   -1.452144   -1.160498
     30          1           0        1.846253    1.532104    1.443818
     31          1           0        0.101714   -0.094694    2.212060
     32          7           0        3.772452    1.070026   -0.340638
     33          8           0        3.745628    2.197127    0.148809
     34          8           0        4.586093    0.679973   -1.175193
 ---------------------------------------------------------------------

 SCF Done:  E(RHF) =  -669.534934001     A.U. after   15 cycles
 E2 =    -0.2093257773D+01 EUMP2 =    -0.67162819177376D+03

 The electronic state is 1-A.
 Alpha  occ. eigenvalues --  -20.60814 -20.60809 -15.85870 -11.31257 -11.27854
 Alpha  occ. eigenvalues --  -11.27842 -11.27561 -11.26861 -11.26838 -11.22224
 Alpha  occ. eigenvalues --  -11.22082 -11.22068 -11.22057 -11.21874 -11.21397
 Alpha  occ. eigenvalues --   -1.59890  -1.39443  -1.19451  -1.09059  -1.08823
 Alpha  occ. eigenvalues --   -1.04853  -1.04154  -0.96626  -0.95664  -0.87629
 Alpha  occ. eigenvalues --   -0.86246  -0.82496  -0.80204  -0.78822  -0.77533
 Alpha  occ. eigenvalues --   -0.72088  -0.71214  -0.70588  -0.65710  -0.65097
 Alpha  occ. eigenvalues --   -0.64829  -0.62194  -0.61585  -0.60000  -0.58208
 Alpha  occ. eigenvalues --   -0.56068  -0.55182  -0.53327  -0.53200  -0.53018
 Alpha  occ. eigenvalues --   -0.52937  -0.50561  -0.48848  -0.48841  -0.48510
 Alpha  occ. eigenvalues --   -0.47251  -0.46366  -0.46288  -0.44844  -0.44391
 Alpha  occ. eigenvalues --   -0.37328  -0.36462
 Alpha virt. eigenvalues --    0.04976   0.11130   0.16380   0.19410   0.22838
 Alpha virt. eigenvalues --    0.23895   0.25541   0.26197   0.26798   0.28032
 Alpha virt. eigenvalues --    0.29342   0.30084   0.30986   0.31641   0.32055

 Mulliken charges:
               1
     1  C   -0.300031
     2  C   -0.299695
     3  C   -0.476024
     4  H    0.150929
     5  H    0.152382
     6  H    0.148771
     7  H    0.153045
     8  H    0.157052
     9  H    0.156096
    10  H    0.161473
    11  C   -0.296511
    12  C   -0.310439
    13  C   -0.478392
    14  H    0.141613
    15  H    0.151957
    16  H    0.160608
    17  H    0.155807
    18  H    0.161436
    19  H    0.145872
    20  H    0.158680
    21  C   -0.173762
    22  C   -0.219842
    23  C   -0.170175
    24  C    0.158464
    25  C   -0.170944
    26  C   -0.219999
    27  H    0.233319
    28  H    0.224474
    29  H    0.276085
    30  H    0.275931
    31  H    0.224216
    32  N    0.488100
    33  O   -0.460318
    34  O   -0.460178
 Sum of Mulliken charges =  -0.00000

 Dipole moment (field-independent basis, Debye):
    X=             -3.6359    Y=             -3.3413    Z=              1.4955  Tot=              5.1595
 Quadrupole moment (field-independent basis, Debye-Ang):
   XX=           -113.7614   YY=            -94.5459   ZZ=            -92.6561
   XY=            -11.4463   XZ=              3.4622   YZ=              2.6400

 Normal termination of Gaussian 16 at Thu May  6 12:18:51 2021.
