 Gaussian 16, Revision A.03,
 Gaussian 16:  EM64L-G16RevA.03 25-Dec-2016

 -------------
 #p 6-31g* mp2
 -------------

 ------------------------------------------------------
 Input file generated by CHIRIPA (05-May-2021 14:51:10)
 ------------------------------------------------------
 Symbolic Z-matrix:
 Charge =  0 Multiplicity = 1

                         Standard orientation:
 ---------------------------------------------------------------------
 Center     Atomic      Atomic             Coordinates (Angstroms)
 Number     Number       Type             X           Y           Z
 ---------------------------------------------------------------------
      1          6           0       -3.000817    0.633924    0.044524
      2          6           0       -4.399272    1.168564    0.355115
      3          6           0       -4.369874    2.505903    1.095693
      4          1           0       -2.440907    0.522657    0.983174
      5          1           0       -2.457647    1.375578   -0.557399
      6          1           0       -4.940129    0.425528    0.955105
      7          1           0       -4.955984    1.278390   -0.584367
      8          1           0       -3.853865    3.265271    0.499291
      9          1           0       -3.837920    2.407563    2.047510
     10          1           0       -5.380102    2.869729    1.307656
     11          6           0       -3.013700   -0.702378   -0.695651
     12          6           0       -1.615245   -1.237018   -1.006242
     13          6           0       -1.644644   -2.574357   -1.746820
     14          1           0       -3.556870   -1.444032   -0.093728
     15          1           0       -3.573610   -0.591111   -1.634301
     16          1           0       -1.058534   -1.346844   -0.066760
     17          1           0       -1.074389   -0.493982   -1.606232
     18          1           0       -2.176598   -2.476017   -2.698637
     19          1           0       -2.160653   -3.333725   -1.150418
     20          1           0       -0.634415   -2.938183   -1.958783
     21          6           0        2.488563   -0.283421    0.787610
     22          6           0        2.605333   -1.805513    0.874694
     23          6           0        1.560883   -2.426390    1.802827
     24          1           0        2.590428    0.143980    1.794535
     25          1           0        1.481412   -0.019413    0.436409
     26          1           0        3.612416   -2.066611    1.224305
     27          1           0        2.503369   -2.229326   -0.132580
     28          1           0        0.549300   -2.194894    1.453958
     29          1           0        1.664649   -2.031254    2.818554
     30          1           0        1.662538   -3.515093    1.850294
     31          6           0        3.525954    0.351875   -0.136483
     32          6           0        3.409184    1.873967   -0.223567
     33          6           0        4.453634    2.494845   -1.151699
     34          1           0        4.533105    0.087867    0.214718
     35          1           0        3.424089   -0.075525   -1.143408
     36          1           0        3.511148    2.297780    0.783707
     37          1           0        2.402101    2.135065   -0.573178
     38          1           0        4.349869    2.099709   -2.167426
     39          1           0        5.465218    2.263348   -0.802831
     40          1           0        4.351979    3.583548   -1.199167
 ---------------------------------------------------------------------

 SCF Done:  E(RHF) =  -470.733303234     A.U. after   11 cycles
 E2 =    -0.1583189686D+01 EUMP2 =    -0.47231649292001D+03

 The electronic state is 1-A.
 Alpha  occ. eigenvalues --  -11.21673 -11.21626 -11.21587 -11.21582 -11.21449
 Alpha  occ. eigenvalues --  -11.21389 -11.21371 -11.21308 -11.21130 -11.21084
 Alpha  occ. eigenvalues --  -11.21062 -11.21059  -1.08482  -1.08402  -1.03587
 Alpha  occ. eigenvalues --   -1.03505  -0.96022  -0.95961  -0.87035  -0.86982
 Alpha  occ. eigenvalues --   -0.79679  -0.79548  -0.78327  -0.78181  -0.65164
 Alpha  occ. eigenvalues --   -0.64994  -0.61115  -0.60803  -0.59395  -0.59314
 Alpha  occ. eigenvalues --   -0.57639  -0.57565  -0.55361  -0.55197  -0.52714
 Alpha  occ. eigenvalues --   -0.52660  -0.52445  -0.52395  -0.50021  -0.49866
 Alpha  occ. eigenvalues --   -0.48078  -0.47836  -0.46821  -0.46484  -0.45992
 Alpha  occ. eigenvalues --   -0.45764  -0.45731  -0.45405  -0.43826  -0.43764
 Alpha virt. eigenvalues --    0.20437   0.23178   0.23577   0.25053   0.25657
 Alpha virt. eigenvalues --    0.26315   0.26877   0.27874   0.28302   0.29142
 Alpha virt. eigenvalues --    0.30504   0.31051   0.31603   0.31822   0.32322

 Mulliken charges:
               1
     1  C   -0.298648
     2  C   -0.299675
     3  C   -0.475772
     4  H    0.149911
     5  H    0.149338
     6  H    0.152097
     7  H    0.151996
     8  H    0.155199
     9  H    0.155418
    10  H    0.160337
    11  C   -0.297589
    12  C   -0.309649
    13  C   -0.475414
    14  H    0.149808
    15  H    0.149904
    16  H    0.160229
    17  H    0.151817
    18  H    0.155514
    19  H    0.155642
    20  H    0.160309
    21  C   -0.301567
    22  C   -0.298914
    23  C   -0.482014
    24  H    0.149212
    25  H    0.153238
    26  H    0.151921
    27  H    0.151771
    28  H    0.160391
    29  H    0.155080
    30  H    0.160424
    31  C   -0.298149
    32  C   -0.299624
    33  C   -0.475695
    34  H    0.149363
    35  H    0.149513
    36  H    0.151918
    37  H    0.151976
    38  H    0.155063
    39  H    0.155159
    40  H    0.160163
 Sum of Mulliken charges =  -0.00000

 Dipole moment (field-independent basis, Debye):
    X=             -0.0330    Y=             -0.0023    Z=             -0.0027  Tot=              0.0332
 Quadrupole moment (field-independent basis, Debye-Ang):
   XX=            -84.8738   YY=            -85.8240   ZZ=            -84.0499
   XY=             -0.1918   XZ=              1.0320   YZ=             -0.4811

 Normal termination of Gaussian 16 at Wed May  5 18:13:39 2021.
