 Gaussian 16, Revision A.03,
 Gaussian 16:  EM64L-G16RevA.03 25-Dec-2016

 -------------
 #p 6-31g* mp2
 -------------

 ------------------------------------------------------
 Input file generated by CHIRIPA (05-May-2021 14:53:17)
 ------------------------------------------------------
 Symbolic Z-matrix:
 Charge =  0 Multiplicity = 1

                         Standard orientation:
 ---------------------------------------------------------------------
 Center     Atomic      Atomic             Coordinates (Angstroms)
 Number     Number       Type             X           Y           Z
 ---------------------------------------------------------------------
      1          6           0       -3.535461   -0.067482   -0.311085
      2          6           0       -2.992559   -1.482714   -0.511983
      3          6           0       -1.473995   -1.513961   -0.687428
      4          1           0       -3.251558    0.552962   -1.172127
      5          1           0       -3.054411    0.380732    0.569307
      6          1           0       -3.475509   -1.928631   -1.390922
      7          1           0       -3.277951   -2.099912    0.349548
      8          1           0       -0.975832   -1.093831    0.192303
      9          1           0       -1.174513   -0.921577   -1.558056
     10          1           0       -1.107212   -2.535296   -0.829571
     11          6           0       -5.052098   -0.019854   -0.134247
     12          6           0       -5.595000    1.395378    0.066651
     13          6           0       -7.113564    1.426625    0.242096
     14          1           0       -5.533148   -0.468068   -1.014639
     15          1           0       -5.336000   -0.640298    0.726795
     16          1           0       -5.309608    2.012576   -0.794879
     17          1           0       -5.112049    1.841295    0.945590
     18          1           0       -7.413046    0.834241    1.112724
     19          1           0       -7.611726    1.006495   -0.637634
     20          1           0       -7.480346    2.447960    0.384239
     21          6           0        5.033175    1.632851   -0.822068
     22          6           0        4.545290    0.565898   -1.583710
     23          6           0        3.614949   -0.326115   -1.042113
     24          6           0        3.192229   -0.120444    0.270250
     25          6           0        3.659708    0.933044    1.054415
     26          6           0        4.589610    1.812701    0.492247
     27          1           0        5.755715    2.320990   -1.250784
     28          1           0        4.887992    0.423775   -2.604691
     29          1           0        3.220822   -1.160536   -1.609407
     30          1           0        3.299360    1.048911    2.069375
     31          1           0        4.966786    2.640429    1.086091
     32          7           0        2.207551   -1.058239    0.854503
     33          8           0        1.850943   -0.855254    2.013065
     34          8           0        1.811015   -1.978510    0.142817
 ---------------------------------------------------------------------

 SCF Done:  E(RHF) =  -669.535802458     A.U. after   15 cycles
 E2 =    -0.2091330397D+01 EUMP2 =    -0.67162713285558D+03

 The electronic state is 1-A.
 Alpha  occ. eigenvalues --  -20.60887 -20.60860 -15.85894 -11.31242 -11.27808
 Alpha  occ. eigenvalues --  -11.27802 -11.27551 -11.26820 -11.26810 -11.21130
 Alpha  occ. eigenvalues --  -11.20775 -11.20682 -11.20617 -11.20543 -11.19631
 Alpha  occ. eigenvalues --   -1.59932  -1.39486  -1.19412  -1.08813  -1.07711
 Alpha  occ. eigenvalues --   -1.04811  -1.02731  -0.95656  -0.95150  -0.86215
 Alpha  occ. eigenvalues --   -0.86161  -0.82485  -0.78823  -0.77543  -0.77499
 Alpha  occ. eigenvalues --   -0.72118  -0.71246  -0.70522  -0.65067  -0.64816
 Alpha  occ. eigenvalues --   -0.64349  -0.62159  -0.60131  -0.58571  -0.56764
 Alpha  occ. eigenvalues --   -0.55319  -0.54451  -0.53144  -0.52904  -0.51810
 Alpha  occ. eigenvalues --   -0.51595  -0.49226  -0.48881  -0.48763  -0.47130
 Alpha  occ. eigenvalues --   -0.45875  -0.45114  -0.44980  -0.44767  -0.42943
 Alpha  occ. eigenvalues --   -0.37390  -0.36413
 Alpha virt. eigenvalues --    0.04973   0.11241   0.16461   0.21368   0.23536
 Alpha virt. eigenvalues --    0.25137   0.27272   0.27334   0.28109   0.28209
 Alpha virt. eigenvalues --    0.28899   0.30937   0.32112   0.32378   0.32562

 Mulliken charges:
               1
     1  C   -0.297837
     2  C   -0.301440
     3  C   -0.471330
     4  H    0.145725
     5  H    0.150401
     6  H    0.146647
     7  H    0.152452
     8  H    0.164276
     9  H    0.143117
    10  H    0.168340
    11  C   -0.297516
    12  C   -0.299021
    13  C   -0.475280
    14  H    0.147865
    15  H    0.149852
    16  H    0.150071
    17  H    0.151586
    18  H    0.155178
    19  H    0.154330
    20  H    0.158387
    21  C   -0.170651
    22  C   -0.218622
    23  C   -0.170582
    24  C    0.159001
    25  C   -0.170890
    26  C   -0.218584
    27  H    0.225786
    28  H    0.223645
    29  H    0.275999
    30  H    0.275625
    31  H    0.223609
    32  N    0.487891
    33  O   -0.461298
    34  O   -0.456733
 Sum of Mulliken charges =  -0.00000

 Dipole moment (field-independent basis, Debye):
    X=              3.7438    Y=              3.2075    Z=             -1.9875  Tot=              5.3155
 Quadrupole moment (field-independent basis, Debye-Ang):
   XX=            -75.4670   YY=            -94.6803   ZZ=            -91.5205
   XY=             10.7791   XZ=             -5.7032   YZ=              3.5304

 Normal termination of Gaussian 16 at Thu May  6 20:33:29 2021.
