 Gaussian 16, Revision A.03,
 Gaussian 16:  EM64L-G16RevA.03 25-Dec-2016

 -------------
 #p 6-31g* mp2
 -------------

 ------------------------------------------------------
 Input file generated by CHIRIPA (05-May-2021 14:53:18)
 ------------------------------------------------------
 Symbolic Z-matrix:
 Charge =  0 Multiplicity = 1

                         Standard orientation:
 ---------------------------------------------------------------------
 Center     Atomic      Atomic             Coordinates (Angstroms)
 Number     Number       Type             X           Y           Z
 ---------------------------------------------------------------------
      1          6           0       -3.311958    0.979478   -0.306384
      2          6           0       -2.897825    2.179221    0.546315
      3          6           0       -2.509724    3.396056   -0.294211
      4          1           0       -2.485519    0.713415   -0.979551
      5          1           0       -4.156579    1.268065   -0.947263
      6          1           0       -2.055128    1.888055    1.186393
      7          1           0       -3.725275    2.442338    1.217665
      8          1           0       -3.348518    3.714152   -0.921778
      9          1           0       -1.668881    3.156720   -0.953228
     10          1           0       -2.217147    4.242114    0.335427
     11          6           0       -3.702787   -0.244756    0.519589
     12          6           0       -4.116920   -1.444500   -0.333109
     13          6           0       -4.505021   -2.661334    0.507417
     14          1           0       -2.858165   -0.533343    1.160469
     15          1           0       -4.529226    0.021306    1.192757
     16          1           0       -3.289470   -1.707617   -1.004460
     17          1           0       -4.959617   -1.153334   -0.973188
     18          1           0       -5.345863   -2.421998    1.166434
     19          1           0       -3.666227   -2.979431    1.134984
     20          1           0       -4.797597   -3.507392   -0.122222
     21          6           0        0.392932   -1.079201   -0.561806
     22          6           0        1.424339   -2.008570   -0.391534
     23          6           0        2.728656   -1.581011   -0.126020
     24          6           0        2.967054   -0.210414   -0.037022
     25          6           0        1.960717    0.740077   -0.201786
     26          6           0        0.663936    0.289743   -0.466556
     27          1           0       -0.617367   -1.420184   -0.767774
     28          1           0        1.216798   -3.072327   -0.464960
     29          1           0        3.545915   -2.278848    0.010106
     30          1           0        2.198412    1.793968   -0.122840
     31          1           0       -0.135101    1.013773   -0.598340
     32          7           0        4.343887    0.254279    0.243673
     33          8           0        4.527906    1.467277    0.317225
     34          8           0        5.212961   -0.603292    0.384813
 ---------------------------------------------------------------------

 SCF Done:  E(RHF) =  -669.534996956     A.U. after   15 cycles
 E2 =    -0.2093174869D+01 EUMP2 =    -0.67162817182486D+03

 The electronic state is 1-A.
 Alpha  occ. eigenvalues --  -20.60746 -20.60741 -15.85799 -11.31166 -11.27738
 Alpha  occ. eigenvalues --  -11.27727 -11.27467 -11.26752 -11.26708 -11.22766
 Alpha  occ. eigenvalues --  -11.22689 -11.22625 -11.22487 -11.22116 -11.22024
 Alpha  occ. eigenvalues --   -1.59821  -1.39375  -1.19338  -1.09608  -1.08729
 Alpha  occ. eigenvalues --   -1.04756  -1.04618  -0.97060  -0.95568  -0.88070
 Alpha  occ. eigenvalues --   -0.86146  -0.82401  -0.80677  -0.79405  -0.77453
 Alpha  occ. eigenvalues --   -0.72018  -0.71144  -0.70480  -0.66432  -0.64986
 Alpha  occ. eigenvalues --   -0.64636  -0.62350  -0.61754  -0.60413  -0.58657
 Alpha  occ. eigenvalues --   -0.56380  -0.55228  -0.53712  -0.53464  -0.53069
 Alpha  occ. eigenvalues --   -0.52830  -0.51012  -0.48984  -0.48772  -0.48763
 Alpha  occ. eigenvalues --   -0.47741  -0.46936  -0.46856  -0.44884  -0.44780
 Alpha  occ. eigenvalues --   -0.37317  -0.36342
 Alpha virt. eigenvalues --    0.05077   0.11237   0.16525   0.17777   0.21339
 Alpha virt. eigenvalues --    0.23618   0.25091   0.26052   0.26411   0.27882
 Alpha virt. eigenvalues --    0.29492   0.30734   0.30793   0.31119   0.32453

 Mulliken charges:
               1
     1  C   -0.301598
     2  C   -0.305937
     3  C   -0.478055
     4  H    0.139242
     5  H    0.155885
     6  H    0.152997
     7  H    0.158872
     8  H    0.160296
     9  H    0.148806
    10  H    0.166399
    11  C   -0.301659
    12  C   -0.302597
    13  C   -0.476405
    14  H    0.150317
    15  H    0.155803
    16  H    0.144187
    17  H    0.157142
    18  H    0.159491
    19  H    0.154670
    20  H    0.162852
    21  C   -0.178626
    22  C   -0.219875
    23  C   -0.170821
    24  C    0.158774
    25  C   -0.172657
    26  C   -0.229157
    27  H    0.232993
    28  H    0.223683
    29  H    0.275532
    30  H    0.275945
    31  H    0.236403
    32  N    0.487961
    33  O   -0.460349
    34  O   -0.460515
 Sum of Mulliken charges =  -0.00000

 Dipole moment (field-independent basis, Debye):
    X=             -5.1462    Y=             -1.5616    Z=             -0.8883  Tot=              5.4508
 Quadrupole moment (field-independent basis, Debye-Ang):
   XX=           -121.4059   YY=            -89.8757   ZZ=            -95.7835
   XY=             -6.4264   XZ=             -2.8677   YZ=              0.6011

 Normal termination of Gaussian 16 at Thu May  6 04:26:18 2021.
