 Gaussian 16, Revision A.03,
 Gaussian 16:  EM64L-G16RevA.03 25-Dec-2016

 -------------
 #p 6-31g* mp2
 -------------

 ------------------------------------------------------
 Input file generated by CHIRIPA (05-May-2021 14:53:12)
 ------------------------------------------------------
 Symbolic Z-matrix:
 Charge =  0 Multiplicity = 1

                         Standard orientation:
 ---------------------------------------------------------------------
 Center     Atomic      Atomic             Coordinates (Angstroms)
 Number     Number       Type             X           Y           Z
 ---------------------------------------------------------------------
      1          6           0        2.999141   -0.247069    0.629075
      2          6           0        2.480724   -1.596736    1.126696
      3          6           0        1.105185   -1.494843    1.786472
      4          1           0        3.046943    0.454116    1.473468
      5          1           0        2.278680    0.173524   -0.086071
      6          1           0        3.202615   -2.015299    1.839643
      7          1           0        2.434332   -2.294846    0.281056
      8          1           0        0.367366   -1.100770    1.080123
      9          1           0        1.140014   -0.819635    2.647566
     10          1           0        0.753707   -2.471049    2.134820
     11          6           0        4.373245   -0.332622   -0.032926
     12          6           0        4.891662    1.017046   -0.530547
     13          6           0        6.267201    0.915153   -1.190324
     14          1           0        5.093706   -0.753214    0.682220
     15          1           0        4.325443   -1.033807   -0.877319
     16          1           0        4.938054    1.715155    0.315093
     17          1           0        4.169771    1.435609   -1.243494
     18          1           0        6.232372    0.239944   -2.051417
     19          1           0        7.005020    0.521079   -0.483974
     20          1           0        6.618678    1.891358   -1.538671
     21          6           0       -3.087013   -2.182214   -0.954936
     22          6           0       -1.836684   -1.555175   -0.959375
     23          6           0       -1.710072   -0.220982   -0.561318
     24          6           0       -2.859809    0.459301   -0.163064
     25          6           0       -4.119413   -0.137736   -0.147725
     26          6           0       -4.222385   -1.472744   -0.549839
     27          1           0       -3.176187   -3.218964   -1.265732
     28          1           0       -0.953224   -2.103700   -1.273484
     29          1           0       -0.754348    0.288890   -0.555122
     30          1           0       -4.982022    0.434964    0.170612
     31          1           0       -5.194690   -1.957150   -0.545383
     32          7           0       -2.738284    1.872183    0.260489
     33          8           0       -3.766458    2.449646    0.606946
     34          8           0       -1.617159    2.375384    0.237992
 ---------------------------------------------------------------------

 SCF Done:  E(RHF) =  -669.534464055     A.U. after   15 cycles
 E2 =    -0.2092641527D+01 EUMP2 =    -0.67162710558243D+03

 The electronic state is 1-A.
 Alpha  occ. eigenvalues --  -20.60770 -20.60765 -15.85825 -11.31210 -11.27779
 Alpha  occ. eigenvalues --  -11.27776 -11.27521 -11.26802 -11.26793 -11.21946
 Alpha  occ. eigenvalues --  -11.21650 -11.21631 -11.21534 -11.21333 -11.21109
 Alpha  occ. eigenvalues --   -1.59845  -1.39398  -1.19393  -1.08776  -1.08638
 Alpha  occ. eigenvalues --   -1.04813  -1.03723  -0.96174  -0.95610  -0.87189
 Alpha  occ. eigenvalues --   -0.86193  -0.82450  -0.79788  -0.78435  -0.77488
 Alpha  occ. eigenvalues --   -0.72044  -0.71169  -0.70509  -0.65306  -0.65036
 Alpha  occ. eigenvalues --   -0.64801  -0.62226  -0.61084  -0.59537  -0.57774
 Alpha  occ. eigenvalues --   -0.55523  -0.55272  -0.53197  -0.52915  -0.52830
 Alpha  occ. eigenvalues --   -0.52513  -0.50106  -0.48804  -0.48797  -0.48088
 Alpha  occ. eigenvalues --   -0.46830  -0.45966  -0.45903  -0.44797  -0.43977
 Alpha  occ. eigenvalues --   -0.37366  -0.36330
 Alpha virt. eigenvalues --    0.05010   0.11220   0.16424   0.19741   0.22945
 Alpha virt. eigenvalues --    0.23963   0.25407   0.26738   0.27694   0.28104
 Alpha virt. eigenvalues --    0.29482   0.30017   0.31458   0.31655   0.32074

 Mulliken charges:
               1
     1  C   -0.298663
     2  C   -0.300758
     3  C   -0.479717
     4  H    0.155800
     5  H    0.145581
     6  H    0.154412
     7  H    0.145415
     8  H    0.152603
     9  H    0.161530
    10  H    0.158852
    11  C   -0.298333
    12  C   -0.300071
    13  C   -0.475898
    14  H    0.150448
    15  H    0.147143
    16  H    0.154684
    17  H    0.153167
    18  H    0.154030
    19  H    0.155142
    20  H    0.161735
    21  C   -0.171115
    22  C   -0.216027
    23  C   -0.172923
    24  C    0.157092
    25  C   -0.171008
    26  C   -0.218391
    27  H    0.225799
    28  H    0.224322
    29  H    0.278362
    30  H    0.275763
    31  H    0.223622
    32  N    0.487910
    33  O   -0.460394
    34  O   -0.460113
 Sum of Mulliken charges =  -0.00000

 Dipole moment (field-independent basis, Debye):
    X=             -0.4138    Y=             -4.9080    Z=             -1.4311  Tot=              5.1291
 Quadrupole moment (field-independent basis, Debye-Ang):
   XX=            -87.7881   YY=           -100.0734   ZZ=            -94.2506
   XY=             14.3400   XZ=              4.5435   YZ=              0.4594

 Normal termination of Gaussian 16 at Thu May  6 11:57:56 2021.
