 Gaussian 16, Revision A.03,
 Gaussian 16:  EM64L-G16RevA.03 25-Dec-2016

 -------------
 #p 6-31g* mp2
 -------------

 ------------------------------------------------------
 Input file generated by CHIRIPA (05-May-2021 14:55:25)
 ------------------------------------------------------
 Symbolic Z-matrix:
 Charge =  0 Multiplicity = 1

                         Standard orientation:
 ---------------------------------------------------------------------
 Center     Atomic      Atomic             Coordinates (Angstroms)
 Number     Number       Type             X           Y           Z
 ---------------------------------------------------------------------
      1          6           0       -2.681934    2.617631   -0.046055
      2          6           0       -2.940803    1.899228   -1.217979
      3          6           0       -3.108777    0.511884   -1.177853
      4          6           0       -3.010954   -0.127809    0.056859
      5          6           0       -2.754031    0.560072    1.241806
      6          6           0       -2.589537    1.946943    1.177939
      7          1           0       -2.552800    3.695170   -0.086447
      8          1           0       -3.013093    2.417454   -2.169956
      9          1           0       -3.310062   -0.068882   -2.069825
     10          1           0       -2.687588    0.015674    2.175954
     11          1           0       -2.388588    2.502286    2.089673
     12          7           0       -3.186939   -1.596278    0.111905
     13          8           0       -3.096012   -2.136374    1.212207
     14          8           0       -3.412470   -2.179361   -0.946295
     15          6           0        3.120615   -0.024687    0.228424
     16          6           0        1.997357   -0.612894   -0.626145
     17          6           0        0.610374   -0.361637   -0.033741
     18          1           0        3.068171   -0.454663    1.238036
     19          1           0        2.959030    1.056406    0.340327
     20          1           0        2.161770   -1.692325   -0.737555
     21          1           0        2.052598   -0.181611   -1.633895
     22          1           0        0.421098    0.712438    0.061852
     23          1           0        0.530890   -0.806860    0.963285
     24          1           0       -0.177634   -0.790518   -0.660611
     25          6           0        4.513176   -0.267696   -0.350757
     26          6           0        5.636434    0.320511    0.503813
     27          6           0        7.023417    0.069254   -0.088592
     28          1           0        4.674761   -1.348789   -0.462660
     29          1           0        4.565620    0.162281   -1.360369
     30          1           0        5.581193   -0.110772    1.511562
     31          1           0        5.472021    1.399943    0.615222
     32          1           0        7.102901    0.514477   -1.085618
     33          1           0        7.212692   -1.004821   -0.184185
     34          1           0        7.811424    0.498135    0.538278
 ---------------------------------------------------------------------

 SCF Done:  E(RHF) =  -669.534916258     A.U. after   15 cycles
 E2 =    -0.2093076268D+01 EUMP2 =    -0.67162799252604D+03

 The electronic state is 1-A.
 Alpha  occ. eigenvalues --  -20.60768 -20.60762 -15.85809 -11.31128 -11.27720
 Alpha  occ. eigenvalues --  -11.27716 -11.27497 -11.26766 -11.26756 -11.21627
 Alpha  occ. eigenvalues --  -11.21499 -11.21396 -11.21338 -11.21091 -11.20941
 Alpha  occ. eigenvalues --   -1.59838  -1.39393  -1.19339  -1.08745  -1.08409
 Alpha  occ. eigenvalues --   -1.04743  -1.03496  -0.95955  -0.95575  -0.86979
 Alpha  occ. eigenvalues --   -0.86146  -0.82411  -0.79572  -0.78229  -0.77456
 Alpha  occ. eigenvalues --   -0.72035  -0.71165  -0.70459  -0.65041  -0.64997
 Alpha  occ. eigenvalues --   -0.64756  -0.62094  -0.60892  -0.59346  -0.57566
 Alpha  occ. eigenvalues --   -0.55274  -0.55243  -0.53448  -0.52843  -0.52440
 Alpha  occ. eigenvalues --   -0.52200  -0.49869  -0.48795  -0.48789  -0.47886
 Alpha  occ. eigenvalues --   -0.46587  -0.45768  -0.45692  -0.44794  -0.43768
 Alpha  occ. eigenvalues --   -0.37260  -0.36319
 Alpha virt. eigenvalues --    0.05073   0.11242   0.16572   0.21408   0.22875
 Alpha virt. eigenvalues --    0.24280   0.26637   0.27252   0.27539   0.27724
 Alpha virt. eigenvalues --    0.28402   0.30740   0.31311   0.31593   0.31871

 Mulliken charges:
               1
     1  C   -0.171726
     2  C   -0.217115
     3  C   -0.172597
     4  C    0.161964
     5  C   -0.168270
     6  C   -0.218182
     7  H    0.225387
     8  H    0.223243
     9  H    0.275235
    10  H    0.275278
    11  H    0.223402
    12  N    0.489389
    13  O   -0.460294
    14  O   -0.461274
    15  C   -0.298181
    16  C   -0.300250
    17  C   -0.477941
    18  H    0.150207
    19  H    0.146217
    20  H    0.155416
    21  H    0.149783
    22  H    0.153245
    23  H    0.156756
    24  H    0.160309
    25  C   -0.298201
    26  C   -0.299469
    27  C   -0.475672
    28  H    0.151109
    29  H    0.148867
    30  H    0.152253
    31  H    0.150360
    32  H    0.154784
    33  H    0.156037
    34  H    0.159927
 Sum of Mulliken charges =  -0.00000

 Dipole moment (field-independent basis, Debye):
    X=              0.5692    Y=              5.1498    Z=             -0.1679  Tot=              5.1839
 Quadrupole moment (field-independent basis, Debye-Ang):
   XX=           -100.5338   YY=            -95.9498   ZZ=            -89.7207
   XY=            -15.9072   XZ=              1.7662   YZ=             -0.0782

 Normal termination of Gaussian 16 at Thu May  6 19:23:24 2021.
