 Gaussian 16, Revision A.03,
 Gaussian 16:  EM64L-G16RevA.03 25-Dec-2016

 -------------
 #p 6-31g* mp2
 -------------

 ------------------------------------------------------
 Input file generated by CHIRIPA (05-May-2021 14:55:23)
 ------------------------------------------------------
 Symbolic Z-matrix:
 Charge =  0 Multiplicity = 1

                         Standard orientation:
 ---------------------------------------------------------------------
 Center     Atomic      Atomic             Coordinates (Angstroms)
 Number     Number       Type             X           Y           Z
 ---------------------------------------------------------------------
      1          6           0       -4.805630    0.762867   -0.780787
      2          6           0       -4.103548    1.281792    0.312063
      3          6           0       -2.991315    0.608476    0.825998
      4          6           0       -2.607096   -0.586672    0.219955
      5          6           0       -3.285992   -1.129242   -0.870003
      6          6           0       -4.395334   -0.438875   -1.367297
      7          1           0       -5.668516    1.292538   -1.173561
      8          1           0       -4.419917    2.214879    0.769560
      9          1           0       -2.429606    0.987664    1.671053
     10          1           0       -2.946676   -2.061512   -1.304923
     11          1           0       -4.938674   -0.844242   -2.216123
     12          7           0       -1.431155   -1.308507    0.755227
     13          8           0       -1.112873   -2.359642    0.203458
     14          8           0       -0.850001   -0.809479    1.716408
     15          6           0        3.276263    1.294486   -0.106622
     16          6           0        1.747536    1.279043   -0.079433
     17          6           0        1.144334    2.678500    0.044928
     18          1           0        3.648081    1.775597    0.808381
     19          1           0        3.614836    1.916681   -0.946644
     20          1           0        1.411945    0.655939    0.759457
     21          1           0        1.379318    0.797741   -0.994519
     22          1           0        1.450634    3.306325   -0.798052
     23          1           0        1.483447    3.163717    0.965888
     24          1           0        0.050548    2.644112    0.062495
     25          6           0        3.894055   -0.097162   -0.230623
     26          6           0        5.422783   -0.081719   -0.257810
     27          6           0        6.025984   -1.481175   -0.382172
     28          1           0        3.555482   -0.719356    0.609400
     29          1           0        3.522238   -0.578272   -1.145625
     30          1           0        5.791000    0.399582    0.657274
     31          1           0        5.758373    0.541385   -1.096701
     32          1           0        5.686872   -1.966392   -1.303132
     33          1           0        5.719684   -2.109000    0.460808
     34          1           0        7.119770   -1.446787   -0.399739
 ---------------------------------------------------------------------

 SCF Done:  E(RHF) =  -669.536413229     A.U. after   15 cycles
 E2 =    -0.2091592025D+01 EUMP2 =    -0.67162800525368D+03

 The electronic state is 1-A.
 Alpha  occ. eigenvalues --  -20.60925 -20.60920 -15.85947 -11.31278 -11.27838
 Alpha  occ. eigenvalues --  -11.27833 -11.27572 -11.26849 -11.26840 -11.20937
 Alpha  occ. eigenvalues --  -11.20703 -11.20638 -11.20591 -11.20534 -11.20440
 Alpha  occ. eigenvalues --   -1.59975  -1.39534  -1.19442  -1.08845  -1.07674
 Alpha  occ. eigenvalues --   -1.04840  -1.02842  -0.95687  -0.95327  -0.86347
 Alpha  occ. eigenvalues --   -0.86237  -0.82523  -0.78892  -0.77582  -0.77457
 Alpha  occ. eigenvalues --   -0.72176  -0.71280  -0.70550  -0.65099  -0.64842
 Alpha  occ. eigenvalues --   -0.64299  -0.62187  -0.60234  -0.58699  -0.56931
 Alpha  occ. eigenvalues --   -0.55343  -0.54619  -0.53172  -0.52932  -0.52051
 Alpha  occ. eigenvalues --   -0.51746  -0.49268  -0.48940  -0.48931  -0.47228
 Alpha  occ. eigenvalues --   -0.45958  -0.45189  -0.45011  -0.44555  -0.43090
 Alpha  occ. eigenvalues --   -0.37415  -0.36438
 Alpha virt. eigenvalues --    0.04911   0.11169   0.16394   0.21265   0.23583
 Alpha virt. eigenvalues --    0.24726   0.27136   0.27456   0.27858   0.28490
 Alpha virt. eigenvalues --    0.28756   0.30828   0.31673   0.32068   0.32591

 Mulliken charges:
               1
     1  C   -0.170602
     2  C   -0.218659
     3  C   -0.171248
     4  C    0.158946
     5  C   -0.170896
     6  C   -0.218399
     7  H    0.225998
     8  H    0.224057
     9  H    0.276345
    10  H    0.275781
    11  H    0.223788
    12  N    0.488942
    13  O   -0.458740
    14  O   -0.459948
    15  C   -0.297570
    16  C   -0.310838
    17  C   -0.473906
    18  H    0.148021
    19  H    0.144917
    20  H    0.176667
    21  H    0.147202
    22  H    0.151658
    23  H    0.154119
    24  H    0.151918
    25  C   -0.299172
    26  C   -0.299254
    27  C   -0.475374
    28  H    0.157717
    29  H    0.149432
    30  H    0.150603
    31  H    0.149031
    32  H    0.154734
    33  H    0.157235
    34  H    0.157497
 Sum of Mulliken charges =  -0.00000

 Dipole moment (field-independent basis, Debye):
    X=             -4.3074    Y=              2.3584    Z=             -1.7827  Tot=              5.2243
 Quadrupole moment (field-independent basis, Debye-Ang):
   XX=            -74.5346   YY=            -96.9112   ZZ=            -92.5808
   XY=             -3.5936   XZ=              5.0447   YZ=              4.4741

 Normal termination of Gaussian 16 at Thu May  6 17:37:32 2021.
