 Gaussian 16, Revision A.03,
 Gaussian 16:  EM64L-G16RevA.03 25-Dec-2016

 -------------
 #p 6-31g* mp2
 -------------

 ------------------------------------------------------
 Input file generated by CHIRIPA (05-May-2021 14:51:14)
 ------------------------------------------------------
 Symbolic Z-matrix:
 Charge =  0 Multiplicity = 1

                         Standard orientation:
 ---------------------------------------------------------------------
 Center     Atomic      Atomic             Coordinates (Angstroms)
 Number     Number       Type             X           Y           Z
 ---------------------------------------------------------------------
      1          6           0       -1.819666    1.395235    0.497222
      2          6           0       -0.593496    2.125725   -0.051299
      3          6           0        0.162679    2.903134    1.026490
      4          1           0       -2.493927    2.124906    0.966154
      5          1           0       -1.502267    0.706753    1.292612
      6          1           0       -0.912936    2.811613   -0.846366
      7          1           0        0.077833    1.394255   -0.519150
      8          1           0        0.509248    2.228777    1.816258
      9          1           0       -0.487151    3.654189    1.487182
     10          1           0        1.035467    3.417669    0.612539
     11          6           0       -2.586061    0.613520   -0.568277
     12          6           0       -3.812231   -0.116970   -0.019756
     13          6           0       -4.568407   -0.894379   -1.097545
     14          1           0       -2.903460    1.302002   -1.363668
     15          1           0       -1.911800   -0.116151   -1.037210
     16          1           0       -4.483561    0.614500    0.448094
     17          1           0       -3.492791   -0.802858    0.775311
     18          1           0       -3.918576   -1.645434   -1.558238
     19          1           0       -4.914975   -0.220022   -1.887314
     20          1           0       -5.441195   -1.408914   -0.683595
     21          6           0        1.751876   -1.282040    0.585933
     22          6           0        0.578813   -2.104350    0.051413
     23          6           0       -0.314311   -2.653047    1.164542
     24          1           0        2.350090   -1.906098    1.263898
     25          1           0        1.362715   -0.449878    1.188807
     26          1           0        0.970028   -2.933907   -0.551416
     27          1           0       -0.016569   -1.478319   -0.625509
     28          1           0       -0.732146   -1.835796    1.761296
     29          1           0        0.260057   -3.299655    1.835810
     30          1           0       -1.146480   -3.237677    0.760113
     31          6           0        2.653851   -0.726716   -0.514878
     32          6           0        3.826914    0.095595    0.019643
     33          6           0        4.720038    0.644292   -1.093486
     34          1           0        3.043012   -1.558876   -1.117751
     35          1           0        2.055638   -0.102657   -1.192843
     36          1           0        4.422297   -0.530436    0.696564
     37          1           0        3.435700    0.925153    0.622470
     38          1           0        4.145671    1.290901   -1.764755
     39          1           0        5.137873   -0.172958   -1.690241
     40          1           0        5.552207    1.228922   -0.689058
 ---------------------------------------------------------------------

 SCF Done:  E(RHF) =  -470.732585214     A.U. after   11 cycles
 E2 =    -0.1586174761D+01 EUMP2 =    -0.47231875997457D+03

 The electronic state is 1-A.
 Alpha  occ. eigenvalues --  -11.21666 -11.21663 -11.21614 -11.21597 -11.21456
 Alpha  occ. eigenvalues --  -11.21449 -11.21395 -11.21376 -11.21164 -11.21162
 Alpha  occ. eigenvalues --  -11.21082 -11.21074  -1.08567  -1.08400  -1.03584
 Alpha  occ. eigenvalues --   -1.03570  -0.96074  -0.95986  -0.87053  -0.87037
 Alpha  occ. eigenvalues --   -0.79695  -0.79598  -0.78427  -0.78168  -0.65744
 Alpha  occ. eigenvalues --   -0.64581  -0.60994  -0.60930  -0.59413  -0.59375
 Alpha  occ. eigenvalues --   -0.57708  -0.57572  -0.55588  -0.55054  -0.52725
 Alpha  occ. eigenvalues --   -0.52717  -0.52502  -0.52399  -0.50044  -0.49928
 Alpha  occ. eigenvalues --   -0.47987  -0.47958  -0.46887  -0.46671  -0.46170
 Alpha  occ. eigenvalues --   -0.45944  -0.45590  -0.45165  -0.43835  -0.43817
 Alpha virt. eigenvalues --    0.18242   0.21443   0.23514   0.24807   0.25020
 Alpha virt. eigenvalues --    0.25875   0.26848   0.28301   0.29094   0.30296
 Alpha virt. eigenvalues --    0.30582   0.31048   0.31698   0.31969   0.32557

 Mulliken charges:
               1
     1  C   -0.301812
     2  C   -0.306988
     3  C   -0.477513
     4  H    0.150358
     5  H    0.152199
     6  H    0.152589
     7  H    0.158258
     8  H    0.155872
     9  H    0.155882
    10  H    0.160577
    11  C   -0.303802
    12  C   -0.301149
    13  C   -0.475820
    14  H    0.149783
    15  H    0.154966
    16  H    0.151807
    17  H    0.154293
    18  H    0.155100
    19  H    0.155127
    20  H    0.160357
    21  C   -0.302318
    22  C   -0.306721
    23  C   -0.478873
    24  H    0.150454
    25  H    0.152950
    26  H    0.152705
    27  H    0.157685
    28  H    0.157273
    29  H    0.155878
    30  H    0.160629
    31  C   -0.301481
    32  C   -0.301054
    33  C   -0.475802
    34  H    0.150034
    35  H    0.151918
    36  H    0.151982
    37  H    0.153837
    38  H    0.155265
    39  H    0.155164
    40  H    0.160391
 Sum of Mulliken charges =  -0.00000

 Dipole moment (field-independent basis, Debye):
    X=              0.0049    Y=             -0.0030    Z=              0.0041  Tot=              0.0071
 Quadrupole moment (field-independent basis, Debye-Ang):
   XX=            -85.0607   YY=            -83.9289   ZZ=            -85.6603
   XY=             -1.7059   XZ=              0.2025   YZ=             -0.2802

 Normal termination of Gaussian 16 at Wed May  5 20:01:53 2021.
