 Gaussian 16, Revision A.03,
 Gaussian 16:  EM64L-G16RevA.03 25-Dec-2016

 -------------
 #p 6-31g* mp2
 -------------

 ------------------------------------------------------
 Input file generated by CHIRIPA (05-May-2021 14:57:26)
 ------------------------------------------------------
 Symbolic Z-matrix:
 Charge =  0 Multiplicity = 1

                         Standard orientation:
 ---------------------------------------------------------------------
 Center     Atomic      Atomic             Coordinates (Angstroms)
 Number     Number       Type             X           Y           Z
 ---------------------------------------------------------------------
      1          6           0        1.680341   -0.060035    0.481236
      2          6           0        2.278599   -1.188723   -0.088562
      3          6           0        3.660687   -1.231963   -0.294745
      4          6           0        4.417695   -0.123796    0.082344
      5          6           0        3.851039    1.015203    0.652319
      6          6           0        2.467083    1.036393    0.849209
      7          1           0        0.605977   -0.035009    0.637794
      8          1           0        1.670088   -2.041682   -0.375303
      9          1           0        4.149783   -2.092998   -0.733859
     10          1           0        4.483793    1.850106    0.927955
     11          1           0        2.005187    1.914285    1.291932
     12          7           0        5.881839   -0.157901   -0.131014
     13          8           0        6.526678    0.831369    0.209814
     14          8           0        6.356871   -1.173257   -0.635032
     15          6           0       -5.711324   -1.817270    0.396247
     16          6           0       -4.376790   -2.054739    0.051067
     17          6           0       -3.517300   -0.990011   -0.235605
     18          6           0       -4.027995    0.305288   -0.167176
     19          6           0       -5.352674    0.574210    0.173701
     20          6           0       -6.194155   -0.505866    0.456357
     21          1           0       -6.372001   -2.650338    0.617381
     22          1           0       -3.999075   -3.072148    0.003596
     23          1           0       -2.479780   -1.145328   -0.505510
     24          1           0       -5.700314    1.599414    0.212698
     25          1           0       -7.230113   -0.318455    0.724148
     26          7           0       -3.127624    1.440591   -0.468537
     27          8           0       -3.601932    2.572464   -0.401222
     28          8           0       -1.964654    1.177071   -0.766351
 ---------------------------------------------------------------------

 SCF Done:  E(RHF) =  -868.339013042     A.U. after   16 cycles
 E2 =    -0.2598603934D+01 EUMP2 =    -0.87093761697658D+03

 The electronic state is 1-A.
 Alpha  occ. eigenvalues --  -20.61820 -20.61752 -20.60305 -20.60296 -15.86822
 Alpha  occ. eigenvalues --  -15.85355 -11.32041 -11.30597 -11.28645 -11.28544
 Alpha  occ. eigenvalues --  -11.28262 -11.27576 -11.27520 -11.27213 -11.27144
 Alpha  occ. eigenvalues --  -11.26781 -11.26190 -11.26051  -1.60849  -1.59382
 Alpha  occ. eigenvalues --   -1.40411  -1.38940  -1.20189  -1.18758  -1.09603
 Alpha  occ. eigenvalues --   -1.08150  -1.05573  -1.04158  -0.96468  -0.95008
 Alpha  occ. eigenvalues --   -0.86975  -0.85549  -0.83309  -0.81857  -0.78386
 Alpha  occ. eigenvalues --   -0.76944  -0.73047  -0.72161  -0.71576  -0.71290
 Alpha  occ. eigenvalues --   -0.70705  -0.69796  -0.65843  -0.65567  -0.64405
 Alpha  occ. eigenvalues --   -0.64161  -0.62932  -0.61521  -0.56055  -0.54568
 Alpha  occ. eigenvalues --   -0.53902  -0.53661  -0.52475  -0.52249  -0.49811
 Alpha  occ. eigenvalues --   -0.49775  -0.48337  -0.48322  -0.45843  -0.44373
 Alpha  occ. eigenvalues --   -0.38143  -0.37168  -0.36682  -0.35771
 Alpha virt. eigenvalues --    0.04117   0.05611   0.10483   0.11896   0.15636
 Alpha virt. eigenvalues --    0.17143   0.20153   0.21960   0.25978   0.27040
 Alpha virt. eigenvalues --    0.27929   0.28869   0.30600   0.31187   0.32835

 Mulliken charges:
               1
     1  C   -0.169197
     2  C   -0.219265
     3  C   -0.171331
     4  C    0.157471
     5  C   -0.171318
     6  C   -0.218845
     7  H    0.235443
     8  H    0.216200
     9  H    0.272740
    10  H    0.274461
    11  H    0.227271
    12  N    0.488270
    13  O   -0.461363
    14  O   -0.462762
    15  C   -0.170007
    16  C   -0.217767
    17  C   -0.171643
    18  C    0.158700
    19  C   -0.170344
    20  C   -0.218074
    21  H    0.228503
    22  H    0.224510
    23  H    0.268980
    24  H    0.277454
    25  H    0.226390
    26  N    0.489668
    27  O   -0.454835
    28  O   -0.469311
 Sum of Mulliken charges =  -0.00000

 Dipole moment (field-independent basis, Debye):
    X=             -8.8280    Y=             -3.7553    Z=              1.8668  Tot=              9.7735
 Quadrupole moment (field-independent basis, Debye-Ang):
   XX=           -122.2075   YY=           -101.2997   ZZ=           -105.7891
   XY=             14.5126   XZ=             -1.5470   YZ=              3.5782

 Normal termination of Gaussian 16 at Thu May  6 21:21:34 2021.
