 Gaussian 16, Revision A.03,
 Gaussian 16:  EM64L-G16RevA.03 25-Dec-2016

 -------------
 #p 6-31g* mp2
 -------------

 ------------------------------------------------------
 Input file generated by CHIRIPA (05-May-2021 14:55:25)
 ------------------------------------------------------
 Symbolic Z-matrix:
 Charge =  0 Multiplicity = 1

                         Standard orientation:
 ---------------------------------------------------------------------
 Center     Atomic      Atomic             Coordinates (Angstroms)
 Number     Number       Type             X           Y           Z
 ---------------------------------------------------------------------
      1          6           0       -0.828998   -1.944986    0.141187
      2          6           0       -0.687619   -0.734030   -0.544464
      3          6           0       -1.764569    0.150935   -0.652006
      4          6           0       -2.973972   -0.208549   -0.059212
      5          6           0       -3.146161   -1.407698    0.630486
      6          6           0       -2.055655   -2.277369    0.725444
      7          1           0        0.012867   -2.626508    0.219840
      8          1           0        0.263840   -0.473277   -0.999194
      9          1           0       -1.682761    1.094908   -1.177020
     10          1           0       -4.107043   -1.640027    1.073370
     11          1           0       -2.168349   -3.217133    1.258537
     12          7           0       -4.121266    0.720229   -0.166401
     13          8           0       -5.176266    0.380220    0.364642
     14          8           0       -3.943791    1.770627   -0.779429
     15          6           0        3.640698   -0.155101   -0.389261
     16          6           0        4.303970   -1.333711    0.324135
     17          6           0        4.449095   -2.562578   -0.573983
     18          1           0        2.651117   -0.464431   -0.752565
     19          1           0        4.232036    0.106639   -1.277634
     20          1           0        3.712312   -1.592258    1.211666
     21          1           0        5.292007   -1.021481    0.685951
     22          1           0        5.057527   -2.327428   -1.453254
     23          1           0        3.468856   -2.901447   -0.924551
     24          1           0        4.925594   -3.393178   -0.043970
     25          6           0        3.488606    1.080854    0.495619
     26          6           0        2.825335    2.259464   -0.217777
     27          6           0        2.680209    3.488332    0.680342
     28          1           0        2.897268    0.819115    1.383992
     29          1           0        4.478187    1.390184    0.858924
     30          1           0        1.837297    1.947234   -0.579592
     31          1           0        3.416992    2.518011   -1.105308
     32          1           0        3.660449    3.827201    1.030911
     33          1           0        2.071777    3.253181    1.559612
     34          1           0        2.203710    4.318931    0.150328
 ---------------------------------------------------------------------

 SCF Done:  E(RHF) =  -669.535430961     A.U. after   15 cycles
 E2 =    -0.2091788710D+01 EUMP2 =    -0.67162721967131D+03

 The electronic state is 1-A.
 Alpha  occ. eigenvalues --  -20.60766 -20.60761 -15.85820 -11.31194 -11.27767
 Alpha  occ. eigenvalues --  -11.27762 -11.27512 -11.26783 -11.26757 -11.22523
 Alpha  occ. eigenvalues --  -11.22409 -11.22329 -11.22144 -11.21996 -11.21538
 Alpha  occ. eigenvalues --   -1.59841  -1.39395  -1.19368  -1.09293  -1.08762
 Alpha  occ. eigenvalues --   -1.04773  -1.04313  -0.96755  -0.95595  -0.87763
 Alpha  occ. eigenvalues --   -0.86175  -0.82428  -0.80386  -0.79115  -0.77471
 Alpha  occ. eigenvalues --   -0.72038  -0.71165  -0.70479  -0.66011  -0.65021
 Alpha  occ. eigenvalues --   -0.64730  -0.62120  -0.61714  -0.60124  -0.58362
 Alpha  occ. eigenvalues --   -0.56062  -0.55268  -0.53417  -0.53182  -0.53100
 Alpha  occ. eigenvalues --   -0.52861  -0.50695  -0.48804  -0.48792  -0.48693
 Alpha  occ. eigenvalues --   -0.47443  -0.46633  -0.46540  -0.44798  -0.44583
 Alpha  occ. eigenvalues --   -0.37350  -0.36373
 Alpha virt. eigenvalues --    0.05055   0.11239   0.16490   0.18382   0.22720
 Alpha virt. eigenvalues --    0.23136   0.24667   0.26167   0.26916   0.27642
 Alpha virt. eigenvalues --    0.29638   0.30960   0.31002   0.31266   0.31807

 Mulliken charges:
               1
     1  C   -0.173567
     2  C   -0.225920
     3  C   -0.172576
     4  C    0.158957
     5  C   -0.171079
     6  C   -0.218525
     7  H    0.225760
     8  H    0.233991
     9  H    0.276154
    10  H    0.275676
    11  H    0.223529
    12  N    0.487955
    13  O   -0.460462
    14  O   -0.460266
    15  C   -0.301589
    16  C   -0.300629
    17  C   -0.475139
    18  H    0.139796
    19  H    0.153859
    20  H    0.150719
    21  H    0.156703
    22  H    0.158909
    23  H    0.148085
    24  H    0.163326
    25  C   -0.299283
    26  C   -0.299635
    27  C   -0.476552
    28  H    0.151345
    29  H    0.153528
    30  H    0.144495
    31  H    0.154125
    32  H    0.156866
    33  H    0.157647
    34  H    0.163797
 Sum of Mulliken charges =  -0.00000

 Dipole moment (field-independent basis, Debye):
    X=              4.2412    Y=             -3.1817    Z=              0.4466  Tot=              5.3208
 Quadrupole moment (field-independent basis, Debye-Ang):
   XX=           -115.8266   YY=            -92.2170   ZZ=            -94.2407
   XY=             11.6758   XZ=             -3.1680   YZ=             -2.4237

 Normal termination of Gaussian 16 at Thu May  6 08:00:31 2021.
