 Gaussian 16, Revision A.03,
 Gaussian 16:  EM64L-G16RevA.03 25-Dec-2016

 -------------
 #p 6-31g* mp2
 -------------

 ------------------------------------------------------
 Input file generated by CHIRIPA (05-May-2021 14:51:11)
 ------------------------------------------------------
 Symbolic Z-matrix:
 Charge =  0 Multiplicity = 1

                         Standard orientation:
 ---------------------------------------------------------------------
 Center     Atomic      Atomic             Coordinates (Angstroms)
 Number     Number       Type             X           Y           Z
 ---------------------------------------------------------------------
      1          6           0        2.735205    0.923297   -0.243517
      2          6           0        3.622593    2.102866    0.155413
      3          6           0        2.848490    3.417588    0.255738
      4          1           0        2.255949    1.142745   -1.207416
      5          1           0        1.925211    0.817789    0.491447
      6          1           0        4.431472    2.205258   -0.579329
      7          1           0        4.099941    1.880503    1.118382
      8          1           0        2.051927    3.339591    1.002735
      9          1           0        2.385342    3.666191   -0.704622
     10          1           0        3.502073    4.247454    0.542116
     11          6           0        3.494710   -0.398055   -0.347962
     12          6           0        2.607322   -1.577624   -0.746892
     13          6           0        3.381425   -2.892346   -0.847217
     14          1           0        4.304704   -0.292547   -1.082926
     15          1           0        3.973966   -0.617503    0.615937
     16          1           0        2.129974   -1.355261   -1.709861
     17          1           0        1.798442   -1.680016   -0.012150
     18          1           0        3.844573   -3.140949    0.113143
     19          1           0        4.177988   -2.814349   -1.594214
     20          1           0        2.727842   -3.722212   -1.133595
     21          6           0       -2.510356   -0.187524    0.756446
     22          6           0       -1.671591   -1.461052    0.868619
     23          6           0       -0.465626   -1.295058    1.793761
     24          1           0       -1.875520    0.630971    0.390391
     25          1           0       -2.853195    0.106798    1.758060
     26          1           0       -1.331590   -1.753656   -0.133078
     27          1           0       -2.308543   -2.276656    1.234266
     28          1           0       -0.789511   -1.026070    2.804377
     29          1           0        0.192994   -0.500098    1.429263
     30          1           0        0.119971   -2.217353    1.859393
     31          6           0       -3.719559   -0.337719   -0.164966
     32          6           0       -4.558323    0.935810   -0.277140
     33          6           0       -5.764288    0.769816   -1.202282
     34          1           0       -3.376720   -0.632040   -1.166581
     35          1           0       -4.354394   -1.156213    0.201087
     36          1           0       -3.921370    1.751414   -0.642787
     37          1           0       -4.898325    1.228414    0.724558
     38          1           0       -6.422909   -0.025145   -0.837784
     39          1           0       -5.440404    0.500827   -2.212898
     40          1           0       -6.349886    1.692110   -1.267915
 ---------------------------------------------------------------------

 SCF Done:  E(RHF) =  -470.732373035     A.U. after   11 cycles
 E2 =    -0.1583949821D+01 EUMP2 =    -0.47231632285630D+03

 The electronic state is 1-A.
 Alpha  occ. eigenvalues --  -11.21626 -11.21612 -11.21602 -11.21486 -11.21413
 Alpha  occ. eigenvalues --  -11.21408 -11.21353 -11.21334 -11.21107 -11.21085
 Alpha  occ. eigenvalues --  -11.21072 -11.21033  -1.08460  -1.08405  -1.03572
 Alpha  occ. eigenvalues --   -1.03492  -0.96013  -0.95969  -0.87043  -0.86975
 Alpha  occ. eigenvalues --   -0.79643  -0.79562  -0.78291  -0.78204  -0.65221
 Alpha  occ. eigenvalues --   -0.64942  -0.61073  -0.60817  -0.59428  -0.59278
 Alpha  occ. eigenvalues --   -0.57701  -0.57501  -0.55364  -0.55223  -0.52730
 Alpha  occ. eigenvalues --   -0.52650  -0.52464  -0.52357  -0.50012  -0.49908
 Alpha  occ. eigenvalues --   -0.47972  -0.47864  -0.46764  -0.46585  -0.45897
 Alpha  occ. eigenvalues --   -0.45757  -0.45729  -0.45331  -0.43796  -0.43761
 Alpha virt. eigenvalues --    0.21140   0.23188   0.23720   0.24307   0.25862
 Alpha virt. eigenvalues --    0.26647   0.27127   0.27515   0.27976   0.29252
 Alpha virt. eigenvalues --    0.31117   0.31490   0.31650   0.32010   0.32156

 Mulliken charges:
               1
     1  C   -0.305863
     2  C   -0.299006
     3  C   -0.475856
     4  H    0.149244
     5  H    0.155433
     6  H    0.152129
     7  H    0.152201
     8  H    0.155159
     9  H    0.154975
    10  H    0.160440
    11  C   -0.297339
    12  C   -0.310370
    13  C   -0.475274
    14  H    0.149390
    15  H    0.149528
    16  H    0.150414
    17  H    0.165524
    18  H    0.154855
    19  H    0.154886
    20  H    0.159739
    21  C   -0.298771
    22  C   -0.300520
    23  C   -0.486094
    24  H    0.150294
    25  H    0.149450
    26  H    0.153682
    27  H    0.152194
    28  H    0.156366
    29  H    0.162458
    30  H    0.160547
    31  C   -0.298346
    32  C   -0.299722
    33  C   -0.475716
    34  H    0.149678
    35  H    0.149634
    36  H    0.152131
    37  H    0.151898
    38  H    0.155156
    39  H    0.155190
    40  H    0.160283
 Sum of Mulliken charges =  -0.00000

 Dipole moment (field-independent basis, Debye):
    X=             -0.0231    Y=              0.0041    Z=              0.0211  Tot=              0.0316
 Quadrupole moment (field-independent basis, Debye-Ang):
   XX=            -85.5280   YY=            -85.7617   ZZ=            -83.6308
   XY=              0.7280   XZ=             -1.0920   YZ=             -0.5588

 Normal termination of Gaussian 16 at Wed May  5 18:15:06 2021.
