 Gaussian 16, Revision A.03,
 Gaussian 16:  EM64L-G16RevA.03 25-Dec-2016

 -------------
 #p 6-31g* mp2
 -------------

 ------------------------------------------------------
 Input file generated by CHIRIPA (05-May-2021 14:53:15)
 ------------------------------------------------------
 Symbolic Z-matrix:
 Charge =  0 Multiplicity = 1

                         Standard orientation:
 ---------------------------------------------------------------------
 Center     Atomic      Atomic             Coordinates (Angstroms)
 Number     Number       Type             X           Y           Z
 ---------------------------------------------------------------------
      1          6           0       -3.522045   -0.310412   -0.040432
      2          6           0       -3.854654    1.164003   -0.271639
      3          6           0       -5.094163    1.360484   -1.145027
      4          1           0       -3.370078   -0.802021   -1.011087
      5          1           0       -4.384251   -0.804423    0.428555
      6          1           0       -2.991567    1.655399   -0.738787
      7          1           0       -4.005659    1.652204    0.699687
      8          1           0       -5.970122    0.895976   -0.680776
      9          1           0       -4.950269    0.899189   -2.127424
     10          1           0       -5.313739    2.421808   -1.297466
     11          6           0       -2.285402   -0.523065    0.830901
     12          6           0       -1.952793   -1.997480    1.062108
     13          6           0       -0.713285   -2.193960    1.935496
     14          1           0       -1.423196   -0.029054    0.361913
     15          1           0       -2.437369   -0.031455    1.801556
     16          1           0       -1.801789   -2.485680    0.090782
     17          1           0       -2.815880   -2.488875    1.529256
     18          1           0       -0.857179   -1.732665    2.917893
     19          1           0        0.162674   -1.729452    1.471245
     20          1           0       -0.493708   -3.255284    2.087935
     21          6           0        2.295914    2.545386    0.890230
     22          6           0        1.186786    2.179089    0.120698
     23          6           0        1.160699    0.951598   -0.547983
     24          6           0        2.265888    0.110974   -0.424692
     25          6           0        3.385594    0.447524    0.334438
     26          6           0        3.389850    1.679961    0.994461
     27          1           0        2.307699    3.500852    1.406315
     28          1           0        0.335809    2.849190    0.037953
     29          1           0        0.314981    0.642964   -1.150414
     30          1           0        4.219008   -0.241536    0.397973
     31          1           0        4.252569    1.961806    1.591390
     32          7           0        2.249827   -1.191133   -1.128012
     33          8           0        3.236064   -1.913936   -1.003394
     34          8           0        1.251304   -1.464267   -1.790576
 ---------------------------------------------------------------------

 SCF Done:  E(RHF) =  -669.535167998     A.U. after   15 cycles
 E2 =    -0.2093565488D+01 EUMP2 =    -0.67162873348618D+03

 The electronic state is 1-A.
 Alpha  occ. eigenvalues --  -20.60863 -20.60858 -15.85910 -11.31265 -11.27825
 Alpha  occ. eigenvalues --  -11.27821 -11.27554 -11.26831 -11.26821 -11.21922
 Alpha  occ. eigenvalues --  -11.21451 -11.21383 -11.21293 -11.21275 -11.20788
 Alpha  occ. eigenvalues --   -1.59933  -1.39487  -1.19437  -1.08828  -1.08465
 Alpha  occ. eigenvalues --   -1.04835  -1.03517  -0.95969  -0.95667  -0.86990
 Alpha  occ. eigenvalues --   -0.86232  -0.82497  -0.79611  -0.78297  -0.77535
 Alpha  occ. eigenvalues --   -0.72127  -0.71263  -0.70549  -0.65171  -0.65081
 Alpha  occ. eigenvalues --   -0.64779  -0.62184  -0.60901  -0.59353  -0.57576
 Alpha  occ. eigenvalues --   -0.55360  -0.55228  -0.53176  -0.52935  -0.52658
 Alpha  occ. eigenvalues --   -0.52382  -0.49923  -0.48886  -0.48881  -0.47921
 Alpha  occ. eigenvalues --   -0.46650  -0.45827  -0.45699  -0.44870  -0.43781
 Alpha  occ. eigenvalues --   -0.37395  -0.36378
 Alpha virt. eigenvalues --    0.04937   0.11149   0.16417   0.19947   0.22952
 Alpha virt. eigenvalues --    0.24159   0.25283   0.26992   0.27636   0.28023
 Alpha virt. eigenvalues --    0.29826   0.30781   0.31540   0.31857   0.32298

 Mulliken charges:
               1
     1  C   -0.299689
     2  C   -0.297559
     3  C   -0.475722
     4  H    0.154725
     5  H    0.151051
     6  H    0.141360
     7  H    0.151051
     8  H    0.157023
     9  H    0.157591
    10  H    0.158936
    11  C   -0.300831
    12  C   -0.301236
    13  C   -0.474406
    14  H    0.144832
    15  H    0.147010
    16  H    0.163686
    17  H    0.150347
    18  H    0.150998
    19  H    0.152377
    20  H    0.163738
    21  C   -0.170517
    22  C   -0.217859
    23  C   -0.170541
    24  C    0.157346
    25  C   -0.171416
    26  C   -0.218084
    27  H    0.226107
    28  H    0.224970
    29  H    0.276227
    30  H    0.276057
    31  H    0.223860
    32  N    0.489216
    33  O   -0.459361
    34  O   -0.461286
 Sum of Mulliken charges =  -0.00000

 Dipole moment (field-independent basis, Debye):
    X=              0.0997    Y=              4.4854    Z=              2.4356  Tot=              5.1050
 Quadrupole moment (field-independent basis, Debye-Ang):
   XX=            -90.5603   YY=            -93.9824   ZZ=            -96.7461
   XY=             10.0557   XZ=              6.7342   YZ=             -1.7293

 Normal termination of Gaussian 16 at Thu May  6 07:28:38 2021.
