 Gaussian 16, Revision A.03,
 Gaussian 16:  EM64L-G16RevA.03 25-Dec-2016

 -------------
 #p 6-31g* mp2
 -------------

 ------------------------------------------------------
 Input file generated by CHIRIPA (05-May-2021 14:53:15)
 ------------------------------------------------------
 Symbolic Z-matrix:
 Charge =  0 Multiplicity = 1

                         Standard orientation:
 ---------------------------------------------------------------------
 Center     Atomic      Atomic             Coordinates (Angstroms)
 Number     Number       Type             X           Y           Z
 ---------------------------------------------------------------------
      1          6           0       -2.560416   -0.018912   -0.721962
      2          6           0       -3.590307   -1.066252   -0.297240
      3          6           0       -3.595025   -2.294126   -1.208336
      4          1           0       -2.766514    0.290591   -1.755730
      5          1           0       -1.561827   -0.477385   -0.726136
      6          1           0       -4.586482   -0.605567   -0.292532
      7          1           0       -3.381849   -1.373157    0.735703
      8          1           0       -2.613780   -2.779669   -1.205551
      9          1           0       -3.825257   -2.007719   -2.239628
     10          1           0       -4.338569   -3.029960   -0.886542
     11          6           0       -2.543679    1.214520    0.179201
     12          6           0       -1.513788    2.261860   -0.245520
     13          6           0       -1.509070    3.489735    0.665575
     14          1           0       -3.542268    1.672993    0.183375
     15          1           0       -2.337581    0.905017    1.212969
     16          1           0       -1.722245    2.568765   -1.278463
     17          1           0       -0.517613    1.801176   -0.250228
     18          1           0       -1.278838    3.203327    1.696868
     19          1           0       -2.490315    3.975278    0.662791
     20          1           0       -0.765526    4.225568    0.343781
     21          6           0        0.568055   -1.976138    1.645828
     22          6           0        0.584745   -0.597506    1.881660
     23          6           0        1.370967    0.248178    1.093484
     24          6           0        2.131621   -0.321140    0.073401
     25          6           0        2.136204   -1.690742   -0.186327
     26          6           0        1.342473   -2.517402    0.614406
     27          1           0       -0.045617   -2.625697    2.262980
     28          1           0       -0.015668   -0.174375    2.681978
     29          1           0        1.402603    1.318965    1.254208
     30          1           0        2.745364   -2.083262   -0.991480
     31          1           0        1.331473   -3.587699    0.428966
     32          7           0        2.967934    0.564078   -0.767653
     33          8           0        3.629089    0.037788   -1.660139
     34          8           0        2.946446    1.767439   -0.518459
 ---------------------------------------------------------------------

 SCF Done:  E(RHF) =  -669.534956052     A.U. after   15 cycles
 E2 =    -0.2094861723D+01 EUMP2 =    -0.67162981777504D+03

 The electronic state is 1-A.
 Alpha  occ. eigenvalues --  -20.60876 -20.60868 -15.85924 -11.31324 -11.27901
 Alpha  occ. eigenvalues --  -11.27889 -11.27657 -11.26921 -11.26911 -11.21964
 Alpha  occ. eigenvalues --  -11.21691 -11.21634 -11.21544 -11.21443 -11.21263
 Alpha  occ. eigenvalues --   -1.59945  -1.39497  -1.19517  -1.08897  -1.08673
 Alpha  occ. eigenvalues --   -1.04926  -1.03785  -0.96239  -0.95723  -0.87257
 Alpha  occ. eigenvalues --   -0.86316  -0.82551  -0.79845  -0.78485  -0.77596
 Alpha  occ. eigenvalues --   -0.72141  -0.71269  -0.70621  -0.65371  -0.65152
 Alpha  occ. eigenvalues --   -0.64919  -0.62313  -0.61149  -0.59594  -0.57832
 Alpha  occ. eigenvalues --   -0.55573  -0.55399  -0.53267  -0.53006  -0.52904
 Alpha  occ. eigenvalues --   -0.52653  -0.50207  -0.48904  -0.48895  -0.48162
 Alpha  occ. eigenvalues --   -0.46903  -0.46033  -0.45910  -0.44870  -0.44019
 Alpha  occ. eigenvalues --   -0.37471  -0.36450
 Alpha virt. eigenvalues --    0.04916   0.10996   0.16341   0.19900   0.23067
 Alpha virt. eigenvalues --    0.23525   0.25648   0.26765   0.27223   0.28529
 Alpha virt. eigenvalues --    0.29003   0.30028   0.31348   0.31654   0.31957

 Mulliken charges:
               1
     1  C   -0.301697
     2  C   -0.298029
     3  C   -0.475702
     4  H    0.151694
     5  H    0.154891
     6  H    0.153051
     7  H    0.144881
     8  H    0.152673
     9  H    0.157926
    10  H    0.159333
    11  C   -0.295736
    12  C   -0.306402
    13  C   -0.476730
    14  H    0.150304
    15  H    0.139648
    16  H    0.156400
    17  H    0.156549
    18  H    0.145367
    19  H    0.156597
    20  H    0.168062
    21  C   -0.171590
    22  C   -0.216939
    23  C   -0.174425
    24  C    0.160154
    25  C   -0.170759
    26  C   -0.218965
    27  H    0.226731
    28  H    0.224631
    29  H    0.278856
    30  H    0.276365
    31  H    0.224390
    32  N    0.488721
    33  O   -0.459634
    34  O   -0.460619
 Sum of Mulliken charges =  -0.00000

 Dipole moment (field-independent basis, Debye):
    X=             -2.8338    Y=             -3.0972    Z=              2.8597  Tot=              5.0795
 Quadrupole moment (field-independent basis, Debye-Ang):
   XX=           -107.2570   YY=            -90.3141   ZZ=            -93.4594
   XY=             -7.7079   XZ=              5.8002   YZ=              0.1280

 Normal termination of Gaussian 16 at Thu May  6 07:28:40 2021.
