 Gaussian 16, Revision A.03,
 Gaussian 16:  EM64L-G16RevA.03 25-Dec-2016

 -------------
 #p 6-31g* mp2
 -------------

 ------------------------------------------------------
 Input file generated by CHIRIPA (05-May-2021 14:55:21)
 ------------------------------------------------------
 Symbolic Z-matrix:
 Charge =  0 Multiplicity = 1

                         Standard orientation:
 ---------------------------------------------------------------------
 Center     Atomic      Atomic             Coordinates (Angstroms)
 Number     Number       Type             X           Y           Z
 ---------------------------------------------------------------------
      1          6           0       -2.684937    2.625514    0.589185
      2          6           0       -2.435600    1.608445    1.516506
      3          6           0       -2.503546    0.265721    1.133069
      4          6           0       -2.825006   -0.025286   -0.191797
      5          6           0       -3.078734    0.965518   -1.139014
      6          6           0       -3.005144    2.301375   -0.733284
      7          1           0       -2.629963    3.665907    0.895707
      8          1           0       -2.186699    1.857221    2.544223
      9          1           0       -2.315201   -0.541536    1.830406
     10          1           0       -3.324483    0.686398   -2.156421
     11          1           0       -3.199273    3.089161   -1.455608
     12          7           0       -2.899925   -1.443133   -0.609524
     13          8           0       -3.185129   -1.673230   -1.782704
     14          8           0       -2.672023   -2.297497    0.244150
     15          6           0        4.342796   -0.117956    0.256620
     16          6           0        4.988032    0.575296   -0.943821
     17          6           0        6.473770    0.866346   -0.730129
     18          1           0        4.470051    0.511884    1.147716
     19          1           0        4.875973   -1.057192    0.458987
     20          1           0        4.452926    1.512268   -1.144722
     21          1           0        4.859057   -0.056180   -1.832201
     22          1           0        7.026395   -0.061783   -0.551854
     23          1           0        6.617956    1.515576    0.139533
     24          1           0        6.914987    1.362069   -1.600443
     25          6           0        2.857609   -0.415528    0.058132
     26          6           0        2.212373   -1.108781    1.258573
     27          6           0        0.726634   -1.399831    1.044882
     28          1           0        2.324432    0.523709   -0.144235
     29          1           0        2.730353   -1.045368   -0.832964
     30          1           0        2.341347   -0.477305    2.146954
     31          1           0        2.747479   -2.045753    1.459474
     32          1           0        0.582449   -2.049061    0.175220
     33          1           0        0.174009   -0.471702    0.866606
     34          1           0        0.285418   -1.895554    1.915196
 ---------------------------------------------------------------------

 SCF Done:  E(RHF) =  -669.534811438     A.U. after   15 cycles
 E2 =    -0.2092880552D+01 EUMP2 =    -0.67162769198985D+03

 The electronic state is 1-A.
 Alpha  occ. eigenvalues --  -20.60794 -20.60763 -15.85812 -11.31164 -11.27771
 Alpha  occ. eigenvalues --  -11.27734 -11.27522 -11.26770 -11.26760 -11.21574
 Alpha  occ. eigenvalues --  -11.21414 -11.21328 -11.21245 -11.21065 -11.20689
 Alpha  occ. eigenvalues --   -1.59839  -1.39394  -1.19372  -1.08758  -1.08331
 Alpha  occ. eigenvalues --   -1.04781  -1.03407  -0.95867  -0.95580  -0.86888
 Alpha  occ. eigenvalues --   -0.86154  -0.82426  -0.79490  -0.78153  -0.77457
 Alpha  occ. eigenvalues --   -0.72038  -0.71149  -0.70483  -0.65020  -0.64974
 Alpha  occ. eigenvalues --   -0.64769  -0.62132  -0.60812  -0.59219  -0.57474
 Alpha  occ. eigenvalues --   -0.55327  -0.55155  -0.53181  -0.52896  -0.52484
 Alpha  occ. eigenvalues --   -0.52207  -0.49762  -0.48798  -0.48792  -0.47797
 Alpha  occ. eigenvalues --   -0.46514  -0.45705  -0.45618  -0.44760  -0.43639
 Alpha  occ. eigenvalues --   -0.37334  -0.36315
 Alpha virt. eigenvalues --    0.05052   0.11255   0.16517   0.21287   0.22961
 Alpha virt. eigenvalues --    0.24364   0.26756   0.26826   0.27594   0.27773
 Alpha virt. eigenvalues --    0.28789   0.30389   0.31590   0.31622   0.31950

 Mulliken charges:
               1
     1  C   -0.170504
     2  C   -0.219896
     3  C   -0.171524
     4  C    0.160295
     5  C   -0.170695
     6  C   -0.219054
     7  H    0.225581
     8  H    0.223650
     9  H    0.278987
    10  H    0.275646
    11  H    0.223363
    12  N    0.488763
    13  O   -0.460650
    14  O   -0.459105
    15  C   -0.297930
    16  C   -0.299432
    17  C   -0.475580
    18  H    0.147783
    19  H    0.150416
    20  H    0.150219
    21  H    0.153086
    22  H    0.155810
    23  H    0.154207
    24  H    0.159904
    25  C   -0.298413
    26  C   -0.300116
    27  C   -0.481291
    28  H    0.147042
    29  H    0.152178
    30  H    0.146768
    31  H    0.153235
    32  H    0.165397
    33  H    0.151659
    34  H    0.160202
 Sum of Mulliken charges =  -0.00000

 Dipole moment (field-independent basis, Debye):
    X=              0.1715    Y=              4.9044    Z=              1.4303  Tot=              5.1116
 Quadrupole moment (field-independent basis, Debye-Ang):
   XX=            -98.1200   YY=            -94.2565   ZZ=            -91.0453
   XY=            -15.2570   XZ=             -3.2318   YZ=             -2.1261

 Normal termination of Gaussian 16 at Wed May  5 18:58:29 2021.
