 Gaussian 16, Revision A.03,
 Gaussian 16:  EM64L-G16RevA.03 25-Dec-2016

 -------------
 #p 6-31g* mp2
 -------------

 ------------------------------------------------------
 Input file generated by CHIRIPA (05-May-2021 14:53:15)
 ------------------------------------------------------
 Symbolic Z-matrix:
 Charge =  0 Multiplicity = 1

                         Standard orientation:
 ---------------------------------------------------------------------
 Center     Atomic      Atomic             Coordinates (Angstroms)
 Number     Number       Type             X           Y           Z
 ---------------------------------------------------------------------
      1          6           0        2.377691    0.616742    0.012222
      2          6           0        2.925001    2.042869   -0.055596
      3          6           0        1.821783    3.101223   -0.031310
      4          1           0        1.692265    0.453374   -0.830659
      5          1           0        1.780136    0.503906    0.927422
      6          1           0        3.522489    2.152574   -0.969702
      7          1           0        3.609351    2.202798    0.787436
      8          1           0        1.230665    3.020526    0.886659
      9          1           0        1.143308    2.970017   -0.880462
     10          1           0        2.235280    4.113371   -0.080681
     11          6           0        3.468495   -0.452523   -0.011139
     12          6           0        2.921186   -1.878650    0.056680
     13          6           0        4.024404   -2.937005    0.032394
     14          1           0        4.066051   -0.339688   -0.926339
     15          1           0        4.153921   -0.289156    0.831742
     16          1           0        2.236835   -2.038580   -0.786352
     17          1           0        2.323698   -1.988356    0.970785
     18          1           0        4.702878   -2.805799    0.881545
     19          1           0        4.615522   -2.856308   -0.885576
     20          1           0        3.610906   -3.949152    0.081764
     21          6           0       -1.738406    2.398579    0.059500
     22          6           0       -1.917079    1.691935    1.253340
     23          6           0       -2.219471    0.327143    1.232131
     24          6           0       -2.336381   -0.302235   -0.006217
     25          6           0       -2.164136    0.374382   -1.212786
     26          6           0       -1.862286    1.738711   -1.167589
     27          1           0       -1.503712    3.458602    0.085293
     28          1           0       -1.821474    2.201802    2.207771
     29          1           0       -2.362886   -0.244120    2.141257
     30          1           0       -2.265788   -0.161230   -2.148844
     31          1           0       -1.724060    2.284963   -2.096323
     32          7           0       -2.656222   -1.746833   -0.041367
     33          8           0       -2.753858   -2.278226   -1.145327
     34          8           0       -2.803222   -2.320365    1.035708
 ---------------------------------------------------------------------

 SCF Done:  E(RHF) =  -669.535109709     A.U. after   15 cycles
 E2 =    -0.2093009990D+01 EUMP2 =    -0.67162811969930D+03

 The electronic state is 1-A.
 Alpha  occ. eigenvalues --  -20.60759 -20.60754 -15.85817 -11.31174 -11.27788
 Alpha  occ. eigenvalues --  -11.27784 -11.27493 -11.26764 -11.26754 -11.21997
 Alpha  occ. eigenvalues --  -11.21700 -11.21569 -11.21520 -11.21432 -11.20942
 Alpha  occ. eigenvalues --   -1.59836  -1.39390  -1.19367  -1.08766  -1.08583
 Alpha  occ. eigenvalues --   -1.04778  -1.03718  -0.96202  -0.95580  -0.87221
 Alpha  occ. eigenvalues --   -0.86175  -0.82426  -0.79803  -0.78362  -0.77473
 Alpha  occ. eigenvalues --   -0.72036  -0.71159  -0.70472  -0.65232  -0.65020
 Alpha  occ. eigenvalues --   -0.64784  -0.62132  -0.61121  -0.59576  -0.57793
 Alpha  occ. eigenvalues --   -0.55492  -0.55273  -0.53205  -0.52890  -0.52871
 Alpha  occ. eigenvalues --   -0.52529  -0.50155  -0.48793  -0.48789  -0.48087
 Alpha  occ. eigenvalues --   -0.46831  -0.45896  -0.45824  -0.44799  -0.43956
 Alpha  occ. eigenvalues --   -0.37244  -0.36372
 Alpha virt. eigenvalues --    0.05071   0.11117   0.16543   0.20874   0.22738
 Alpha virt. eigenvalues --    0.24210   0.26038   0.26843   0.27290   0.27429
 Alpha virt. eigenvalues --    0.28934   0.30568   0.30875   0.31644   0.32123

 Mulliken charges:
               1
     1  C   -0.298287
     2  C   -0.299619
     3  C   -0.475930
     4  H    0.150258
     5  H    0.149627
     6  H    0.152653
     7  H    0.152750
     8  H    0.150860
     9  H    0.151178
    10  H    0.158724
    11  C   -0.298671
    12  C   -0.300184
    13  C   -0.476068
    14  H    0.149029
    15  H    0.149049
    16  H    0.154272
    17  H    0.153499
    18  H    0.154165
    19  H    0.154404
    20  H    0.163598
    21  C   -0.163058
    22  C   -0.221010
    23  C   -0.170406
    24  C    0.158772
    25  C   -0.170985
    26  C   -0.220826
    27  H    0.228149
    28  H    0.223111
    29  H    0.275534
    30  H    0.275500
    31  H    0.223118
    32  N    0.488254
    33  O   -0.460789
    34  O   -0.460670
 Sum of Mulliken charges =  -0.00000

 Dipole moment (field-independent basis, Debye):
    X=              1.1094    Y=              5.0187    Z=              0.1284  Tot=              5.1414
 Quadrupole moment (field-independent basis, Debye-Ang):
   XX=           -101.4304   YY=            -99.3879   ZZ=            -88.7433
   XY=            -12.0248   XZ=             -0.3812   YZ=             -0.1478

 Normal termination of Gaussian 16 at Thu May  6 09:02:45 2021.
