 Gaussian 16, Revision A.03,
 Gaussian 16:  EM64L-G16RevA.03 25-Dec-2016

 -------------
 #p 6-31g* mp2
 -------------

 ------------------------------------------------------
 Input file generated by CHIRIPA (05-May-2021 14:57:22)
 ------------------------------------------------------
 Symbolic Z-matrix:
 Charge =  0 Multiplicity = 1

                         Standard orientation:
 ---------------------------------------------------------------------
 Center     Atomic      Atomic             Coordinates (Angstroms)
 Number     Number       Type             X           Y           Z
 ---------------------------------------------------------------------
      1          6           0        3.543093    2.591704    0.335495
      2          6           0        2.479069    1.700005    0.506513
      3          6           0        2.666240    0.327146    0.320034
      4          6           0        3.936371   -0.121508   -0.038806
      5          6           0        5.016330    0.741828   -0.216651
      6          6           0        4.806101    2.110618   -0.024906
      7          1           0        3.388739    3.656593    0.482402
      8          1           0        1.497113    2.070787    0.786383
      9          1           0        1.860020   -0.385312    0.445853
     10          1           0        5.983727    0.342330   -0.495869
     11          1           0        5.634271    2.800803   -0.158410
     12          7           0        4.146725   -1.572738   -0.239011
     13          8           0        5.275392   -1.942774   -0.554955
     14          8           0        3.178950   -2.312698   -0.076195
     15          6           0       -1.552346   -0.962128    0.370977
     16          6           0       -1.767799    0.368676   -0.001932
     17          6           0       -3.065218    0.847443   -0.206957
     18          6           0       -4.128829   -0.036033   -0.029493
     19          6           0       -3.946566   -1.367328    0.341621
     20          6           0       -2.640498   -1.824362    0.541263
     21          1           0       -0.541121   -1.325604    0.528155
     22          1           0       -0.924626    1.040556   -0.134900
     23          1           0       -3.260601    1.872958   -0.496026
     24          1           0       -4.807103   -2.013302    0.466564
     25          1           0       -2.476171   -2.858380    0.830830
     26          7           0       -5.506925    0.459312   -0.243695
     27          8           0       -6.427065   -0.339115   -0.080927
     28          8           0       -5.640843    1.636611   -0.570297
 ---------------------------------------------------------------------

 SCF Done:  E(RHF) =  -868.337008422     A.U. after   16 cycles
 E2 =    -0.2600111688D+01 EUMP2 =    -0.87093712010987D+03

 The electronic state is 1-A.
 Alpha  occ. eigenvalues --  -20.61648 -20.61615 -20.60984 -20.60973 -15.86690
 Alpha  occ. eigenvalues --  -15.86038 -11.32106 -11.31458 -11.28819 -11.28609
 Alpha  occ. eigenvalues --  -11.28375 -11.28099 -11.28000 -11.27829 -11.27777
 Alpha  occ. eigenvalues --  -11.27607 -11.27198 -11.26991  -1.60701  -1.60055
 Alpha  occ. eigenvalues --   -1.40259  -1.39607  -1.20274  -1.19648  -1.09642
 Alpha  occ. eigenvalues --   -1.09039  -1.05707  -1.05068  -0.96480  -0.95860
 Alpha  occ. eigenvalues --   -0.87092  -0.86473  -0.83328  -0.82696  -0.78392
 Alpha  occ. eigenvalues --   -0.77725  -0.72911  -0.72257  -0.72020  -0.71412
 Alpha  occ. eigenvalues --   -0.71379  -0.70744  -0.65936  -0.65723  -0.65312
 Alpha  occ. eigenvalues --   -0.65111  -0.63079  -0.62393  -0.56167  -0.55588
 Alpha  occ. eigenvalues --   -0.53996  -0.53797  -0.53379  -0.53155  -0.49678
 Alpha  occ. eigenvalues --   -0.49651  -0.49020  -0.49006  -0.45653  -0.45001
 Alpha  occ. eigenvalues --   -0.38213  -0.37630  -0.37299  -0.36665
 Alpha virt. eigenvalues --    0.04178   0.04825   0.10353   0.10965   0.15585
 Alpha virt. eigenvalues --    0.16292   0.17260   0.22261   0.24185   0.24867
 Alpha virt. eigenvalues --    0.27737   0.28875   0.30603   0.31363   0.33326

 Mulliken charges:
               1
     1  C   -0.169473
     2  C   -0.223876
     3  C   -0.174915
     4  C    0.159085
     5  C   -0.168497
     6  C   -0.218170
     7  H    0.229292
     8  H    0.221251
     9  H    0.273104
    10  H    0.278620
    11  H    0.227277
    12  N    0.487733
    13  O   -0.455668
    14  O   -0.465178
    15  C   -0.176410
    16  C   -0.222818
    17  C   -0.170509
    18  C    0.158707
    19  C   -0.169910
    20  C   -0.218664
    21  H    0.233482
    22  H    0.215663
    23  H    0.275072
    24  H    0.277368
    25  H    0.229069
    26  N    0.488054
    27  O   -0.458852
    28  O   -0.460837
 Sum of Mulliken charges =  -0.00000

 Dipole moment (field-independent basis, Debye):
    X=              4.2987    Y=              3.3251    Z=              1.4398  Tot=              5.6221
 Quadrupole moment (field-independent basis, Debye-Ang):
   XX=           -143.8897   YY=           -101.8548   ZZ=           -106.1224
   XY=             31.0291   XZ=             -2.2945   YZ=             -1.6818

 Normal termination of Gaussian 16 at Fri May  7 00:15:05 2021.
