 Gaussian 16, Revision A.03,
 Gaussian 16:  EM64L-G16RevA.03 25-Dec-2016

 -------------
 #p 6-31g* mp2
 -------------

 ------------------------------------------------------
 Input file generated by CHIRIPA (05-May-2021 14:51:12)
 ------------------------------------------------------
 Symbolic Z-matrix:
 Charge =  0 Multiplicity = 1

                         Standard orientation:
 ---------------------------------------------------------------------
 Center     Atomic      Atomic             Coordinates (Angstroms)
 Number     Number       Type             X           Y           Z
 ---------------------------------------------------------------------
      1          6           0        4.291336    0.544632   -0.100366
      2          6           0        3.888029    1.969725    0.279688
      3          6           0        5.090769    2.896629    0.458734
      4          1           0        4.956142    0.139448    0.674750
      5          1           0        4.875895    0.572125   -1.030382
      6          1           0        3.303228    1.939416    1.207968
      7          1           0        3.223952    2.371494   -0.496327
      8          1           0        5.672113    2.956582   -0.467034
      9          1           0        5.751839    2.522048    1.246945
     10          1           0        4.779595    3.910212    0.730175
     11          6           0        3.099868   -0.393888   -0.282881
     12          6           0        3.503175   -1.818980   -0.662935
     13          6           0        2.300435   -2.745885   -0.841981
     14          1           0        2.515309   -0.421380    0.647135
     15          1           0        2.435062    0.011296   -1.057997
     16          1           0        4.167251   -2.220750    0.113080
     17          1           0        4.087976   -1.788671   -1.591215
     18          1           0        1.639365   -2.371304   -1.630192
     19          1           0        1.719091   -2.805837    0.083787
     20          1           0        2.611609   -3.759468   -1.113422
     21          6           0       -3.970205    0.472275   -0.264565
     22          6           0       -5.432206    0.819986    0.017631
     23          6           0       -5.967229    1.917193   -0.903065
     24          1           0       -3.356853    1.377006   -0.154087
     25          1           0       -3.871813    0.153880   -1.311627
     26          1           0       -5.528049    1.136307    1.064230
     27          1           0       -6.042122   -0.085720   -0.093345
     28          1           0       -5.900632    1.607193   -1.950951
     29          1           0       -5.383638    2.836163   -0.786799
     30          1           0       -7.013968    2.150036   -0.684022
     31          6           0       -3.420999   -0.623019    0.647812
     32          6           0       -1.958998   -0.970731    0.365616
     33          6           0       -1.423975   -2.067938    1.286312
     34          1           0       -3.519389   -0.304625    1.694874
     35          1           0       -4.034351   -1.527750    0.537334
     36          1           0       -1.349081   -0.065025    0.476592
     37          1           0       -1.863154   -1.287051   -0.680983
     38          1           0       -2.007565   -2.986908    1.170047
     39          1           0       -1.490571   -1.757938    2.334198
     40          1           0       -0.377235   -2.300781    1.067268
 ---------------------------------------------------------------------

 SCF Done:  E(RHF) =  -470.733313891     A.U. after   11 cycles
 E2 =    -0.1582507471D+01 EUMP2 =    -0.47231582136187D+03

 The electronic state is 1-A.
 Alpha  occ. eigenvalues --  -11.21617 -11.21611 -11.21585 -11.21553 -11.21415
 Alpha  occ. eigenvalues --  -11.21378 -11.21356 -11.21318 -11.21089 -11.21079
 Alpha  occ. eigenvalues --  -11.21059 -11.21007  -1.08443  -1.08399  -1.03551
 Alpha  occ. eigenvalues --   -1.03491  -0.96012  -0.95933  -0.87040  -0.86941
 Alpha  occ. eigenvalues --   -0.79619  -0.79549  -0.78256  -0.78210  -0.65074
 Alpha  occ. eigenvalues --   -0.65029  -0.60960  -0.60893  -0.59445  -0.59265
 Alpha  occ. eigenvalues --   -0.57720  -0.57450  -0.55290  -0.55234  -0.52776
 Alpha  occ. eigenvalues --   -0.52685  -0.52451  -0.52225  -0.49931  -0.49886
 Alpha  occ. eigenvalues --   -0.47991  -0.47798  -0.46634  -0.46590  -0.45798
 Alpha  occ. eigenvalues --   -0.45752  -0.45714  -0.45676  -0.43799  -0.43727
 Alpha virt. eigenvalues --    0.21484   0.23094   0.23421   0.25033   0.26150
 Alpha virt. eigenvalues --    0.26579   0.26894   0.27482   0.27852   0.28998
 Alpha virt. eigenvalues --    0.30039   0.31374   0.31613   0.31936   0.32090

 Mulliken charges:
               1
     1  C   -0.298303
     2  C   -0.299678
     3  C   -0.475711
     4  H    0.149689
     5  H    0.149625
     6  H    0.151852
     7  H    0.151977
     8  H    0.155225
     9  H    0.155212
    10  H    0.160232
    11  C   -0.298803
    12  C   -0.299511
    13  C   -0.481455
    14  H    0.149661
    15  H    0.150053
    16  H    0.151973
    17  H    0.152057
    18  H    0.155653
    19  H    0.160413
    20  H    0.160667
    21  C   -0.298211
    22  C   -0.299615
    23  C   -0.475686
    24  H    0.149618
    25  H    0.149408
    26  H    0.151887
    27  H    0.151925
    28  H    0.155127
    29  H    0.155136
    30  H    0.160198
    31  C   -0.298452
    32  C   -0.298838
    33  C   -0.482694
    34  H    0.149358
    35  H    0.149585
    36  H    0.152204
    37  H    0.151989
    38  H    0.155160
    39  H    0.154452
    40  H    0.166621
 Sum of Mulliken charges =  -0.00000

 Dipole moment (field-independent basis, Debye):
    X=              0.0246    Y=             -0.0060    Z=             -0.0127  Tot=              0.0283
 Quadrupole moment (field-independent basis, Debye-Ang):
   XX=            -85.6133   YY=            -85.4458   ZZ=            -83.7261
   XY=             -0.0056   XZ=             -0.1711   YZ=              0.5862

 Normal termination of Gaussian 16 at Thu May  6 00:43:41 2021.
