 Gaussian 16, Revision A.03,
 Gaussian 16:  EM64L-G16RevA.03 25-Dec-2016

 -------------
 #p 6-31g* mp2
 -------------

 ------------------------------------------------------
 Input file generated by CHIRIPA (05-May-2021 14:53:12)
 ------------------------------------------------------
 Symbolic Z-matrix:
 Charge =  0 Multiplicity = 1

                         Standard orientation:
 ---------------------------------------------------------------------
 Center     Atomic      Atomic             Coordinates (Angstroms)
 Number     Number       Type             X           Y           Z
 ---------------------------------------------------------------------
      1          6           0       -3.599395    0.793514   -0.275317
      2          6           0       -2.491143    1.525184    0.482590
      3          6           0       -2.330167    2.978777    0.036554
      4          1           0       -3.382080    0.826334   -1.351719
      5          1           0       -4.547853    1.329352   -0.131446
      6          1           0       -1.545322    0.987350    0.338465
      7          1           0       -2.711023    1.490453    1.557328
      8          1           0       -3.259040    3.535839    0.196172
      9          1           0       -2.086716    3.029877   -1.029617
     10          1           0       -1.532638    3.482936    0.591199
     11          6           0       -3.772455   -0.660714    0.159424
     12          6           0       -4.880707   -1.392384   -0.598483
     13          6           0       -5.041683   -2.845977   -0.152447
     14          1           0       -2.823997   -1.196552    0.015553
     15          1           0       -3.989770   -0.693534    1.235826
     16          1           0       -4.660827   -1.357653   -1.673221
     17          1           0       -5.826528   -0.854550   -0.454357
     18          1           0       -5.285134   -2.897078    0.913724
     19          1           0       -4.112810   -3.403039   -0.312065
     20          1           0       -5.839212   -3.350136   -0.707092
     21          6           0        4.148540   -2.231781   -0.016347
     22          6           0        3.186159   -2.009777    0.974136
     23          6           0        2.477026   -0.805717    1.017924
     24          6           0        2.756956    0.158871    0.051227
     25          6           0        3.709793   -0.032556   -0.948145
     26          6           0        4.406830   -1.244204   -0.972641
     27          1           0        4.694712   -3.170072   -0.042870
     28          1           0        2.983477   -2.774953    1.718093
     29          1           0        1.726684   -0.607589    1.773668
     30          1           0        3.889823    0.749076   -1.676195
     31          1           0        5.153672   -1.413862   -1.743022
     32          7           0        2.012632    1.437572    0.087371
     33          8           0        2.277834    2.271443   -0.775739
     34          8           0        1.178121    1.581732    0.978129
 ---------------------------------------------------------------------

 SCF Done:  E(RHF) =  -669.536174229     A.U. after   15 cycles
 E2 =    -0.2091317246D+01 EUMP2 =    -0.67162749147563D+03

 The electronic state is 1-A.
 Alpha  occ. eigenvalues --  -20.60991 -20.60972 -15.85998 -11.31313 -11.27874
 Alpha  occ. eigenvalues --  -11.27869 -11.27609 -11.26879 -11.26869 -11.21203
 Alpha  occ. eigenvalues --  -11.20836 -11.20821 -11.20522 -11.20284 -11.19591
 Alpha  occ. eigenvalues --   -1.60035  -1.39592  -1.19480  -1.08887  -1.07691
 Alpha  occ. eigenvalues --   -1.04874  -1.02681  -0.95731  -0.95151  -0.86275
 Alpha  occ. eigenvalues --   -0.86181  -0.82563  -0.78816  -0.77631  -0.77412
 Alpha  occ. eigenvalues --   -0.72221  -0.71348  -0.70587  -0.65136  -0.64876
 Alpha  occ. eigenvalues --   -0.64336  -0.62220  -0.60089  -0.58584  -0.56707
 Alpha  occ. eigenvalues --   -0.55378  -0.54475  -0.53206  -0.52964  -0.51812
 Alpha  occ. eigenvalues --   -0.51584  -0.49152  -0.48983  -0.48962  -0.47109
 Alpha  occ. eigenvalues --   -0.45921  -0.45260  -0.44962  -0.44542  -0.42939
 Alpha  occ. eigenvalues --   -0.37458  -0.36475
 Alpha virt. eigenvalues --    0.04879   0.11177   0.16351   0.21296   0.23497
 Alpha virt. eigenvalues --    0.25195   0.27110   0.27367   0.27918   0.28492
 Alpha virt. eigenvalues --    0.28831   0.30811   0.32019   0.32263   0.32750

 Mulliken charges:
               1
     1  C   -0.298250
     2  C   -0.299721
     3  C   -0.475693
     4  H    0.147406
     5  H    0.146695
     6  H    0.160983
     7  H    0.147091
     8  H    0.145948
     9  H    0.152852
    10  H    0.175556
    11  C   -0.296553
    12  C   -0.298798
    13  C   -0.475011
    14  H    0.145571
    15  H    0.148028
    16  H    0.151110
    17  H    0.151811
    18  H    0.154280
    19  H    0.152615
    20  H    0.158879
    21  C   -0.170577
    22  C   -0.218555
    23  C   -0.171173
    24  C    0.157952
    25  C   -0.170835
    26  C   -0.218582
    27  H    0.226101
    28  H    0.224064
    29  H    0.276304
    30  H    0.275868
    31  H    0.223886
    32  N    0.488149
    33  O   -0.458571
    34  O   -0.458829
 Sum of Mulliken charges =  -0.00000

 Dipole moment (field-independent basis, Debye):
    X=              2.9505    Y=             -4.4110    Z=             -0.0920  Tot=              5.3076
 Quadrupole moment (field-independent basis, Debye-Ang):
   XX=            -80.1595   YY=            -97.3541   ZZ=            -91.4266
   XY=            -11.8534   XZ=             -3.1525   YZ=             -1.2582

 Normal termination of Gaussian 16 at Thu May  6 08:54:02 2021.
