 Gaussian 16, Revision A.03,
 Gaussian 16:  EM64L-G16RevA.03 25-Dec-2016

 -------------
 #p 6-31g* mp2
 -------------

 ------------------------------------------------------
 Input file generated by CHIRIPA (05-May-2021 14:53:11)
 ------------------------------------------------------
 Symbolic Z-matrix:
 Charge =  0 Multiplicity = 1

                         Standard orientation:
 ---------------------------------------------------------------------
 Center     Atomic      Atomic             Coordinates (Angstroms)
 Number     Number       Type             X           Y           Z
 ---------------------------------------------------------------------
      1          6           0       -5.580167   -0.401154   -0.306564
      2          6           0       -6.385644    0.897018   -0.369357
      3          6           0       -7.746230    0.716508   -1.043164
      4          1           0       -5.438081   -0.786690   -1.325445
      5          1           0       -6.161499   -1.159295    0.236270
      6          1           0       -5.802384    1.652902   -0.910710
      7          1           0       -6.525664    1.279609    0.649777
      8          1           0       -8.350352   -0.017916   -0.500707
      9          1           0       -7.622963    0.357497   -2.070061
     10          1           0       -8.305225    1.656836   -1.077315
     11          6           0       -4.217576   -0.236810    0.364305
     12          6           0       -3.412098   -1.534981    0.427098
     13          6           0       -2.051512   -1.354472    1.100905
     14          1           0       -3.636243    0.521331   -0.178529
     15          1           0       -4.359661    0.148726    1.383186
     16          1           0       -3.272078   -1.917573   -0.592036
     17          1           0       -3.995358   -2.290866    0.968451
     18          1           0       -2.174779   -0.995461    2.127802
     19          1           0       -1.447390   -0.620047    0.558449
     20          1           0       -1.492517   -2.294800    1.135056
     21          6           0        1.906071    1.674539    0.779594
     22          6           0        3.097702    2.276482    0.362217
     23          6           0        4.168721    1.496609   -0.084172
     24          6           0        4.012975    0.111408   -0.100104
     25          6           0        2.838423   -0.517930    0.309348
     26          6           0        1.780457    0.281710    0.751876
     27          1           0        1.079148    2.288042    1.124861
     28          1           0        3.198085    3.357939    0.382663
     29          1           0        5.102446    1.936487   -0.412930
     30          1           0        2.768170   -1.598426    0.277579
     31          1           0        0.856195   -0.188505    1.075426
     32          7           0        5.139906   -0.724672   -0.570633
     33          8           0        4.977522   -1.942969   -0.575055
     34          8           0        6.164238   -0.145862   -0.926102
 ---------------------------------------------------------------------

 SCF Done:  E(RHF) =  -669.535623665     A.U. after   15 cycles
 E2 =    -0.2090779502D+01 EUMP2 =    -0.67162640316749D+03

 The electronic state is 1-A.
 Alpha  occ. eigenvalues --  -20.60715 -20.60710 -15.85767 -11.31121 -11.27691
 Alpha  occ. eigenvalues --  -11.27672 -11.27422 -11.26708 -11.26630 -11.22390
 Alpha  occ. eigenvalues --  -11.22179 -11.22078 -11.22069 -11.21903 -11.21453
 Alpha  occ. eigenvalues --   -1.59791  -1.39345  -1.19288  -1.09067  -1.08687
 Alpha  occ. eigenvalues --   -1.04687  -1.04198  -0.96677  -0.95525  -0.87709
 Alpha  occ. eigenvalues --   -0.86084  -0.82355  -0.80278  -0.78854  -0.77403
 Alpha  occ. eigenvalues --   -0.71986  -0.71114  -0.70401  -0.65699  -0.64938
 Alpha  occ. eigenvalues --   -0.64702  -0.62079  -0.61558  -0.60046  -0.58262
 Alpha  occ. eigenvalues --   -0.55981  -0.55188  -0.53416  -0.53173  -0.53018
 Alpha  occ. eigenvalues --   -0.52668  -0.50596  -0.48757  -0.48742  -0.48563
 Alpha  occ. eigenvalues --   -0.47279  -0.46403  -0.46303  -0.44753  -0.44439
 Alpha  occ. eigenvalues --   -0.37273  -0.36288
 Alpha virt. eigenvalues --    0.05125   0.11312   0.16608   0.20669   0.22334
 Alpha virt. eigenvalues --    0.23767   0.25520   0.26114   0.26973   0.28233
 Alpha virt. eigenvalues --    0.28692   0.30323   0.30858   0.30992   0.31866

 Mulliken charges:
               1
     1  C   -0.298897
     2  C   -0.299997
     3  C   -0.476056
     4  H    0.151282
     5  H    0.151037
     6  H    0.151647
     7  H    0.151960
     8  H    0.156043
     9  H    0.156137
    10  H    0.161239
    11  C   -0.299030
    12  C   -0.299603
    13  C   -0.482463
    14  H    0.148194
    15  H    0.149585
    16  H    0.155499
    17  H    0.155670
    18  H    0.156701
    19  H    0.148940
    20  H    0.162877
    21  C   -0.173133
    22  C   -0.218427
    23  C   -0.171370
    24  C    0.158837
    25  C   -0.172960
    26  C   -0.226993
    27  H    0.225513
    28  H    0.223028
    29  H    0.275302
    30  H    0.275671
    31  H    0.236971
    32  N    0.488058
    33  O   -0.460550
    34  O   -0.460713
 Sum of Mulliken charges =  -0.00000

 Dipole moment (field-independent basis, Debye):
    X=             -4.2044    Y=              2.8982    Z=              1.6482  Tot=              5.3659
 Quadrupole moment (field-independent basis, Debye-Ang):
   XX=           -125.7854   YY=            -90.7457   ZZ=            -95.1993
   XY=             14.3308   XZ=              5.7853   YZ=             -1.0569

 Normal termination of Gaussian 16 at Thu May  6 00:52:38 2021.
