 Gaussian 16, Revision A.03,
 Gaussian 16:  EM64L-G16RevA.03 25-Dec-2016

 -------------
 #p 6-31g* mp2
 -------------

 ------------------------------------------------------
 Input file generated by CHIRIPA (05-May-2021 14:55:19)
 ------------------------------------------------------
 Symbolic Z-matrix:
 Charge =  0 Multiplicity = 1

                         Standard orientation:
 ---------------------------------------------------------------------
 Center     Atomic      Atomic             Coordinates (Angstroms)
 Number     Number       Type             X           Y           Z
 ---------------------------------------------------------------------
      1          6           0       -5.502788   -1.108139   -0.846292
      2          6           0       -5.576288    0.288649   -0.836208
      3          6           0       -4.496730    1.053202   -0.383923
      4          6           0       -3.353964    0.385121    0.053161
      5          6           0       -3.250274   -1.005035    0.055308
      6          6           0       -4.342062   -1.749393   -0.401287
      7          1           0       -6.346165   -1.694218   -1.199312
      8          1           0       -6.476457    0.789354   -1.181224
      9          1           0       -4.526755    2.135871   -0.365356
     10          1           0       -2.339596   -1.475720    0.405364
     11          1           0       -4.282164   -2.834018   -0.407990
     12          7           0       -2.204610    1.183829    0.534256
     13          8           0       -1.209098    0.571237    0.914154
     14          8           0       -2.321023    2.407326    0.522330
     15          6           0        5.201339    0.031381    0.149727
     16          6           0        6.080921    0.095394   -1.099363
     17          6           0        7.409472    0.810224   -0.850839
     18          1           0        5.008829    1.052086    0.507563
     19          1           0        5.750888   -0.482212    0.950734
     20          1           0        5.529355    0.607490   -1.898204
     21          1           0        6.271201   -0.925573   -1.454378
     22          1           0        7.983167    0.297259   -0.072159
     23          1           0        7.237107    1.839033   -0.518507
     24          1           0        8.022505    0.844574   -1.756857
     25          6           0        3.869742   -0.680302   -0.082835
     26          6           0        2.990160   -0.744314    1.166254
     27          6           0        1.661609   -1.459145    0.917731
     28          1           0        3.320194   -0.166708   -0.883842
     29          1           0        4.062251   -1.701006   -0.440671
     30          1           0        2.799880    0.276653    1.521269
     31          1           0        3.541725   -1.256411    1.965096
     32          1           0        1.833974   -2.487952    0.585399
     33          1           0        1.087914   -0.946179    0.139052
     34          1           0        1.048575   -1.493495    1.823749
 ---------------------------------------------------------------------

 SCF Done:  E(RHF) =  -669.535793659     A.U. after   15 cycles
 E2 =    -0.2090934175D+01 EUMP2 =    -0.67162672783369D+03

 The electronic state is 1-A.
 Alpha  occ. eigenvalues --  -20.60868 -20.60856 -15.85902 -11.31239 -11.27809
 Alpha  occ. eigenvalues --  -11.27795 -11.27550 -11.26819 -11.26807 -11.21074
 Alpha  occ. eigenvalues --  -11.20730 -11.20630 -11.20618 -11.20571 -11.19906
 Alpha  occ. eigenvalues --   -1.59936  -1.39491  -1.19412  -1.08815  -1.07694
 Alpha  occ. eigenvalues --   -1.04809  -1.02751  -0.95660  -0.95198  -0.86232
 Alpha  occ. eigenvalues --   -0.86207  -0.82486  -0.78848  -0.77561  -0.77468
 Alpha  occ. eigenvalues --   -0.72132  -0.71254  -0.70520  -0.65069  -0.64812
 Alpha  occ. eigenvalues --   -0.64318  -0.62155  -0.60129  -0.58597  -0.56811
 Alpha  occ. eigenvalues --   -0.55315  -0.54476  -0.53142  -0.52901  -0.51892
 Alpha  occ. eigenvalues --   -0.51645  -0.49200  -0.48885  -0.48825  -0.47161
 Alpha  occ. eigenvalues --   -0.45881  -0.45071  -0.44986  -0.44792  -0.43017
 Alpha  occ. eigenvalues --   -0.37394  -0.36412
 Alpha virt. eigenvalues --    0.04969   0.11241   0.16448   0.21263   0.23586
 Alpha virt. eigenvalues --    0.24992   0.26866   0.27398   0.27751   0.28222
 Alpha virt. eigenvalues --    0.29142   0.30791   0.31800   0.32339   0.32733

 Mulliken charges:
               1
     1  C   -0.170635
     2  C   -0.218636
     3  C   -0.170910
     4  C    0.157675
     5  C   -0.171649
     6  C   -0.218722
     7  H    0.225791
     8  H    0.223581
     9  H    0.275614
    10  H    0.277661
    11  H    0.223895
    12  N    0.491572
    13  O   -0.462783
    14  O   -0.459979
    15  C   -0.298072
    16  C   -0.299122
    17  C   -0.475376
    18  H    0.151335
    19  H    0.147744
    20  H    0.151790
    21  H    0.150040
    22  H    0.154221
    23  H    0.155567
    24  H    0.158428
    25  C   -0.298166
    26  C   -0.299901
    27  C   -0.475156
    28  H    0.150594
    29  H    0.145522
    30  H    0.159801
    31  H    0.146657
    32  H    0.142401
    33  H    0.166671
    34  H    0.162550
 Sum of Mulliken charges =  -0.00000

 Dipole moment (field-independent basis, Debye):
    X=             -4.2798    Y=             -2.6909    Z=             -1.6668  Tot=              5.3231
 Quadrupole moment (field-independent basis, Debye-Ang):
   XX=            -68.4748   YY=            -93.3411   ZZ=            -95.6347
   XY=              5.1080   XZ=              6.3667   YZ=             -1.8004

 Normal termination of Gaussian 16 at Thu May  6 15:44:06 2021.
