 Gaussian 16, Revision A.03,
 Gaussian 16:  EM64L-G16RevA.03 25-Dec-2016

 -------------
 #p 6-31g* mp2
 -------------

 ------------------------------------------------------
 Input file generated by CHIRIPA (05-May-2021 14:57:25)
 ------------------------------------------------------
 Symbolic Z-matrix:
 Charge =  0 Multiplicity = 1

                         Standard orientation:
 ---------------------------------------------------------------------
 Center     Atomic      Atomic             Coordinates (Angstroms)
 Number     Number       Type             X           Y           Z
 ---------------------------------------------------------------------
      1          6           0        1.369867    2.824097    0.487483
      2          6           0        2.178314    1.936203    1.204825
      3          6           0        2.393503    0.636197    0.737679
      4          6           0        1.781970    0.255722   -0.455868
      5          6           0        0.971162    1.117200   -1.193252
      6          6           0        0.769929    2.412487   -0.707160
      7          1           0        1.208124    3.832140    0.857732
      8          1           0        2.645511    2.253125    2.132906
      9          1           0        3.014671   -0.071608    1.273011
     10          1           0        0.518886    0.772408   -2.115198
     11          1           0        0.141585    3.099895   -1.266355
     12          7           0        2.002393   -1.118038   -0.960443
     13          8           0        1.452277   -1.428865   -2.014671
     14          8           0        2.721104   -1.857953   -0.292147
     15          6           0       -0.416074   -2.338519    1.446025
     16          6           0       -0.490441   -1.084598    2.061389
     17          6           0       -1.224216   -0.048681    1.475729
     18          6           0       -1.874179   -0.302666    0.268944
     19          6           0       -1.819066   -1.541100   -0.368657
     20          6           0       -1.079454   -2.562373    0.235101
     21          1           0        0.156207   -3.137557    1.908010
     22          1           0        0.023733   -0.907888    3.001837
     23          1           0       -1.298538    0.931661    1.930507
     24          1           0       -2.342321   -1.687088   -1.305838
     25          1           0       -1.023455   -3.535178   -0.245065
     26          7           0       -2.654084    0.786262   -0.360648
     27          8           0       -3.217667    0.537033   -1.424084
     28          8           0       -2.687021    1.868373    0.221235
 ---------------------------------------------------------------------

 SCF Done:  E(RHF) =  -868.338485502     A.U. after   16 cycles
 E2 =    -0.2609186398D+01 EUMP2 =    -0.87094767190053D+03

 The electronic state is 1-A.
 Alpha  occ. eigenvalues --  -20.61084 -20.61055 -20.60967 -20.60950 -15.86075
 Alpha  occ. eigenvalues --  -15.85969 -11.31210 -11.30967 -11.27859 -11.27701
 Alpha  occ. eigenvalues --  -11.27541 -11.27480 -11.27480 -11.27159 -11.26859
 Alpha  occ. eigenvalues --  -11.26637 -11.26516 -11.26351  -1.60122  -1.60036
 Alpha  occ. eigenvalues --   -1.39691  -1.39595  -1.19477  -1.19110  -1.08829
 Alpha  occ. eigenvalues --   -1.08609  -1.04803  -1.04492  -0.95709  -0.95486
 Alpha  occ. eigenvalues --   -0.86181  -0.85898  -0.82558  -0.82325  -0.77636
 Alpha  occ. eigenvalues --   -0.77421  -0.72346  -0.72211  -0.71566  -0.71286
 Alpha  occ. eigenvalues --   -0.70505  -0.70202  -0.65061  -0.64790  -0.64756
 Alpha  occ. eigenvalues --   -0.64479  -0.62132  -0.61845  -0.55272  -0.54964
 Alpha  occ. eigenvalues --   -0.54008  -0.52854  -0.52568  -0.51992  -0.49106
 Alpha  occ. eigenvalues --   -0.49073  -0.48985  -0.48936  -0.45207  -0.45074
 Alpha  occ. eigenvalues --   -0.37645  -0.37442  -0.36115  -0.35580
 Alpha virt. eigenvalues --    0.04829   0.05077   0.11081   0.11737   0.16403
 Alpha virt. eigenvalues --    0.16674   0.21265   0.21945   0.27096   0.27815
 Alpha virt. eigenvalues --    0.28258   0.28746   0.31045   0.31339   0.32507

 Mulliken charges:
               1
     1  C   -0.172169
     2  C   -0.224221
     3  C   -0.172026
     4  C    0.167664
     5  C   -0.181900
     6  C   -0.213877
     7  H    0.229004
     8  H    0.221082
     9  H    0.270182
    10  H    0.278903
    11  H    0.235810
    12  N    0.490344
    13  O   -0.460709
    14  O   -0.466799
    15  C   -0.170690
    16  C   -0.222460
    17  C   -0.165576
    18  C    0.153075
    19  C   -0.168695
    20  C   -0.215670
    21  H    0.231587
    22  H    0.218899
    23  H    0.270199
    24  H    0.276803
    25  H    0.231296
    26  N    0.487050
    27  O   -0.460933
    28  O   -0.466173
 Sum of Mulliken charges =  -0.00000

 Dipole moment (field-independent basis, Debye):
    X=              1.9293    Y=              0.9074    Z=              3.8240  Tot=              4.3782
 Quadrupole moment (field-independent basis, Debye-Ang):
   XX=           -118.0130   YY=            -97.8323   ZZ=           -100.0542
   XY=             15.4068   XZ=              3.8704   YZ=             -1.9564

 Normal termination of Gaussian 16 at Fri May  7 03:29:52 2021.
