 Gaussian 16, Revision A.03,
 Gaussian 16:  EM64L-G16RevA.03 25-Dec-2016

 -------------
 #p 6-31g* mp2
 -------------

 ------------------------------------------------------
 Input file generated by CHIRIPA (05-May-2021 14:57:22)
 ------------------------------------------------------
 Symbolic Z-matrix:
 Charge =  0 Multiplicity = 1

                         Standard orientation:
 ---------------------------------------------------------------------
 Center     Atomic      Atomic             Coordinates (Angstroms)
 Number     Number       Type             X           Y           Z
 ---------------------------------------------------------------------
      1          6           0        3.623022    2.465932   -0.333370
      2          6           0        4.304791    1.464783   -1.032951
      3          6           0        4.045996    0.115536   -0.773900
      4          6           0        3.094809   -0.198156    0.195703
      5          6           0        2.399043    0.776388    0.909470
      6          6           0        2.673997    2.119151    0.633902
      7          1           0        3.830337    3.511540   -0.541022
      8          1           0        5.042339    1.731155   -1.784691
      9          1           0        4.559236   -0.679748   -1.300706
     10          1           0        1.669325    0.479850    1.653106
     11          1           0        2.143000    2.894536    1.178756
     12          7           0        2.812281   -1.623110    0.478691
     13          8           0        1.969635   -1.873297    1.337755
     14          8           0        3.438831   -2.462822   -0.163926
     15          6           0       -2.330358   -2.399452   -0.503397
     16          6           0       -1.427500   -1.332861   -0.564666
     17          6           0       -1.865695   -0.019619   -0.369916
     18          6           0       -3.219779    0.191729   -0.114807
     19          6           0       -4.143778   -0.849905   -0.047605
     20          6           0       -3.683230   -2.155000   -0.245517
     21          1           0       -1.981276   -3.416446   -0.655913
     22          1           0       -0.376270   -1.519727   -0.764770
     23          1           0       -1.188315    0.824662   -0.411912
     24          1           0       -5.185668   -0.632242    0.153649
     25          1           0       -4.386664   -2.981383   -0.197365
     26          7           0       -3.695508    1.577688    0.093040
     27          8           0       -4.893546    1.737387    0.316289
     28          8           0       -2.861340    2.478059    0.028765
 ---------------------------------------------------------------------

 SCF Done:  E(RHF) =  -868.339656264     A.U. after   16 cycles
 E2 =    -0.2599266249D+01 EUMP2 =    -0.87093892251348D+03

 The electronic state is 1-A.
 Alpha  occ. eigenvalues --  -20.61580 -20.61575 -20.60691 -20.60667 -15.86603
 Alpha  occ. eigenvalues --  -15.85728 -11.31767 -11.30895 -11.28285 -11.28273
 Alpha  occ. eigenvalues --  -11.27929 -11.27429 -11.27423 -11.27236 -11.27190
 Alpha  occ. eigenvalues --  -11.27035 -11.26391 -11.26313  -1.60666  -1.59760
 Alpha  occ. eigenvalues --   -1.40216  -1.39321  -1.19902  -1.19024  -1.09326
 Alpha  occ. eigenvalues --   -1.08436  -1.05252  -1.04398  -0.96195  -0.95316
 Alpha  occ. eigenvalues --   -0.86653  -0.85791  -0.83018  -0.82162  -0.78108
 Alpha  occ. eigenvalues --   -0.77254  -0.72810  -0.72012  -0.71950  -0.71078
 Alpha  occ. eigenvalues --   -0.70966  -0.70100  -0.65534  -0.65217  -0.64668
 Alpha  occ. eigenvalues --   -0.64372  -0.62589  -0.61755  -0.55724  -0.54847
 Alpha  occ. eigenvalues --   -0.53614  -0.53312  -0.52728  -0.52479  -0.49592
 Alpha  occ. eigenvalues --   -0.49561  -0.48721  -0.48685  -0.45643  -0.44772
 Alpha  occ. eigenvalues --   -0.37859  -0.36953  -0.36858  -0.35988
 Alpha virt. eigenvalues --    0.04358   0.05271   0.10767   0.11670   0.15911
 Alpha virt. eigenvalues --    0.16836   0.20966   0.21808   0.26692   0.27337
 Alpha virt. eigenvalues --    0.28077   0.28814   0.30509   0.31363   0.32155

 Mulliken charges:
               1
     1  C   -0.169763
     2  C   -0.218182
     3  C   -0.171601
     4  C    0.153991
     5  C   -0.178025
     6  C   -0.218600
     7  H    0.229823
     8  H    0.225747
     9  H    0.275938
    10  H    0.277785
    11  H    0.231217
    12  N    0.485033
    13  O   -0.461265
    14  O   -0.458861
    15  C   -0.170203
    16  C   -0.212026
    17  C   -0.175462
    18  C    0.158663
    19  C   -0.172007
    20  C   -0.218575
    21  H    0.230652
    22  H    0.227248
    23  H    0.269172
    24  H    0.274007
    25  H    0.223082
    26  N    0.488439
    27  O   -0.460420
    28  O   -0.465805
 Sum of Mulliken charges =  -0.00000

 Dipole moment (field-independent basis, Debye):
    X=              2.9148    Y=              0.1156    Z=             -1.7266  Tot=              3.3898
 Quadrupole moment (field-independent basis, Debye-Ang):
   XX=           -103.0988   YY=           -108.1892   ZZ=           -103.8158
   XY=             33.3658   XZ=             -4.2417   YZ=              2.5127

 Normal termination of Gaussian 16 at Fri May  7 06:23:49 2021.
