 Gaussian 16, Revision A.03,
 Gaussian 16:  EM64L-G16RevA.03 25-Dec-2016

 -------------
 #p 6-31g* mp2
 -------------

 ------------------------------------------------------
 Input file generated by CHIRIPA (05-May-2021 14:51:12)
 ------------------------------------------------------
 Symbolic Z-matrix:
 Charge =  0 Multiplicity = 1

                         Standard orientation:
 ---------------------------------------------------------------------
 Center     Atomic      Atomic             Coordinates (Angstroms)
 Number     Number       Type             X           Y           Z
 ---------------------------------------------------------------------
      1          6           0        2.567989    1.307549    0.170449
      2          6           0        1.242186    1.927115    0.613583
      3          6           0        1.422212    3.284131    1.294678
      4          1           0        3.223867    1.196449    1.044763
      5          1           0        3.076459    1.998754   -0.515910
      6          1           0        0.735724    1.234342    1.297819
      7          1           0        0.589315    2.036575   -0.261856
      8          1           0        1.905244    3.994670    0.616138
      9          1           0        2.052484    3.187878    2.184675
     10          1           0        0.461940    3.708951    1.603330
     11          6           0        2.404449   -0.049318   -0.512117
     12          6           0        3.730252   -0.668885   -0.955251
     13          6           0        3.550226   -2.025901   -1.636346
     14          1           0        1.895979   -0.740524    0.174242
     15          1           0        1.748571    0.061781   -1.386431
     16          1           0        4.383123   -0.778345   -0.079812
     17          1           0        4.236714    0.023889   -1.639487
     18          1           0        2.919954   -1.929648   -2.526343
     19          1           0        3.067194   -2.736439   -0.957806
     20          1           0        4.510498   -2.450721   -1.944998
     21          6           0       -3.184782   -0.383263   -0.016244
     22          6           0       -3.196148    0.542155   -1.233395
     23          6           0       -4.600797    1.025673   -1.595288
     24          1           0       -3.831970   -1.248401   -0.215314
     25          1           0       -3.624044    0.144924    0.841348
     26          1           0       -2.755731    0.012858   -2.088084
     27          1           0       -2.548708    1.405095   -1.031478
     28          1           0       -5.045441    1.576989   -0.760457
     29          1           0       -5.253639    0.176841   -1.823065
     30          1           0       -4.585681    1.685833   -2.468111
     31          6           0       -1.787656   -0.874968    0.357911
     32          6           0       -1.776290   -1.800385    1.575063
     33          6           0       -0.371641   -2.283903    1.936956
     34          1           0       -1.348395   -1.403154   -0.499680
     35          1           0       -1.140469   -0.009829    0.556982
     36          1           0       -2.423731   -2.663326    1.373146
     37          1           0       -2.216708   -1.271088    2.429752
     38          1           0        0.281201   -1.435071    2.164733
     39          1           0        0.073002   -2.835219    1.102124
     40          1           0       -0.386757   -2.944063    2.809779
 ---------------------------------------------------------------------

 SCF Done:  E(RHF) =  -470.732586282     A.U. after   11 cycles
 E2 =    -0.1584776771D+01 EUMP2 =    -0.47231736305369D+03

 The electronic state is 1-A.
 Alpha  occ. eigenvalues --  -11.21653 -11.21593 -11.21583 -11.21564 -11.21391
 Alpha  occ. eigenvalues --  -11.21338 -11.21278 -11.21229 -11.21130 -11.21121
 Alpha  occ. eigenvalues --  -11.21058 -11.21053  -1.08459  -1.08360  -1.03545
 Alpha  occ. eigenvalues --   -1.03523  -0.95994  -0.95959  -0.87023  -0.86970
 Alpha  occ. eigenvalues --   -0.79648  -0.79587  -0.78471  -0.77951  -0.65142
 Alpha  occ. eigenvalues --   -0.64959  -0.61030  -0.60841  -0.59367  -0.59331
 Alpha  occ. eigenvalues --   -0.57651  -0.57534  -0.55315  -0.55217  -0.52707
 Alpha  occ. eigenvalues --   -0.52662  -0.52485  -0.52333  -0.49969  -0.49877
 Alpha  occ. eigenvalues --   -0.48051  -0.47961  -0.46814  -0.46500  -0.46298
 Alpha  occ. eigenvalues --   -0.45677  -0.45647  -0.44933  -0.43779  -0.43750
 Alpha virt. eigenvalues --    0.20617   0.22615   0.23702   0.23719   0.25496
 Alpha virt. eigenvalues --    0.26227   0.26874   0.27488   0.28602   0.29369
 Alpha virt. eigenvalues --    0.30721   0.31504   0.31809   0.32034   0.32203

 Mulliken charges:
               1
     1  C   -0.297658
     2  C   -0.306969
     3  C   -0.474933
     4  H    0.149266
     5  H    0.149508
     6  H    0.155898
     7  H    0.153688
     8  H    0.155599
     9  H    0.155296
    10  H    0.159801
    11  C   -0.305384
    12  C   -0.299336
    13  C   -0.475890
    14  H    0.158077
    15  H    0.149791
    16  H    0.151753
    17  H    0.151598
    18  H    0.154887
    19  H    0.155227
    20  H    0.160184
    21  C   -0.297646
    22  C   -0.300488
    23  C   -0.475627
    24  H    0.149239
    25  H    0.148963
    26  H    0.151688
    27  H    0.152408
    28  H    0.155137
    29  H    0.155236
    30  H    0.160009
    31  C   -0.308097
    32  C   -0.299272
    33  C   -0.479922
    34  H    0.149556
    35  H    0.161540
    36  H    0.151891
    37  H    0.151388
    38  H    0.156973
    39  H    0.156094
    40  H    0.160529
 Sum of Mulliken charges =  -0.00000

 Dipole moment (field-independent basis, Debye):
    X=              0.0152    Y=              0.0076    Z=              0.0082  Tot=              0.0189
 Quadrupole moment (field-independent basis, Debye-Ang):
   XX=            -85.8282   YY=            -85.1104   ZZ=            -84.0297
   XY=              0.4946   XZ=             -0.1751   YZ=             -0.2617

 Normal termination of Gaussian 16 at Wed May  5 21:32:34 2021.
