 Gaussian 16, Revision A.03,
 Gaussian 16:  EM64L-G16RevA.03 25-Dec-2016

 -------------
 #p 6-31g* mp2
 -------------

 ------------------------------------------------------
 Input file generated by CHIRIPA (05-May-2021 14:57:21)
 ------------------------------------------------------
 Symbolic Z-matrix:
 Charge =  0 Multiplicity = 1

                         Standard orientation:
 ---------------------------------------------------------------------
 Center     Atomic      Atomic             Coordinates (Angstroms)
 Number     Number       Type             X           Y           Z
 ---------------------------------------------------------------------
      1          6           0       -0.927588   -1.094139    1.069829
      2          6           0       -1.430082   -1.600653   -0.133277
      3          6           0       -2.668447   -1.173254   -0.621468
      4          6           0       -3.380947   -0.234005    0.122471
      5          6           0       -2.907111    0.289321    1.324510
      6          6           0       -1.666404   -0.152428    1.793607
      7          1           0        0.035313   -1.431726    1.441651
      8          1           0       -0.858491   -2.332090   -0.697483
      9          1           0       -3.081117   -1.548903   -1.549912
     10          1           0       -3.499901    1.017479    1.864698
     11          1           0       -1.278640    0.242664    2.728265
     12          7           0       -4.693189    0.226060   -0.384248
     13          8           0       -5.301485    1.054362    0.289940
     14          8           0       -5.088580   -0.250356   -1.446006
     15          6           0        1.794168    2.417083   -0.423050
     16          6           0        3.135957    2.491589   -0.035009
     17          6           0        3.904861    1.330523    0.088513
     18          6           0        3.297170    0.106108   -0.184999
     19          6           0        1.962692   -0.000821   -0.573622
     20          6           0        1.212845    1.173309   -0.690646
     21          1           0        1.204267    3.324102   -0.516480
     22          1           0        3.590057    3.456153    0.173449
     23          1           0        4.945728    1.359351    0.387150
     24          1           0        1.537802   -0.976758   -0.774699
     25          1           0        0.171015    1.112423   -0.992190
     26          7           0        4.101088   -1.129977   -0.057672
     27          8           0        3.542258   -2.196520   -0.304313
     28          8           0        5.274806   -1.008871    0.286357
 ---------------------------------------------------------------------

 SCF Done:  E(RHF) =  -868.337153950     A.U. after   16 cycles
 E2 =    -0.2602760565D+01 EUMP2 =    -0.87093991451509D+03

 The electronic state is 1-A.
 Alpha  occ. eigenvalues --  -20.61516 -20.61479 -20.61335 -20.61330 -15.86545
 Alpha  occ. eigenvalues --  -15.86396 -11.31855 -11.31849 -11.28478 -11.28444
 Alpha  occ. eigenvalues --  -11.28388 -11.28324 -11.28117 -11.28001 -11.27431
 Alpha  occ. eigenvalues --  -11.27380 -11.27341 -11.27268  -1.60574  -1.60413
 Alpha  occ. eigenvalues --   -1.40132  -1.39962  -1.20080  -1.19964  -1.09429
 Alpha  occ. eigenvalues --   -1.09362  -1.05475  -1.05343  -0.96290  -0.96167
 Alpha  occ. eigenvalues --   -0.86871  -0.86724  -0.83097  -0.83001  -0.78167
 Alpha  occ. eigenvalues --   -0.78064  -0.72762  -0.72603  -0.71905  -0.71748
 Alpha  occ. eigenvalues --   -0.71271  -0.70903  -0.65714  -0.65604  -0.65512
 Alpha  occ. eigenvalues --   -0.65215  -0.62863  -0.62633  -0.55926  -0.55812
 Alpha  occ. eigenvalues --   -0.54047  -0.53554  -0.53503  -0.53277  -0.49533
 Alpha  occ. eigenvalues --   -0.49498  -0.49371  -0.49356  -0.45549  -0.45347
 Alpha  occ. eigenvalues --   -0.38326  -0.37944  -0.37113  -0.36598
 Alpha virt. eigenvalues --    0.04041   0.04763   0.10221   0.10798   0.15520
 Alpha virt. eigenvalues --    0.16347   0.19850   0.21590   0.25278   0.27189
 Alpha virt. eigenvalues --    0.27549   0.28635   0.30168   0.30741   0.31326

 Mulliken charges:
               1
     1  C   -0.171471
     2  C   -0.233270
     3  C   -0.172324
     4  C    0.156043
     5  C   -0.172473
     6  C   -0.219955
     7  H    0.235528
     8  H    0.229346
     9  H    0.278495
    10  H    0.277177
    11  H    0.226890
    12  N    0.488054
    13  O   -0.459377
    14  O   -0.458720
    15  C   -0.173273
    16  C   -0.217970
    17  C   -0.171983
    18  C    0.158767
    19  C   -0.179801
    20  C   -0.216551
    21  H    0.228869
    22  H    0.225684
    23  H    0.276734
    24  H    0.267906
    25  H    0.231551
    26  N    0.488210
    27  O   -0.465357
    28  O   -0.456730
 Sum of Mulliken charges =  -0.00000

 Dipole moment (field-independent basis, Debye):
    X=              1.7251    Y=              2.8474    Z=              1.4220  Tot=              3.6201
 Quadrupole moment (field-independent basis, Debye-Ang):
   XX=           -152.1586   YY=           -100.4776   ZZ=           -101.5295
   XY=             21.0657   XZ=             -5.6789   YZ=              2.0031

 Normal termination of Gaussian 16 at Thu May  6 11:09:47 2021.
