 Gaussian 16, Revision A.03,
 Gaussian 16:  EM64L-G16RevA.03 25-Dec-2016

 -------------
 #p 6-31g* mp2
 -------------

 ------------------------------------------------------
 Input file generated by CHIRIPA (05-May-2021 14:55:25)
 ------------------------------------------------------
 Symbolic Z-matrix:
 Charge =  0 Multiplicity = 1

                         Standard orientation:
 ---------------------------------------------------------------------
 Center     Atomic      Atomic             Coordinates (Angstroms)
 Number     Number       Type             X           Y           Z
 ---------------------------------------------------------------------
      1          6           0        3.340583    1.087610    0.549162
      2          6           0        2.393585    0.718077    1.509975
      3          6           0        1.517975   -0.345417    1.271567
      4          6           0        1.617551   -1.020528    0.056002
      5          6           0        2.550310   -0.676236   -0.921093
      6          6           0        3.415790    0.390503   -0.661171
      7          1           0        4.016843    1.915018    0.742719
      8          1           0        2.332898    1.257662    2.450831
      9          1           0        0.775347   -0.652571    1.997913
     10          1           0        2.586787   -1.233060   -1.849551
     11          1           0        4.150246    0.675279   -1.409184
     12          7           0        0.695944   -2.148119   -0.207777
     13          8           0        0.803949   -2.726903   -1.286657
     14          8           0       -0.116965   -2.431789    0.669347
     15          6           0       -2.990698    0.847663   -0.216242
     16          6           0       -3.283228   -0.529230    0.380900
     17          6           0       -4.739365   -0.956930    0.195077
     18          1           0       -3.654461    1.590038    0.247701
     19          1           0       -3.236245    0.834846   -1.287194
     20          1           0       -3.035896   -0.514222    1.450113
     21          1           0       -2.618560   -1.268381   -0.084382
     22          1           0       -4.995500   -0.999998   -0.868474
     23          1           0       -5.415208   -0.241555    0.674739
     24          1           0       -4.926405   -1.944000    0.629322
     25          6           0       -1.539076    1.289136   -0.038415
     26          6           0       -1.246547    2.666028   -0.635559
     27          6           0        0.209591    3.093729   -0.449735
     28          1           0       -1.293528    1.301953    1.032535
     29          1           0       -0.875314    0.546761   -0.502360
     30          1           0       -1.911214    3.405180   -0.170277
     31          1           0       -1.493878    2.651022   -1.704772
     32          1           0        0.885433    2.378354   -0.929397
     33          1           0        0.465725    3.136798    0.613816
     34          1           0        0.396631    4.080800   -0.883980
 ---------------------------------------------------------------------

 SCF Done:  E(RHF) =  -669.534114966     A.U. after   15 cycles
 E2 =    -0.2096717283D+01 EUMP2 =    -0.67163083224881D+03

 The electronic state is 1-A.
 Alpha  occ. eigenvalues --  -20.60958 -20.60917 -15.85952 -11.31240 -11.27862
 Alpha  occ. eigenvalues --  -11.27803 -11.27552 -11.26834 -11.26782 -11.21526
 Alpha  occ. eigenvalues --  -11.21190 -11.21093 -11.20885 -11.20641 -11.20307
 Alpha  occ. eigenvalues --   -1.60001  -1.39554  -1.19446  -1.08847  -1.08063
 Alpha  occ. eigenvalues --   -1.04835  -1.03101  -0.95697  -0.95607  -0.86651
 Alpha  occ. eigenvalues --   -0.86221  -0.82523  -0.79224  -0.77885  -0.77528
 Alpha  occ. eigenvalues --   -0.72179  -0.71323  -0.70541  -0.65095  -0.64840
 Alpha  occ. eigenvalues --   -0.64693  -0.62181  -0.60510  -0.59036  -0.57215
 Alpha  occ. eigenvalues --   -0.55331  -0.54942  -0.53300  -0.52924  -0.52309
 Alpha  occ. eigenvalues --   -0.52001  -0.49593  -0.48954  -0.48944  -0.47423
 Alpha  occ. eigenvalues --   -0.46271  -0.45628  -0.45302  -0.44527  -0.43381
 Alpha  occ. eigenvalues --   -0.37333  -0.36371
 Alpha virt. eigenvalues --    0.04893   0.11172   0.16342   0.21029   0.23151
 Alpha virt. eigenvalues --    0.24638   0.25972   0.27028   0.27530   0.28350
 Alpha virt. eigenvalues --    0.29003   0.30768   0.31633   0.31959   0.32475

 Mulliken charges:
               1
     1  C   -0.167606
     2  C   -0.215523
     3  C   -0.165271
     4  C    0.155187
     5  C   -0.172878
     6  C   -0.220040
     7  H    0.226411
     8  H    0.223233
     9  H    0.275704
    10  H    0.275879
    11  H    0.223984
    12  N    0.489515
    13  O   -0.460146
    14  O   -0.457498
    15  C   -0.298577
    16  C   -0.304065
    17  C   -0.475844
    18  H    0.146016
    19  H    0.149106
    20  H    0.148030
    21  H    0.172647
    22  H    0.153730
    23  H    0.149920
    24  H    0.162851
    25  C   -0.295537
    26  C   -0.299183
    27  C   -0.477135
    28  H    0.142034
    29  H    0.148225
    30  H    0.150895
    31  H    0.152495
    32  H    0.159400
    33  H    0.147857
    34  H    0.156185
 Sum of Mulliken charges =  -0.00000

 Dipole moment (field-independent basis, Debye):
    X=              3.3926    Y=              3.7452    Z=              0.9397  Tot=              5.1400
 Quadrupole moment (field-independent basis, Debye-Ang):
   XX=            -85.1477   YY=           -103.9457   ZZ=            -90.0283
   XY=              2.7666   XZ=             -0.6072   YZ=              0.3705

 Normal termination of Gaussian 16 at Thu May  6 12:43:04 2021.
