 Gaussian 16, Revision A.03,
 Gaussian 16:  EM64L-G16RevA.03 25-Dec-2016

 -------------
 #p 6-31g* mp2
 -------------

 ------------------------------------------------------
 Input file generated by CHIRIPA (05-May-2021 14:55:18)
 ------------------------------------------------------
 Symbolic Z-matrix:
 Charge =  0 Multiplicity = 1

                         Standard orientation:
 ---------------------------------------------------------------------
 Center     Atomic      Atomic             Coordinates (Angstroms)
 Number     Number       Type             X           Y           Z
 ---------------------------------------------------------------------
      1          6           0       -4.186436   -1.803108   -0.195294
      2          6           0       -4.825017   -0.650717    0.274526
      3          6           0       -4.140733    0.567097    0.331365
      4          6           0       -2.812722    0.596564   -0.091493
      5          6           0       -2.148979   -0.534346   -0.564545
      6          6           0       -2.852806   -1.741354   -0.612594
      7          1           0       -4.725595   -2.744938   -0.236033
      8          1           0       -5.860665   -0.695712    0.599262
      9          1           0       -4.610829    1.474457    0.690707
     10          1           0       -1.115895   -0.458248   -0.881347
     11          1           0       -2.354331   -2.634720   -0.977920
     12          7           0       -2.077957    1.880089   -0.035973
     13          8           0       -0.908568    1.879669   -0.414347
     14          8           0       -2.685350    2.862233    0.384866
     15          6           0        4.299947   -0.201868   -0.320756
     16          6           0        5.484371    0.373610    0.456388
     17          6           0        6.565725    0.951955   -0.456839
     18          1           0        4.662029   -0.983099   -1.003046
     19          1           0        3.865808    0.586750   -0.950834
     20          1           0        5.915287   -0.415502    1.085855
     21          1           0        5.119400    1.153429    1.137045
     22          1           0        6.157185    1.757669   -1.075323
     23          1           0        6.957594    0.179824   -1.126803
     24          1           0        7.402971    1.357870    0.119453
     25          6           0        3.210634   -0.783792    0.578404
     26          6           0        2.026211   -1.359269   -0.198739
     27          6           0        0.944855   -1.937615    0.714487
     28          1           0        3.644773   -1.572411    1.208483
     29          1           0        2.848552   -0.002560    1.260695
     30          1           0        2.391180   -2.139089   -0.879397
     31          1           0        1.595294   -0.570157   -0.828207
     32          1           0        0.552986   -1.165483    1.384452
     33          1           0        1.353395   -2.743328    1.332971
     34          1           0        0.107610   -2.343530    0.138195
 ---------------------------------------------------------------------

 SCF Done:  E(RHF) =  -669.534837622     A.U. after   15 cycles
 E2 =    -0.2092622945D+01 EUMP2 =    -0.67162746056713D+03

 The electronic state is 1-A.
 Alpha  occ. eigenvalues --  -20.60806 -20.60799 -15.85853 -11.31153 -11.27745
 Alpha  occ. eigenvalues --  -11.27694 -11.27487 -11.26741 -11.26725 -11.21678
 Alpha  occ. eigenvalues --  -11.21374 -11.21334 -11.21240 -11.21116 -11.20804
 Alpha  occ. eigenvalues --   -1.59877  -1.39432  -1.19342  -1.08747  -1.08293
 Alpha  occ. eigenvalues --   -1.04750  -1.03473  -0.95952  -0.95576  -0.86961
 Alpha  occ. eigenvalues --   -0.86138  -0.82429  -0.79538  -0.78078  -0.77483
 Alpha  occ. eigenvalues --   -0.72077  -0.71198  -0.70470  -0.65005  -0.64967
 Alpha  occ. eigenvalues --   -0.64699  -0.62220  -0.60806  -0.59300  -0.57536
 Alpha  occ. eigenvalues --   -0.55323  -0.55115  -0.53154  -0.52821  -0.52575
 Alpha  occ. eigenvalues --   -0.52348  -0.49837  -0.48834  -0.48825  -0.47857
 Alpha  occ. eigenvalues --   -0.46537  -0.45629  -0.45509  -0.44847  -0.43717
 Alpha  occ. eigenvalues --   -0.37327  -0.36291
 Alpha virt. eigenvalues --    0.05042   0.11275   0.16464   0.20270   0.23156
 Alpha virt. eigenvalues --    0.24139   0.26392   0.26470   0.27390   0.28116
 Alpha virt. eigenvalues --    0.28880   0.29784   0.31444   0.31705   0.32531

 Mulliken charges:
               1
     1  C   -0.170480
     2  C   -0.219239
     3  C   -0.170369
     4  C    0.154706
     5  C   -0.169471
     6  C   -0.221580
     7  H    0.225615
     8  H    0.223287
     9  H    0.275368
    10  H    0.284638
    11  H    0.223393
    12  N    0.488201
    13  O   -0.462906
    14  O   -0.460042
    15  C   -0.299663
    16  C   -0.300038
    17  C   -0.475936
    18  H    0.147232
    19  H    0.155262
    20  H    0.150208
    21  H    0.154637
    22  H    0.157157
    23  H    0.153757
    24  H    0.159868
    25  C   -0.298302
    26  C   -0.306861
    27  C   -0.480071
    28  H    0.147669
    29  H    0.156408
    30  H    0.149645
    31  H    0.160826
    32  H    0.163360
    33  H    0.157371
    34  H    0.146352
 Sum of Mulliken charges =  -0.00000

 Dipole moment (field-independent basis, Debye):
    X=             -2.5330    Y=             -4.4000    Z=             -0.1487  Tot=              5.0791
 Quadrupole moment (field-independent basis, Debye-Ang):
   XX=            -77.5319   YY=            -99.3683   ZZ=            -95.0790
   XY=              8.7236   XZ=             -0.4597   YZ=              1.5005

 Normal termination of Gaussian 16 at Thu May  6 17:21:31 2021.
