 Gaussian 16, Revision A.03,
 Gaussian 16:  EM64L-G16RevA.03 25-Dec-2016

 -------------
 #p 6-31g* mp2
 -------------

 ------------------------------------------------------
 Input file generated by CHIRIPA (05-May-2021 14:57:23)
 ------------------------------------------------------
 Symbolic Z-matrix:
 Charge =  0 Multiplicity = 1

                         Standard orientation:
 ---------------------------------------------------------------------
 Center     Atomic      Atomic             Coordinates (Angstroms)
 Number     Number       Type             X           Y           Z
 ---------------------------------------------------------------------
      1          6           0       -4.827795   -1.881548    0.241354
      2          6           0       -3.876688   -1.542891    1.209459
      3          6           0       -3.132944   -0.364875    1.092538
      4          6           0       -3.367141    0.454998   -0.010299
      5          6           0       -4.307647    0.145020   -0.991448
      6          6           0       -5.039865   -1.037999   -0.854078
      7          1           0       -5.401077   -2.798603    0.340124
      8          1           0       -3.709873   -2.196099    2.061244
      9          1           0       -2.390359   -0.078491    1.827364
     10          1           0       -4.451612    0.816222   -1.829409
     11          1           0       -5.777850   -1.298468   -1.607457
     12          7           0       -2.585874    1.704759   -0.144902
     13          8           0       -2.811049    2.410139   -1.125908
     14          8           0       -1.763134    1.955278    0.733150
     15          6           0        5.983959    0.149769   -0.140209
     16          6           0        5.154362    1.094233    0.473206
     17          6           0        3.774388    0.883724    0.550034
     18          6           0        3.255367   -0.287576    0.000521
     19          6           0        4.055775   -1.247395   -0.617044
     20          6           0        5.432989   -1.015975   -0.682421
     21          1           0        7.054885    0.321419   -0.195444
     22          1           0        5.579486    2.000476    0.895155
     23          1           0        3.109077    1.598284    1.019271
     24          1           0        3.602827   -2.141193   -1.028604
     25          1           0        6.074847   -1.751199   -1.159400
     26          7           0        1.795911   -0.521501    0.075794
     27          8           0        1.363277   -1.561514   -0.415976
     28          8           0        1.112260    0.339590    0.625139
 ---------------------------------------------------------------------

 SCF Done:  E(RHF) =  -868.337419828     A.U. after   16 cycles
 E2 =    -0.2599745213D+01 EUMP2 =    -0.87093716504124D+03

 The electronic state is 1-A.
 Alpha  occ. eigenvalues --  -20.60409 -20.60316 -20.59520 -20.59390 -15.85394
 Alpha  occ. eigenvalues --  -15.84498 -11.30833 -11.29960 -11.27446 -11.27371
 Alpha  occ. eigenvalues --  -11.27192 -11.26626 -11.26500 -11.26474 -11.26428
 Alpha  occ. eigenvalues --  -11.26406 -11.25680 -11.25605  -1.59448  -1.58518
 Alpha  occ. eigenvalues --   -1.38990  -1.38065  -1.19021  -1.18165  -1.08410
 Alpha  occ. eigenvalues --   -1.07559  -1.04432  -1.03597  -0.95228  -0.94373
 Alpha  occ. eigenvalues --   -0.85827  -0.84995  -0.82051  -0.81209  -0.77086
 Alpha  occ. eigenvalues --   -0.76220  -0.71629  -0.70781  -0.70715  -0.70131
 Alpha  occ. eigenvalues --   -0.69802  -0.69312  -0.64669  -0.64440  -0.63835
 Alpha  occ. eigenvalues --   -0.63633  -0.61773  -0.60946  -0.54945  -0.54145
 Alpha  occ. eigenvalues --   -0.52763  -0.52525  -0.51907  -0.51712  -0.48422
 Alpha  occ. eigenvalues --   -0.48385  -0.47521  -0.47461  -0.44395  -0.43397
 Alpha  occ. eigenvalues --   -0.37015  -0.36170  -0.36039  -0.35190
 Alpha virt. eigenvalues --    0.05440   0.06339   0.11614   0.12463   0.16912
 Alpha virt. eigenvalues --    0.17777   0.21737   0.22457   0.27644   0.28347
 Alpha virt. eigenvalues --    0.28654   0.29386   0.31280   0.31949   0.32928

 Mulliken charges:
               1
     1  C   -0.171039
     2  C   -0.218393
     3  C   -0.162434
     4  C    0.159926
     5  C   -0.171442
     6  C   -0.219084
     7  H    0.221207
     8  H    0.220455
     9  H    0.280857
    10  H    0.272149
    11  H    0.218807
    12  N    0.488497
    13  O   -0.469558
    14  O   -0.449949
    15  C   -0.171052
    16  C   -0.218835
    17  C   -0.170815
    18  C    0.157952
    19  C   -0.171433
    20  C   -0.218777
    21  H    0.224490
    22  H    0.223624
    23  H    0.280670
    24  H    0.273808
    25  H    0.221826
    26  N    0.487405
    27  O   -0.467705
    28  O   -0.451157
 Sum of Mulliken charges =  -0.00000

 Dipole moment (field-independent basis, Debye):
    X=              2.6056    Y=             -3.4209    Z=              0.4005  Tot=              4.3188
 Quadrupole moment (field-independent basis, Debye-Ang):
   XX=            -54.7543   YY=           -106.5757   ZZ=           -101.0708
   XY=             14.1203   XZ=             -0.6328   YZ=              1.9260

 Normal termination of Gaussian 16 at Fri May  7 01:48:31 2021.
