 Gaussian 16, Revision A.03,
 Gaussian 16:  EM64L-G16RevA.03 25-Dec-2016

 -------------
 #p 6-31g* mp2
 -------------

 ------------------------------------------------------
 Input file generated by CHIRIPA (05-May-2021 14:55:21)
 ------------------------------------------------------
 Symbolic Z-matrix:
 Charge =  0 Multiplicity = 1

                         Standard orientation:
 ---------------------------------------------------------------------
 Center     Atomic      Atomic             Coordinates (Angstroms)
 Number     Number       Type             X           Y           Z
 ---------------------------------------------------------------------
      1          6           0       -2.153103    2.128161    0.843784
      2          6           0       -3.208661    1.760438    0.002894
      3          6           0       -3.384404    0.425619   -0.373828
      4          6           0       -2.481870   -0.519714    0.111012
      5          6           0       -1.420360   -0.184651    0.950188
      6          6           0       -1.263888    1.156157    1.313919
      7          1           0       -2.024067    3.167407    1.131385
      8          1           0       -3.900771    2.513173   -0.363739
      9          1           0       -4.192907    0.113315   -1.023603
     10          1           0       -0.746596   -0.957526    1.299650
     11          1           0       -0.443218    1.438840    1.967093
     12          7           0       -2.657720   -1.935998   -0.280930
     13          8           0       -1.848940   -2.749831    0.159735
     14          8           0       -3.601002   -2.205429   -1.021378
     15          6           0        2.784984    0.997180    0.019757
     16          6           0        2.136350    1.803224   -1.106100
     17          6           0        1.430663    3.062106   -0.601108
     18          1           0        2.015729    0.718869    0.753061
     19          1           0        3.505794    1.635103    0.549740
     20          1           0        1.417985    1.163557   -1.634675
     21          1           0        2.907206    2.079485   -1.836906
     22          1           0        2.139394    3.722860   -0.091494
     23          1           0        0.641712    2.801727    0.111884
     24          1           0        0.974041    3.623200   -1.422406
     25          6           0        3.494410   -0.264268   -0.469314
     26          6           0        4.143044   -1.070312    0.656542
     27          6           0        4.848731   -2.329194    0.151550
     28          1           0        2.773600   -0.902191   -0.999297
     29          1           0        4.263665    0.014043   -1.202618
     30          1           0        3.372189   -1.346573    1.387347
     31          1           0        4.861410   -0.430644    1.185118
     32          1           0        5.637682   -2.068814   -0.561443
     33          1           0        4.140000   -2.989947   -0.358064
     34          1           0        5.305353   -2.890287    0.972849
 ---------------------------------------------------------------------

 SCF Done:  E(RHF) =  -669.534554888     A.U. after   15 cycles
 E2 =    -0.2093487578D+01 EUMP2 =    -0.67162804246570D+03

 The electronic state is 1-A.
 Alpha  occ. eigenvalues --  -20.60840 -20.60834 -15.85894 -11.31278 -11.27853
 Alpha  occ. eigenvalues --  -11.27845 -11.27578 -11.26858 -11.26848 -11.21985
 Alpha  occ. eigenvalues --  -11.21847 -11.21792 -11.21599 -11.21552 -11.21102
 Alpha  occ. eigenvalues --   -1.59915  -1.39468  -1.19459  -1.08863  -1.08740
 Alpha  occ. eigenvalues --   -1.04870  -1.03815  -0.96289  -0.95674  -0.87309
 Alpha  occ. eigenvalues --   -0.86263  -0.82509  -0.79902  -0.78574  -0.77550
 Alpha  occ. eigenvalues --   -0.72113  -0.71239  -0.70557  -0.65432  -0.65115
 Alpha  occ. eigenvalues --   -0.64852  -0.62230  -0.61199  -0.59654  -0.57896
 Alpha  occ. eigenvalues --   -0.55629  -0.55348  -0.53215  -0.52980  -0.52934
 Alpha  occ. eigenvalues --   -0.52671  -0.50219  -0.48874  -0.48866  -0.48207
 Alpha  occ. eigenvalues --   -0.46924  -0.46119  -0.46008  -0.44870  -0.44087
 Alpha  occ. eigenvalues --   -0.37369  -0.36423
 Alpha virt. eigenvalues --    0.04946   0.11062   0.16331   0.20033   0.22850
 Alpha virt. eigenvalues --    0.24136   0.25183   0.26817   0.26911   0.28694
 Alpha virt. eigenvalues --    0.29400   0.30207   0.31373   0.31531   0.31932

 Mulliken charges:
               1
     1  C   -0.168348
     2  C   -0.218913
     3  C   -0.170682
     4  C    0.158023
     5  C   -0.172506
     6  C   -0.219067
     7  H    0.227419
     8  H    0.224092
     9  H    0.276019
    10  H    0.275664
    11  H    0.226066
    12  N    0.488095
    13  O   -0.460471
    14  O   -0.460045
    15  C   -0.298111
    16  C   -0.298801
    17  C   -0.479969
    18  H    0.140095
    19  H    0.149418
    20  H    0.156034
    21  H    0.154054
    22  H    0.153538
    23  H    0.151789
    24  H    0.160467
    25  C   -0.299865
    26  C   -0.299090
    27  C   -0.476499
    28  H    0.154307
    29  H    0.151146
    30  H    0.149547
    31  H    0.151000
    32  H    0.155185
    33  H    0.159470
    34  H    0.160939
 Sum of Mulliken charges =  -0.00000

 Dipole moment (field-independent basis, Debye):
    X=              0.5912    Y=              4.9126    Z=              1.2990  Tot=              5.1157
 Quadrupole moment (field-independent basis, Debye-Ang):
   XX=            -94.0935   YY=           -100.9736   ZZ=            -93.5771
   XY=            -13.4106   XZ=             -1.0718   YZ=             -1.1719

 Normal termination of Gaussian 16 at Thu May  6 03:00:53 2021.
