 Gaussian 16, Revision A.03,
 Gaussian 16:  EM64L-G16RevA.03 25-Dec-2016

 -------------
 #p 6-31g* mp2
 -------------

 ------------------------------------------------------
 Input file generated by CHIRIPA (05-May-2021 14:57:23)
 ------------------------------------------------------
 Symbolic Z-matrix:
 Charge =  0 Multiplicity = 1

                         Standard orientation:
 ---------------------------------------------------------------------
 Center     Atomic      Atomic             Coordinates (Angstroms)
 Number     Number       Type             X           Y           Z
 ---------------------------------------------------------------------
      1          6           0        4.291646    2.252023    1.053130
      2          6           0        5.311800    1.479934    0.487723
      3          6           0        5.018854    0.263907   -0.136784
      4          6           0        3.688832   -0.151588   -0.177950
      5          6           0        2.650304    0.595197    0.376181
      6          6           0        2.966490    1.807973    0.995656
      7          1           0        4.528239    3.195399    1.536308
      8          1           0        6.341834    1.822299    0.530870
      9          1           0        5.789103   -0.353641   -0.582619
     10          1           0        1.633005    0.227673    0.317483
     11          1           0        2.172179    2.405510    1.433908
     12          7           0        3.366402   -1.437221   -0.836424
     13          8           0        2.186640   -1.781122   -0.859445
     14          8           0        4.299549   -2.076655   -1.317046
     15          6           0       -2.399620   -1.736233    1.394287
     16          6           0       -1.778233   -0.966338    0.405520
     17          6           0       -2.512163   -0.034705   -0.334721
     18          6           0       -3.871746    0.101723   -0.058657
     19          6           0       -4.519473   -0.650603    0.919986
     20          6           0       -3.765849   -1.576191    1.647917
     21          1           0       -1.821837   -2.457601    1.964543
     22          1           0       -0.717353   -1.088499    0.206387
     23          1           0       -2.056364    0.574329   -1.105917
     24          1           0       -5.578594   -0.506387    1.095721
     25          1           0       -4.251073   -2.172740    2.415206
     26          7           0       -4.659150    1.084802   -0.835802
     27          8           0       -5.855608    1.186051   -0.573364
     28          8           0       -4.064949    1.735474   -1.692649
 ---------------------------------------------------------------------

 SCF Done:  E(RHF) =  -868.338952991     A.U. after   16 cycles
 E2 =    -0.2599206077D+01 EUMP2 =    -0.87093815906810D+03

 The electronic state is 1-A.
 Alpha  occ. eigenvalues --  -20.61609 -20.61562 -20.60659 -20.60654 -15.86627
 Alpha  occ. eigenvalues --  -15.85710 -11.31848 -11.31020 -11.28468 -11.28343
 Alpha  occ. eigenvalues --  -11.28051 -11.27588 -11.27566 -11.27364 -11.27325
 Alpha  occ. eigenvalues --  -11.27268 -11.26583 -11.26492  -1.60644  -1.59736
 Alpha  occ. eigenvalues --   -1.40211  -1.39291  -1.19990  -1.19178  -1.09400
 Alpha  occ. eigenvalues --   -1.08573  -1.05375  -1.04569  -0.96269  -0.95422
 Alpha  occ. eigenvalues --   -0.86780  -0.85959  -0.83112  -0.82256  -0.78200
 Alpha  occ. eigenvalues --   -0.77313  -0.72854  -0.71953  -0.71928  -0.71100
 Alpha  occ. eigenvalues --   -0.71060  -0.70269  -0.65646  -0.65383  -0.64822
 Alpha  occ. eigenvalues --   -0.64537  -0.62753  -0.61889  -0.55855  -0.55042
 Alpha  occ. eigenvalues --   -0.53700  -0.53478  -0.52906  -0.52623  -0.49620
 Alpha  occ. eigenvalues --   -0.49568  -0.48688  -0.48678  -0.45645  -0.44710
 Alpha  occ. eigenvalues --   -0.37938  -0.37145  -0.36967  -0.36181
 Alpha virt. eigenvalues --    0.04350   0.05202   0.10688   0.11447   0.15893
 Alpha virt. eigenvalues --    0.16663   0.19408   0.21939   0.24942   0.27197
 Alpha virt. eigenvalues --    0.28555   0.28930   0.30072   0.31106   0.32399

 Mulliken charges:
               1
     1  C   -0.169800
     2  C   -0.218250
     3  C   -0.169784
     4  C    0.157888
     5  C   -0.171358
     6  C   -0.220149
     7  H    0.228591
     8  H    0.225998
     9  H    0.277170
    10  H    0.271034
    11  H    0.226725
    12  N    0.491289
    13  O   -0.473351
    14  O   -0.454808
    15  C   -0.171921
    16  C   -0.233170
    17  C   -0.174106
    18  C    0.158540
    19  C   -0.171594
    20  C   -0.218626
    21  H    0.228439
    22  H    0.243253
    23  H    0.274428
    24  H    0.274838
    25  H    0.222925
    26  N    0.488089
    27  O   -0.461001
    28  O   -0.461292
 Sum of Mulliken charges =  -0.00000

 Dipole moment (field-independent basis, Debye):
    X=              4.2418    Y=              1.0813    Z=              5.0875  Tot=              6.7116
 Quadrupole moment (field-independent basis, Debye-Ang):
   XX=           -109.0231   YY=           -107.4741   ZZ=           -105.7532
   XY=             31.3930   XZ=             -5.9782   YZ=             -1.1258

 Normal termination of Gaussian 16 at Fri May  7 01:48:20 2021.
