 Gaussian 16, Revision A.03,
 Gaussian 16:  EM64L-G16RevA.03 25-Dec-2016

 -------------
 #p 6-31g* mp2
 -------------

 ------------------------------------------------------
 Input file generated by CHIRIPA (05-May-2021 14:51:13)
 ------------------------------------------------------
 Symbolic Z-matrix:
 Charge =  0 Multiplicity = 1

                         Standard orientation:
 ---------------------------------------------------------------------
 Center     Atomic      Atomic             Coordinates (Angstroms)
 Number     Number       Type             X           Y           Z
 ---------------------------------------------------------------------
      1          6           0       -5.635965   -0.388433   -0.261099
      2          6           0       -6.830429    0.206344    0.485547
      3          6           0       -8.172062   -0.286199   -0.057790
      4          1           0       -5.715978   -0.136762   -1.327497
      5          1           0       -5.679536   -1.484360   -0.194460
      6          1           0       -6.783861    1.300866    0.418694
      7          1           0       -6.747462   -0.046610    1.550322
      8          1           0       -8.244198   -1.375576    0.023788
      9          1           0       -8.280804   -0.020444   -1.114270
     10          1           0       -9.012236    0.151432    0.490340
     11          6           0       -4.287674    0.094469    0.270544
     12          6           0       -3.093210   -0.500308   -0.476102
     13          6           0       -1.751576   -0.007765    0.067235
     14          1           0       -4.244103    1.190396    0.203905
     15          1           0       -4.207660   -0.157202    1.336942
     16          1           0       -3.176177   -0.247354   -1.540878
     17          1           0       -3.139777   -1.594830   -0.409249
     18          1           0       -1.642835   -0.273520    1.123715
     19          1           0       -1.679441    1.081612   -0.014343
     20          1           0       -0.911402   -0.445396   -0.480895
     21          6           0        5.472454   -0.415096    0.077449
     22          6           0        6.921703    0.065863   -0.002183
     23          6           0        7.931529   -1.070109    0.163997
     24          1           0        5.310626   -0.913107    1.043234
     25          1           0        5.302344   -1.174556   -0.698230
     26          1           0        7.088647    0.825192    0.772520
     27          1           0        7.080049    0.562956   -0.967813
     28          1           0        7.793678   -1.825349   -0.616522
     29          1           0        7.802326   -1.561624    1.133699
     30          1           0        8.961177   -0.703976    0.103741
     31          6           0        4.451184    0.709060   -0.086894
     32          6           0        3.001935    0.228101   -0.007262
     33          6           0        1.992111    1.364073   -0.173443
     34          1           0        4.621295    1.468520    0.688785
     35          1           0        4.613013    1.207071   -1.052679
     36          1           0        2.843590   -0.268992    0.958368
     37          1           0        2.834991   -0.531228   -0.781965
     38          1           0        2.121313    1.855588   -1.143144
     39          1           0        2.129960    2.119314    0.607077
     40          1           0        0.962462    0.997940   -0.113186
 ---------------------------------------------------------------------

 SCF Done:  E(RHF) =  -470.732909536     A.U. after   11 cycles
 E2 =    -0.1582440059D+01 EUMP2 =    -0.47231534959475D+03

 The electronic state is 1-A.
 Alpha  occ. eigenvalues --  -11.21629 -11.21611 -11.21566 -11.21516 -11.21422
 Alpha  occ. eigenvalues --  -11.21362 -11.21349 -11.21287 -11.21121 -11.21078
 Alpha  occ. eigenvalues --  -11.21044 -11.20863  -1.08451  -1.08368  -1.03565
 Alpha  occ. eigenvalues --   -1.03450  -0.96046  -0.95874  -0.87101  -0.86860
 Alpha  occ. eigenvalues --   -0.79659  -0.79492  -0.78261  -0.78184  -0.65080
 Alpha  occ. eigenvalues --   -0.65000  -0.60958  -0.60855  -0.59615  -0.59107
 Alpha  occ. eigenvalues --   -0.57652  -0.57478  -0.55299  -0.55188  -0.53061
 Alpha  occ. eigenvalues --   -0.52466  -0.52402  -0.52113  -0.49943  -0.49845
 Alpha  occ. eigenvalues --   -0.47939  -0.47832  -0.46647  -0.46561  -0.45805
 Alpha  occ. eigenvalues --   -0.45729  -0.45721  -0.45654  -0.43957  -0.43517
 Alpha virt. eigenvalues --    0.22526   0.22952   0.23624   0.24770   0.26604
 Alpha virt. eigenvalues --    0.26698   0.26932   0.27431   0.27635   0.28828
 Alpha virt. eigenvalues --    0.30752   0.31098   0.31472   0.31529   0.32170

 Mulliken charges:
               1
     1  C   -0.298358
     2  C   -0.299638
     3  C   -0.475716
     4  H    0.149713
     5  H    0.149559
     6  H    0.151995
     7  H    0.151956
     8  H    0.155189
     9  H    0.155205
    10  H    0.160301
    11  C   -0.298733
    12  C   -0.299815
    13  C   -0.479040
    14  H    0.149779
    15  H    0.149679
    16  H    0.152279
    17  H    0.152040
    18  H    0.155915
    19  H    0.156708
    20  H    0.161737
    21  C   -0.298166
    22  C   -0.299585
    23  C   -0.475660
    24  H    0.149497
    25  H    0.149304
    26  H    0.151865
    27  H    0.151852
    28  H    0.155095
    29  H    0.155109
    30  H    0.160126
    31  C   -0.298126
    32  C   -0.298826
    33  C   -0.487033
    34  H    0.149420
    35  H    0.149420
    36  H    0.151646
    37  H    0.150808
    38  H    0.153756
    39  H    0.154101
    40  H    0.174641
 Sum of Mulliken charges =  -0.00000

 Dipole moment (field-independent basis, Debye):
    X=             -0.0702    Y=             -0.0081    Z=              0.0063  Tot=              0.0709
 Quadrupole moment (field-independent basis, Debye-Ang):
   XX=            -86.8223   YY=            -84.7733   ZZ=            -83.3988
   XY=              0.2652   XZ=             -0.3420   YZ=             -0.3689

 Normal termination of Gaussian 16 at Thu May  6 03:58:07 2021.
