 Gaussian 16, Revision A.03,
 Gaussian 16:  EM64L-G16RevA.03 25-Dec-2016

 -------------
 #p 6-31g* mp2
 -------------

 ------------------------------------------------------
 Input file generated by CHIRIPA (05-May-2021 14:55:24)
 ------------------------------------------------------
 Symbolic Z-matrix:
 Charge =  0 Multiplicity = 1

                         Standard orientation:
 ---------------------------------------------------------------------
 Center     Atomic      Atomic             Coordinates (Angstroms)
 Number     Number       Type             X           Y           Z
 ---------------------------------------------------------------------
      1          6           0       -1.630263    2.677390    0.245029
      2          6           0       -3.025784    2.586070    0.218523
      3          6           0       -3.653238    1.348076    0.050537
      4          6           0       -2.850842    0.216664   -0.088595
      5          6           0       -1.458227    0.275152   -0.066401
      6          6           0       -0.852310    1.523674    0.102733
      7          1           0       -1.151206    3.643183    0.375970
      8          1           0       -3.632478    3.480391    0.328787
      9          1           0       -4.731642    1.248705    0.026299
     10          1           0       -0.880052   -0.633956   -0.178892
     11          1           0        0.231676    1.591588    0.122928
     12          7           0       -3.503699   -1.099517   -0.267042
     13          8           0       -2.774323   -2.081429   -0.387444
     14          8           0       -4.732424   -1.124307   -0.283128
     15          6           0        3.079677   -1.146363   -0.141890
     16          6           0        1.950558   -1.466109    0.838333
     17          6           0        1.095758   -2.651574    0.389130
     18          1           0        2.649663   -0.936327   -1.130786
     19          1           0        3.715853   -2.034477   -0.259909
     20          1           0        1.317501   -0.577222    0.955530
     21          1           0        2.383297   -1.675221    1.825058
     22          1           0        1.708934   -3.553165    0.290381
     23          1           0        0.637081   -2.448928   -0.584087
     24          1           0        0.294682   -2.862760    1.104348
     25          6           0        3.943024    0.036380    0.293402
     26          6           0        5.072144    0.356127   -0.686821
     27          6           0        5.926944    1.541591   -0.237616
     28          1           0        3.306848    0.924495    0.411422
     29          1           0        4.373039   -0.173655    1.282300
     30          1           0        4.639405    0.565237   -1.673545
     31          1           0        5.705200   -0.532761   -0.804017
     32          1           0        6.385620    1.338945    0.735600
     33          1           0        5.313768    2.443182   -0.138868
     34          1           0        6.728019    1.752777   -0.952836
 ---------------------------------------------------------------------

 SCF Done:  E(RHF) =  -669.534682910     A.U. after   15 cycles
 E2 =    -0.2093326149D+01 EUMP2 =    -0.67162800905821D+03

 The electronic state is 1-A.
 Alpha  occ. eigenvalues --  -20.60743 -20.60738 -15.85791 -11.31137 -11.27731
 Alpha  occ. eigenvalues --  -11.27649 -11.27475 -11.26743 -11.26720 -11.22189
 Alpha  occ. eigenvalues --  -11.22120 -11.22030 -11.21930 -11.21551 -11.21261
 Alpha  occ. eigenvalues --   -1.59817  -1.39370  -1.19324  -1.09012  -1.08723
 Alpha  occ. eigenvalues --   -1.04744  -1.04028  -0.96455  -0.95553  -0.87449
 Alpha  occ. eigenvalues --   -0.86124  -0.82403  -0.80083  -0.78829  -0.77449
 Alpha  occ. eigenvalues --   -0.72015  -0.71139  -0.70463  -0.65718  -0.64970
 Alpha  occ. eigenvalues --   -0.64757  -0.62372  -0.61140  -0.59783  -0.58049
 Alpha  occ. eigenvalues --   -0.55804  -0.55172  -0.53088  -0.53048  -0.52846
 Alpha  occ. eigenvalues --   -0.52799  -0.50379  -0.48772  -0.48767  -0.48380
 Alpha  occ. eigenvalues --   -0.47159  -0.46350  -0.46300  -0.44781  -0.44265
 Alpha  occ. eigenvalues --   -0.37311  -0.36319
 Alpha virt. eigenvalues --    0.05061   0.11306   0.16497   0.18917   0.22870
 Alpha virt. eigenvalues --    0.23672   0.24599   0.26311   0.27162   0.28479
 Alpha virt. eigenvalues --    0.30046   0.31051   0.31291   0.31639   0.32375

 Mulliken charges:
               1
     1  C   -0.170563
     2  C   -0.219314
     3  C   -0.169701
     4  C    0.155211
     5  C   -0.179094
     6  C   -0.227180
     7  H    0.225630
     8  H    0.223330
     9  H    0.275517
    10  H    0.295365
    11  H    0.226527
    12  N    0.487010
    13  O   -0.461467
    14  O   -0.460374
    15  C   -0.298543
    16  C   -0.308491
    17  C   -0.486624
    18  H    0.148204
    19  H    0.154519
    20  H    0.142206
    21  H    0.156908
    22  H    0.162036
    23  H    0.157724
    24  H    0.172703
    25  C   -0.297805
    26  C   -0.300100
    27  C   -0.475654
    28  H    0.140859
    29  H    0.152645
    30  H    0.152122
    31  H    0.154860
    32  H    0.156488
    33  H    0.152783
    34  H    0.162266
 Sum of Mulliken charges =  -0.00000

 Dipole moment (field-independent basis, Debye):
    X=              2.4054    Y=              4.4358    Z=              0.6401  Tot=              5.0865
 Quadrupole moment (field-independent basis, Debye-Ang):
   XX=           -103.5113   YY=            -91.9771   ZZ=            -95.5057
   XY=            -16.3952   XZ=             -2.0920   YZ=             -0.7416

 Normal termination of Gaussian 16 at Wed May  5 23:59:53 2021.
