 Gaussian 16, Revision A.03,
 Gaussian 16:  EM64L-G16RevA.03 25-Dec-2016

 -------------
 #p 6-31g* mp2
 -------------

 ------------------------------------------------------
 Input file generated by CHIRIPA (05-May-2021 14:53:13)
 ------------------------------------------------------
 Symbolic Z-matrix:
 Charge =  0 Multiplicity = 1

                         Standard orientation:
 ---------------------------------------------------------------------
 Center     Atomic      Atomic             Coordinates (Angstroms)
 Number     Number       Type             X           Y           Z
 ---------------------------------------------------------------------
      1          6           0        5.688192    0.376191   -0.027538
      2          6           0        6.865852   -0.341128   -0.688261
      3          6           0        8.016991    0.604833   -1.031525
      4          1           0        5.326575    1.167973   -0.697805
      5          1           0        6.038249    0.875958    0.886293
      6          1           0        6.513389   -0.840544   -1.599836
      7          1           0        7.224585   -1.131420   -0.016424
      8          1           0        8.396221    1.093758   -0.128343
      9          1           0        7.680985    1.386286   -1.720751
     10          1           0        8.848196    0.071194   -1.502894
     11          6           0        4.529553   -0.556225    0.321583
     12          6           0        3.351893    0.161093    0.982306
     13          6           0        2.200753   -0.784868    1.325570
     14          1           0        4.179496   -1.055993   -0.592248
     15          1           0        4.891170   -1.348008    0.991851
     16          1           0        2.993160    0.951385    0.310470
     17          1           0        3.704356    0.660510    1.893881
     18          1           0        2.536760   -1.566321    2.014796
     19          1           0        1.821523   -1.273793    0.422388
     20          1           0        1.369549   -0.251229    1.796940
     21          6           0       -1.486889    0.212429    0.156469
     22          6           0       -2.091164   -1.015629   -0.132050
     23          6           0       -3.477928   -1.106145   -0.284504
     24          6           0       -4.233424    0.056588   -0.141093
     25          6           0       -3.660816    1.294679    0.146206
     26          6           0       -2.272258    1.361638    0.294434
     27          1           0       -0.408921    0.273595    0.273258
     28          1           0       -1.483732   -1.909761   -0.239745
     29          1           0       -3.971722   -2.044032   -0.508007
     30          1           0       -4.292637    2.168698    0.247760
     31          1           0       -1.805694    2.316710    0.518486
     32          7           0       -5.702479   -0.026767   -0.300251
     33          8           0       -6.345867    1.012204   -0.169008
     34          8           0       -6.182718   -1.129496   -0.553230
 ---------------------------------------------------------------------

 SCF Done:  E(RHF) =  -669.535395674     A.U. after   15 cycles
 E2 =    -0.2091017458D+01 EUMP2 =    -0.67162641313225D+03

 The electronic state is 1-A.
 Alpha  occ. eigenvalues --  -20.60706 -20.60700 -15.85759 -11.31108 -11.27680
 Alpha  occ. eigenvalues --  -11.27676 -11.27337 -11.26680 -11.26668 -11.22700
 Alpha  occ. eigenvalues --  -11.22444 -11.22240 -11.22167 -11.22054 -11.21541
 Alpha  occ. eigenvalues --   -1.59782  -1.39336  -1.19276  -1.09251  -1.08667
 Alpha  occ. eigenvalues --   -1.04680  -1.04394  -0.96863  -0.95505  -0.87882
 Alpha  occ. eigenvalues --   -0.86074  -0.82345  -0.80467  -0.79009  -0.77398
 Alpha  occ. eigenvalues --   -0.71977  -0.71105  -0.70399  -0.65878  -0.64924
 Alpha  occ. eigenvalues --   -0.64689  -0.62034  -0.61787  -0.60294  -0.58449
 Alpha  occ. eigenvalues --   -0.56204  -0.55146  -0.53501  -0.53262  -0.52995
 Alpha  occ. eigenvalues --   -0.52768  -0.50781  -0.48781  -0.48733  -0.48725
 Alpha  occ. eigenvalues --   -0.47485  -0.46563  -0.46454  -0.44745  -0.44621
 Alpha  occ. eigenvalues --   -0.37242  -0.36291
 Alpha virt. eigenvalues --    0.05124   0.11363   0.16572   0.19839   0.22458
 Alpha virt. eigenvalues --    0.23798   0.25671   0.26171   0.26615   0.27374
 Alpha virt. eigenvalues --    0.29644   0.30081   0.30834   0.31160   0.31475

 Mulliken charges:
               1
     1  C   -0.298935
     2  C   -0.300266
     3  C   -0.476140
     4  H    0.150010
     5  H    0.150906
     6  H    0.152513
     7  H    0.152971
     8  H    0.155942
     9  H    0.155682
    10  H    0.161983
    11  C   -0.298923
    12  C   -0.301254
    13  C   -0.483668
    14  H    0.149979
    15  H    0.152135
    16  H    0.149967
    17  H    0.156461
    18  H    0.163928
    19  H    0.150569
    20  H    0.157516
    21  C   -0.177132
    22  C   -0.221660
    23  C   -0.170875
    24  C    0.158172
    25  C   -0.170694
    26  C   -0.220782
    27  H    0.237831
    28  H    0.223463
    29  H    0.275276
    30  H    0.275200
    31  H    0.223144
    32  N    0.488053
    33  O   -0.460699
    34  O   -0.460675
 Sum of Mulliken charges =  -0.00000

 Dipole moment (field-independent basis, Debye):
    X=              5.4797    Y=              0.2685    Z=              0.5983  Tot=              5.5188
 Quadrupole moment (field-independent basis, Debye-Ang):
   XX=           -138.9250   YY=            -90.1780   ZZ=            -94.7708
   XY=             -2.0126   XZ=             -2.3977   YZ=              0.9595

 Normal termination of Gaussian 16 at Thu May  6 20:17:31 2021.
