 Gaussian 16, Revision A.03,
 Gaussian 16:  EM64L-G16RevA.03 25-Dec-2016

 -------------
 #p 6-31g* mp2
 -------------

 ------------------------------------------------------
 Input file generated by CHIRIPA (05-May-2021 14:57:23)
 ------------------------------------------------------
 Symbolic Z-matrix:
 Charge =  0 Multiplicity = 1

                         Standard orientation:
 ---------------------------------------------------------------------
 Center     Atomic      Atomic             Coordinates (Angstroms)
 Number     Number       Type             X           Y           Z
 ---------------------------------------------------------------------
      1          6           0        2.810387    2.260580    0.427984
      2          6           0        2.079937    1.090132    0.197730
      3          6           0        2.733851   -0.103806   -0.120791
      4          6           0        4.125501   -0.091243   -0.201056
      5          6           0        4.881219    1.058558    0.022856
      6          6           0        4.206236    2.241092    0.339967
      7          1           0        2.294227    3.183630    0.674872
      8          1           0        0.995816    1.102309    0.265399
      9          1           0        2.193027   -1.024349   -0.303896
     10          1           0        5.961017    1.015254   -0.051839
     11          1           0        4.776097    3.148565    0.518277
     12          7           0        4.828924   -1.349175   -0.537514
     13          8           0        6.055735   -1.311795   -0.602115
     14          8           0        4.140135   -2.348704   -0.730257
     15          6           0       -2.151152   -0.646653    1.767547
     16          6           0       -3.170165   -1.577827    1.541609
     17          6           0       -4.204875   -1.294530    0.645133
     18          6           0       -4.189234   -0.064785   -0.011200
     19          6           0       -3.188065    0.883593    0.192591
     20          6           0       -2.163333    0.578924    1.093506
     21          1           0       -1.351241   -0.875026    2.465675
     22          1           0       -3.163275   -2.530428    2.063670
     23          1           0       -5.006202   -1.997212    0.451409
     24          1           0       -3.222005    1.824744   -0.342669
     25          1           0       -1.373258    1.303993    1.267002
     26          7           0       -5.279353    0.246442   -0.962609
     27          8           0       -5.242718    1.336983   -1.528308
     28          8           0       -6.149782   -0.606053   -1.124608
 ---------------------------------------------------------------------

 SCF Done:  E(RHF) =  -868.336981296     A.U. after   16 cycles
 E2 =    -0.2599567706D+01 EUMP2 =    -0.87093654900151D+03

 The electronic state is 1-A.
 Alpha  occ. eigenvalues --  -20.61243 -20.61232 -20.61221 -20.61213 -15.86302
 Alpha  occ. eigenvalues --  -15.86279 -11.31799 -11.31736 -11.28469 -11.28367
 Alpha  occ. eigenvalues --  -11.28356 -11.28300 -11.28199 -11.28118 -11.27572
 Alpha  occ. eigenvalues --  -11.27437 -11.27367 -11.27324  -1.60313  -1.60294
 Alpha  occ. eigenvalues --   -1.39863  -1.39845  -1.20009  -1.19931  -1.09379
 Alpha  occ. eigenvalues --   -1.09313  -1.05447  -1.05351  -0.96181  -0.96127
 Alpha  occ. eigenvalues --   -0.86864  -0.86731  -0.83025  -0.82955  -0.78069
 Alpha  occ. eigenvalues --   -0.77963  -0.72517  -0.72494  -0.71639  -0.71619
 Alpha  occ. eigenvalues --   -0.71103  -0.71045  -0.65685  -0.65645  -0.65587
 Alpha  occ. eigenvalues --   -0.65218  -0.62876  -0.62603  -0.55939  -0.55857
 Alpha  occ. eigenvalues --   -0.53782  -0.53675  -0.53644  -0.53312  -0.49293
 Alpha  occ. eigenvalues --   -0.49263  -0.49255  -0.49243  -0.45239  -0.45229
 Alpha  occ. eigenvalues --   -0.37995  -0.37923  -0.37046  -0.36958
 Alpha virt. eigenvalues --    0.04517   0.04563   0.10444   0.10678   0.15913
 Alpha virt. eigenvalues --    0.16013   0.18773   0.21844   0.24927   0.27373
 Alpha virt. eigenvalues --    0.27838   0.28463   0.29771   0.31199   0.31747

 Mulliken charges:
               1
     1  C   -0.171211
     2  C   -0.223480
     3  C   -0.172108
     4  C    0.159183
     5  C   -0.170078
     6  C   -0.218216
     7  H    0.224823
     8  H    0.219764
     9  H    0.276537
    10  H    0.277518
    11  H    0.225495
    12  N    0.488020
    13  O   -0.458679
    14  O   -0.459958
    15  C   -0.171797
    16  C   -0.218169
    17  C   -0.168793
    18  C    0.158894
    19  C   -0.169773
    20  C   -0.223830
    21  H    0.227693
    22  H    0.227301
    23  H    0.278601
    24  H    0.275862
    25  H    0.216043
    26  N    0.488138
    27  O   -0.459862
    28  O   -0.457918
 Sum of Mulliken charges =  -0.00000

 Dipole moment (field-independent basis, Debye):
    X=              1.2984    Y=              3.2041    Z=              4.5173  Tot=              5.6884
 Quadrupole moment (field-independent basis, Debye-Ang):
   XX=           -151.7099   YY=           -100.8047   ZZ=           -106.7318
   XY=             28.0056   XZ=             -8.9668   YZ=             -2.1888

 Normal termination of Gaussian 16 at Fri May  7 01:48:03 2021.
