 Gaussian 16, Revision A.03,
 Gaussian 16:  EM64L-G16RevA.03 25-Dec-2016

 -------------
 #p 6-31g* mp2
 -------------

 ------------------------------------------------------
 Input file generated by CHIRIPA (05-May-2021 14:55:22)
 ------------------------------------------------------
 Symbolic Z-matrix:
 Charge =  0 Multiplicity = 1

                         Standard orientation:
 ---------------------------------------------------------------------
 Center     Atomic      Atomic             Coordinates (Angstroms)
 Number     Number       Type             X           Y           Z
 ---------------------------------------------------------------------
      1          6           0       -0.742641   -1.582713    1.989338
      2          6           0       -0.197241   -1.650380    0.703072
      3          6           0       -0.874164   -1.092252   -0.385422
      4          6           0       -2.099875   -0.471194   -0.150459
      5          6           0       -2.669288   -0.387618    1.119216
      6          6           0       -1.974752   -0.952659    2.192946
      7          1           0       -0.209950   -2.018965    2.829172
      8          1           0        0.759459   -2.139070    0.541978
      9          1           0       -0.474890   -1.130380   -1.391674
     10          1           0       -3.624797    0.106043    1.248516
     11          1           0       -2.400723   -0.898614    3.190780
     12          7           0       -2.825827    0.123330   -1.294983
     13          8           0       -3.904141    0.664986   -1.061566
     14          8           0       -2.302767    0.036404   -2.403806
     15          6           0        2.268254    1.193075    0.495801
     16          6           0        1.413914    2.338389   -0.048573
     17          6           0        0.888160    3.259063    1.053124
     18          1           0        1.673764    0.608661    1.211336
     19          1           0        3.113466    1.611361    1.059759
     20          1           0        0.571333    1.918084   -0.612502
     21          1           0        2.010445    2.920030   -0.763038
     22          1           0        1.717892    3.705628    1.610551
     23          1           0        0.270602    2.697990    1.761941
     24          1           0        0.280022    4.070739    0.641771
     25          6           0        2.801135    0.264024   -0.593524
     26          6           0        3.655474   -0.881291   -0.049150
     27          6           0        4.181229   -1.801965   -1.150847
     28          1           0        1.955922   -0.154262   -1.157481
     29          1           0        3.395624    0.848437   -1.309057
     30          1           0        3.058943   -1.462932    0.665316
     31          1           0        4.498056   -0.460986    0.514780
     32          1           0        4.798786   -1.240891   -1.859664
     33          1           0        3.351497   -2.248530   -1.708273
     34          1           0        4.789366   -2.613640   -0.739494
 ---------------------------------------------------------------------

 SCF Done:  E(RHF) =  -669.534376378     A.U. after   15 cycles
 E2 =    -0.2095607326D+01 EUMP2 =    -0.67162998370443D+03

 The electronic state is 1-A.
 Alpha  occ. eigenvalues --  -20.60860 -20.60855 -15.85912 -11.31316 -11.27867
 Alpha  occ. eigenvalues --  -11.27862 -11.27610 -11.26896 -11.26862 -11.22375
 Alpha  occ. eigenvalues --  -11.21911 -11.21759 -11.21678 -11.21600 -11.21129
 Alpha  occ. eigenvalues --   -1.59933  -1.39485  -1.19490  -1.08926  -1.08818
 Alpha  occ. eigenvalues --   -1.04892  -1.03932  -0.96370  -0.95702  -0.87391
 Alpha  occ. eigenvalues --   -0.86291  -0.82534  -0.80032  -0.78629  -0.77586
 Alpha  occ. eigenvalues --   -0.72127  -0.71258  -0.70588  -0.65725  -0.65126
 Alpha  occ. eigenvalues --   -0.64805  -0.62247  -0.61281  -0.59756  -0.57964
 Alpha  occ. eigenvalues --   -0.55703  -0.55376  -0.53193  -0.53118  -0.52953
 Alpha  occ. eigenvalues --   -0.52752  -0.50325  -0.48895  -0.48882  -0.48321
 Alpha  occ. eigenvalues --   -0.47098  -0.46153  -0.46090  -0.44875  -0.44169
 Alpha  occ. eigenvalues --   -0.37425  -0.36422
 Alpha virt. eigenvalues --    0.04926   0.11014   0.16331   0.19252   0.23242
 Alpha virt. eigenvalues --    0.23656   0.25089   0.25907   0.27616   0.28660
 Alpha virt. eigenvalues --    0.29259   0.30430   0.31263   0.31366   0.31951

 Mulliken charges:
               1
     1  C   -0.173612
     2  C   -0.219021
     3  C   -0.172966
     4  C    0.159164
     5  C   -0.171199
     6  C   -0.218224
     7  H    0.226538
     8  H    0.231622
     9  H    0.276422
    10  H    0.276214
    11  H    0.224242
    12  N    0.487944
    13  O   -0.459749
    14  O   -0.460172
    15  C   -0.301002
    16  C   -0.300833
    17  C   -0.476608
    18  H    0.150949
    19  H    0.148835
    20  H    0.155318
    21  H    0.153371
    22  H    0.153793
    23  H    0.153847
    24  H    0.163820
    25  C   -0.300608
    26  C   -0.302374
    27  C   -0.475870
    28  H    0.144707
    29  H    0.155046
    30  H    0.140033
    31  H    0.156795
    32  H    0.160623
    33  H    0.151594
    34  H    0.161362
 Sum of Mulliken charges =  -0.00000

 Dipole moment (field-independent basis, Debye):
    X=              2.5300    Y=             -2.0345    Z=              4.0030  Tot=              5.1540
 Quadrupole moment (field-independent basis, Debye-Ang):
   XX=           -102.3067   YY=            -93.2611   ZZ=            -94.9026
   XY=              2.9356   XZ=            -11.5523   YZ=             -1.3085

 Normal termination of Gaussian 16 at Thu May  6 07:52:03 2021.
