 Gaussian 16, Revision A.03,
 Gaussian 16:  EM64L-G16RevA.03 25-Dec-2016

 -------------
 #p 6-31g* mp2
 -------------

 ------------------------------------------------------
 Input file generated by CHIRIPA (05-May-2021 14:51:07)
 ------------------------------------------------------
 Symbolic Z-matrix:
 Charge =  0 Multiplicity = 1

                         Standard orientation:
 ---------------------------------------------------------------------
 Center     Atomic      Atomic             Coordinates (Angstroms)
 Number     Number       Type             X           Y           Z
 ---------------------------------------------------------------------
      1          6           0        3.279003    0.265000   -0.107734
      2          6           0        2.949040   -1.085649   -0.744018
      3          6           0        4.154736   -2.024410   -0.797135
      4          1           0        4.091489    0.741016   -0.673614
      5          1           0        3.661337    0.099812    0.909089
      6          1           0        2.566141   -0.917879   -1.758837
      7          1           0        2.137115   -1.558419   -0.176672
      8          1           0        4.534500   -2.221128    0.210676
      9          1           0        4.965963   -1.576949   -1.380479
     10          1           0        3.896470   -2.984045   -1.255676
     11          6           0        2.083738    1.214440   -0.047465
     12          6           0        2.413701    2.565089    0.588819
     13          6           0        1.208006    3.503850    0.641936
     14          1           0        1.701404    1.379629   -1.064288
     15          1           0        1.271252    0.738424    0.518415
     16          1           0        3.225626    3.037859    0.021473
     17          1           0        2.796601    2.397320    1.603638
     18          1           0        0.396778    3.056390    1.225280
     19          1           0        0.828242    3.700569   -0.365875
     20          1           0        1.466271    4.463485    1.100477
     21          6           0       -1.975163   -0.986786    0.231424
     22          6           0       -1.922419   -2.461667    0.631336
     23          6           0       -0.502885   -2.941163    0.935969
     24          1           0       -1.336559   -0.828969   -0.648475
     25          1           0       -1.547675   -0.379064    1.040944
     26          1           0       -2.351146   -3.066313   -0.178116
     27          1           0       -2.561374   -2.616027    1.510270
     28          1           0       -0.069157   -2.363072    1.758338
     29          1           0        0.142267   -2.815916    0.060359
     30          1           0       -0.488371   -3.998124    1.219663
     31          6           0       -3.387577   -0.492654   -0.076225
     32          6           0       -3.440323    0.982227   -0.476137
     33          6           0       -4.859856    1.461722   -0.780770
     34          1           0       -3.815066   -1.100376   -0.885745
     35          1           0       -4.026183   -0.650471    0.803673
     36          1           0       -2.801367    1.136587   -1.355071
     37          1           0       -3.011596    1.586872    0.333315
     38          1           0       -5.505008    1.336474    0.094840
     39          1           0       -5.293585    0.883631   -1.603139
     40          1           0       -4.874370    2.518684   -1.064464
 ---------------------------------------------------------------------

 SCF Done:  E(RHF) =  -470.733247530     A.U. after   11 cycles
 E2 =    -0.1583505937D+01 EUMP2 =    -0.47231675346759D+03

 The electronic state is 1-A.
 Alpha  occ. eigenvalues --  -11.21634 -11.21592 -11.21565 -11.21502 -11.21418
 Alpha  occ. eigenvalues --  -11.21358 -11.21342 -11.21283 -11.21111 -11.21063
 Alpha  occ. eigenvalues --  -11.21045 -11.21020  -1.08450  -1.08370  -1.03554
 Alpha  occ. eigenvalues --   -1.03474  -0.96005  -0.95926  -0.87032  -0.86935
 Alpha  occ. eigenvalues --   -0.79665  -0.79501  -0.78346  -0.78093  -0.65076
 Alpha  occ. eigenvalues --   -0.65010  -0.60996  -0.60845  -0.59384  -0.59286
 Alpha  occ. eigenvalues --   -0.57663  -0.57491  -0.55307  -0.55202  -0.52692
 Alpha  occ. eigenvalues --   -0.52632  -0.52493  -0.52301  -0.49987  -0.49840
 Alpha  occ. eigenvalues --   -0.48110  -0.47747  -0.46723  -0.46469  -0.46113
 Alpha  occ. eigenvalues --   -0.45743  -0.45644  -0.45270  -0.43800  -0.43729
 Alpha virt. eigenvalues --    0.21118   0.23010   0.23559   0.24273   0.25781
 Alpha virt. eigenvalues --    0.26127   0.27145   0.27556   0.27862   0.30178
 Alpha virt. eigenvalues --    0.30710   0.31357   0.31636   0.31797   0.32213

 Mulliken charges:
               1
     1  C   -0.297484
     2  C   -0.308647
     3  C   -0.475096
     4  H    0.149246
     5  H    0.149149
     6  H    0.150384
     7  H    0.161737
     8  H    0.155179
     9  H    0.154874
    10  H    0.159765
    11  C   -0.300942
    12  C   -0.299683
    13  C   -0.475412
    14  H    0.148929
    15  H    0.153103
    16  H    0.151830
    17  H    0.151606
    18  H    0.154744
    19  H    0.155356
    20  H    0.159974
    21  C   -0.300032
    22  C   -0.299509
    23  C   -0.481225
    24  H    0.151843
    25  H    0.149509
    26  H    0.152135
    27  H    0.151919
    28  H    0.154340
    29  H    0.161308
    30  H    0.160746
    31  C   -0.298422
    32  C   -0.299553
    33  C   -0.475760
    34  H    0.149585
    35  H    0.149549
    36  H    0.152255
    37  H    0.152094
    38  H    0.155091
    39  H    0.155083
    40  H    0.160434
 Sum of Mulliken charges =  -0.00000

 Dipole moment (field-independent basis, Debye):
    X=             -0.0379    Y=             -0.0238    Z=             -0.0004  Tot=              0.0448
 Quadrupole moment (field-independent basis, Debye-Ang):
   XX=            -86.3945   YY=            -85.4465   ZZ=            -83.0614
   XY=              1.1472   XZ=             -0.4473   YZ=             -0.0620

 Normal termination of Gaussian 16 at Wed May  5 18:03:54 2021.
