 Gaussian 16, Revision A.03,
 Gaussian 16:  EM64L-G16RevA.03 25-Dec-2016

 -------------
 #p 6-31g* mp2
 -------------

 ------------------------------------------------------
 Input file generated by CHIRIPA (05-May-2021 14:55:21)
 ------------------------------------------------------
 Symbolic Z-matrix:
 Charge =  0 Multiplicity = 1

                         Standard orientation:
 ---------------------------------------------------------------------
 Center     Atomic      Atomic             Coordinates (Angstroms)
 Number     Number       Type             X           Y           Z
 ---------------------------------------------------------------------
      1          6           0       -0.982899   -0.289745    2.045355
      2          6           0       -1.700392   -1.445652    1.720387
      3          6           0       -2.664860   -1.421709    0.708568
      4          6           0       -2.887204   -0.219336    0.039126
      5          6           0       -2.188710    0.948990    0.339808
      6          6           0       -1.228914    0.901786    1.355245
      7          1           0       -0.235492   -0.317379    2.832765
      8          1           0       -1.511440   -2.372418    2.254658
      9          1           0       -3.234757   -2.301866    0.436614
     10          1           0       -2.399255    1.858003   -0.210451
     11          1           0       -0.673213    1.801020    1.605483
     12          7           0       -3.905770   -0.181676   -1.033956
     13          8           0       -4.082923    0.890139   -1.608818
     14          8           0       -4.507682   -1.224687   -1.279858
     15          6           0        4.019884   -0.147450   -0.596674
     16          6           0        3.991672   -1.598227   -0.114559
     17          6           0        5.076190   -2.458238   -0.764172
     18          1           0        3.900063   -0.128201   -1.688562
     19          1           0        5.007832    0.283476   -0.383000
     20          1           0        3.003614   -2.025863   -0.327831
     21          1           0        4.111382   -1.614013    0.976329
     22          1           0        6.070454   -2.058085   -0.540745
     23          1           0        4.956392   -2.472275   -1.852314
     24          1           0        5.037813   -3.491477   -0.405279
     25          6           0        2.941606    0.724840    0.043759
     26          6           0        2.969818    2.175617   -0.438357
     27          6           0        1.885300    3.035628    0.211256
     28          1           0        1.953659    0.293915   -0.169916
     29          1           0        3.061427    0.705592    1.135646
     30          1           0        2.850109    2.191403   -1.529244
     31          1           0        3.957877    2.603254   -0.225085
     32          1           0        2.005099    3.049666    1.299398
     33          1           0        0.891037    2.635476   -0.012171
     34          1           0        1.923678    4.068867   -0.147637
 ---------------------------------------------------------------------

 SCF Done:  E(RHF) =  -669.535468405     A.U. after   15 cycles
 E2 =    -0.2092034393D+01 EUMP2 =    -0.67162750279873D+03

 The electronic state is 1-A.
 Alpha  occ. eigenvalues --  -20.60770 -20.60764 -15.85823 -11.31191 -11.27759
 Alpha  occ. eigenvalues --  -11.27750 -11.27486 -11.26772 -11.26714 -11.22235
 Alpha  occ. eigenvalues --  -11.22073 -11.21977 -11.21936 -11.21846 -11.21445
 Alpha  occ. eigenvalues --   -1.59845  -1.39399  -1.19363  -1.08988  -1.08750
 Alpha  occ. eigenvalues --   -1.04768  -1.04107  -0.96575  -0.95587  -0.87603
 Alpha  occ. eigenvalues --   -0.86154  -0.82422  -0.80186  -0.78799  -0.77465
 Alpha  occ. eigenvalues --   -0.72040  -0.71169  -0.70458  -0.65615  -0.65010
 Alpha  occ. eigenvalues --   -0.64772  -0.62156  -0.61480  -0.59928  -0.58178
 Alpha  occ. eigenvalues --   -0.55873  -0.55250  -0.53264  -0.53205  -0.53082
 Alpha  occ. eigenvalues --   -0.52659  -0.50510  -0.48809  -0.48796  -0.48469
 Alpha  occ. eigenvalues --   -0.47197  -0.46343  -0.46236  -0.44804  -0.44345
 Alpha  occ. eigenvalues --   -0.37321  -0.36344
 Alpha virt. eigenvalues --    0.05040   0.11232   0.16436   0.20725   0.22524
 Alpha virt. eigenvalues --    0.23918   0.25801   0.25958   0.26909   0.28196
 Alpha virt. eigenvalues --    0.28932   0.30668   0.30795   0.31244   0.31949

 Mulliken charges:
               1
     1  C   -0.171620
     2  C   -0.218831
     3  C   -0.171188
     4  C    0.158658
     5  C   -0.173946
     6  C   -0.219581
     7  H    0.226350
     8  H    0.223527
     9  H    0.275574
    10  H    0.275776
    11  H    0.229978
    12  N    0.488074
    13  O   -0.460387
    14  O   -0.460486
    15  C   -0.298531
    16  C   -0.300086
    17  C   -0.475941
    18  H    0.152517
    19  H    0.150366
    20  H    0.152589
    21  H    0.149156
    22  H    0.155821
    23  H    0.157169
    24  H    0.160561
    25  C   -0.301692
    26  C   -0.298995
    27  C   -0.481337
    28  H    0.153973
    29  H    0.143762
    30  H    0.156328
    31  H    0.154032
    32  H    0.150136
    33  H    0.153153
    34  H    0.165122
 Sum of Mulliken charges =  -0.00000

 Dipole moment (field-independent basis, Debye):
    X=              3.6840    Y=             -0.1503    Z=              3.7100  Tot=              5.2305
 Quadrupole moment (field-independent basis, Debye-Ang):
   XX=           -115.9745   YY=            -90.4712   ZZ=            -94.5791
   XY=              1.4132   XZ=            -10.5567   YZ=             -1.9198

 Normal termination of Gaussian 16 at Wed May  5 20:35:15 2021.
