 Gaussian 16, Revision A.03,
 Gaussian 16:  EM64L-G16RevA.03 25-Dec-2016

 -------------
 #p 6-31g* mp2
 -------------

 ------------------------------------------------------
 Input file generated by CHIRIPA (05-May-2021 14:53:11)
 ------------------------------------------------------
 Symbolic Z-matrix:
 Charge =  0 Multiplicity = 1

                         Standard orientation:
 ---------------------------------------------------------------------
 Center     Atomic      Atomic             Coordinates (Angstroms)
 Number     Number       Type             X           Y           Z
 ---------------------------------------------------------------------
      1          6           0        3.639497    0.639591   -0.264023
      2          6           0        4.350504    1.793751    0.443343
      3          6           0        4.335840    3.086378   -0.373170
      4          1           0        4.116793    0.465146   -1.238036
      5          1           0        2.600723    0.930821   -0.472661
      6          1           0        5.387236    1.499912    0.651822
      7          1           0        3.871581    1.965343    1.415868
      8          1           0        3.307414    3.406332   -0.569564
      9          1           0        4.831680    2.938257   -1.337952
     10          1           0        4.849460    3.898265    0.151134
     11          6           0        3.645765   -0.659490    0.539767
     12          6           0        2.934758   -1.813650   -0.167599
     13          6           0        2.949422   -3.106277    0.648914
     14          1           0        4.684539   -0.950720    0.748404
     15          1           0        3.168469   -0.485045    1.513780
     16          1           0        3.413681   -1.985242   -1.140124
     17          1           0        1.898026   -1.519812   -0.376078
     18          1           0        2.453582   -2.958156    1.613695
     19          1           0        3.977848   -3.426231    0.845308
     20          1           0        2.435802   -3.918164    0.124609
     21          6           0       -4.083975    2.134990    0.447093
     22          6           0       -2.814091    2.195995   -0.136169
     23          6           0       -2.118860    1.023790   -0.447832
     24          6           0       -2.726104   -0.197879   -0.161348
     25          6           0       -3.989955   -0.291473    0.419350
     26          6           0       -4.666827    0.893639    0.722504
     27          1           0       -4.616916    3.050600    0.685895
     28          1           0       -2.358987    3.158647   -0.351175
     29          1           0       -1.134553    1.042066   -0.899743
     30          1           0       -4.417766   -1.265828    0.621903
     31          1           0       -5.652908    0.843225    1.175433
     32          7           0       -1.999812   -1.445672   -0.486789
     33          8           0       -2.556627   -2.509521   -0.224455
     34          8           0       -0.887482   -1.336216   -0.998041
 ---------------------------------------------------------------------

 SCF Done:  E(RHF) =  -669.536145518     A.U. after   15 cycles
 E2 =    -0.2091085272D+01 EUMP2 =    -0.67162723079044D+03

 The electronic state is 1-A.
 Alpha  occ. eigenvalues --  -20.60973 -20.60961 -15.86004 -11.31317 -11.27882
 Alpha  occ. eigenvalues --  -11.27875 -11.27614 -11.26885 -11.26875 -11.21338
 Alpha  occ. eigenvalues --  -11.20975 -11.20932 -11.20659 -11.20364 -11.19990
 Alpha  occ. eigenvalues --   -1.60029  -1.39586  -1.19485  -1.08889  -1.07818
 Alpha  occ. eigenvalues --   -1.04880  -1.02861  -0.95733  -0.95361  -0.86386
 Alpha  occ. eigenvalues --   -0.86280  -0.82569  -0.78975  -0.77653  -0.77515
 Alpha  occ. eigenvalues --   -0.72227  -0.71343  -0.70593  -0.65142  -0.64882
 Alpha  occ. eigenvalues --   -0.64456  -0.62228  -0.60255  -0.58770  -0.56924
 Alpha  occ. eigenvalues --   -0.55383  -0.54675  -0.53212  -0.52972  -0.52051
 Alpha  occ. eigenvalues --   -0.51780  -0.49345  -0.48988  -0.48980  -0.47276
 Alpha  occ. eigenvalues --   -0.46036  -0.45227  -0.45098  -0.44699  -0.43128
 Alpha  occ. eigenvalues --   -0.37462  -0.36481
 Alpha virt. eigenvalues --    0.04878   0.11173   0.16351   0.21057   0.23225
 Alpha virt. eigenvalues --    0.25016   0.26069   0.27429   0.27688   0.28483
 Alpha virt. eigenvalues --    0.29052   0.31033   0.31989   0.32160   0.32576

 Mulliken charges:
               1
     1  C   -0.296170
     2  C   -0.299182
     3  C   -0.474331
     4  H    0.149849
     5  H    0.145690
     6  H    0.152267
     7  H    0.149963
     8  H    0.150144
     9  H    0.155831
    10  H    0.158870
    11  C   -0.297572
    12  C   -0.310874
    13  C   -0.474116
    14  H    0.146383
    15  H    0.146469
    16  H    0.148148
    17  H    0.178114
    18  H    0.152345
    19  H    0.148670
    20  H    0.165731
    21  C   -0.170569
    22  C   -0.218533
    23  C   -0.171090
    24  C    0.157805
    25  C   -0.170651
    26  C   -0.218558
    27  H    0.226138
    28  H    0.224026
    29  H    0.275594
    30  H    0.275940
    31  H    0.223925
    32  N    0.491883
    33  O   -0.458497
    34  O   -0.463645
 Sum of Mulliken charges =  -0.00000

 Dipole moment (field-independent basis, Debye):
    X=             -2.8234    Y=              4.3070    Z=              1.0870  Tot=              5.2634
 Quadrupole moment (field-independent basis, Debye-Ang):
   XX=            -78.0001   YY=            -96.5871   ZZ=            -95.4368
   XY=             -9.6731   XZ=             -5.0101   YZ=             -1.2778

 Normal termination of Gaussian 16 at Wed May  5 16:56:16 2021.
