 Gaussian 16, Revision A.03,
 Gaussian 16:  EM64L-G16RevA.03 25-Dec-2016

 -------------
 #p 6-31g* mp2
 -------------

 ------------------------------------------------------
 Input file generated by CHIRIPA (05-May-2021 14:51:09)
 ------------------------------------------------------
 Symbolic Z-matrix:
 Charge =  0 Multiplicity = 1

                         Standard orientation:
 ---------------------------------------------------------------------
 Center     Atomic      Atomic             Coordinates (Angstroms)
 Number     Number       Type             X           Y           Z
 ---------------------------------------------------------------------
      1          6           0       -3.127982   -0.456819    0.837402
      2          6           0       -1.623471   -0.653080    0.647889
      3          6           0       -0.995155   -1.506397    1.750098
      4          1           0       -3.310032    0.011512    1.814371
      5          1           0       -3.618225   -1.439800    0.865776
      6          1           0       -1.136381    0.330025    0.618495
      7          1           0       -1.444969   -1.120823   -0.328824
      8          1           0       -1.454272   -2.499919    1.777045
      9          1           0       -1.143931   -1.040827    2.729746
     10          1           0        0.080729   -1.633936    1.594961
     11          6           0       -3.770470    0.394142   -0.256583
     12          6           0       -5.274980    0.590403   -0.067070
     13          6           0       -5.903297    1.443719   -1.169278
     14          1           0       -3.280226    1.377123   -0.284957
     15          1           0       -3.588419   -0.074189   -1.233552
     16          1           0       -5.453483    1.058146    0.909643
     17          1           0       -5.762070   -0.392702   -0.037675
     18          1           0       -5.754521    0.978150   -2.148927
     19          1           0       -5.444180    2.437241   -1.196226
     20          1           0       -6.979181    1.571259   -1.014141
     21          6           0        3.359373    0.789734   -0.276474
     22          6           0        4.562309    1.532256    0.306266
     23          6           0        4.367472    3.048628    0.327438
     24          1           0        3.172652    1.151142   -1.296996
     25          1           0        2.464610    1.037207    0.311363
     26          1           0        5.454795    1.282373   -0.281649
     27          1           0        4.746306    1.168903    1.325451
     28          1           0        3.493752    3.316387    0.930363
     29          1           0        4.206267    3.430503   -0.685867
     30          1           0        5.239276    3.559581    0.747849
     31          6           0        3.539079   -0.727057   -0.304345
     32          6           0        2.336141   -1.469579   -0.887086
     33          6           0        2.530980   -2.985951   -0.908257
     34          1           0        4.433842   -0.974530   -0.892182
     35          1           0        3.725799   -1.088464    0.716177
     36          1           0        2.152146   -1.106225   -1.906270
     37          1           0        1.443656   -1.219697   -0.299171
     38          1           0        2.692185   -3.367825    0.105047
     39          1           0        3.404699   -3.253710   -1.511184
     40          1           0        1.659175   -3.496904   -1.328668
 ---------------------------------------------------------------------

 SCF Done:  E(RHF) =  -470.733190133     A.U. after   11 cycles
 E2 =    -0.1583010921D+01 EUMP2 =    -0.47231620105424D+03

 The electronic state is 1-A.
 Alpha  occ. eigenvalues --  -11.21635 -11.21611 -11.21597 -11.21546 -11.21426
 Alpha  occ. eigenvalues --  -11.21396 -11.21364 -11.21336 -11.21106 -11.21077
 Alpha  occ. eigenvalues --  -11.21071 -11.21060  -1.08460  -1.08412  -1.03581
 Alpha  occ. eigenvalues --   -1.03496  -0.96018  -0.95959  -0.87025  -0.86982
 Alpha  occ. eigenvalues --   -0.79628  -0.79571  -0.78299  -0.78196  -0.65086
 Alpha  occ. eigenvalues --   -0.65068  -0.61019  -0.60927  -0.59456  -0.59237
 Alpha  occ. eigenvalues --   -0.57687  -0.57500  -0.55304  -0.55238  -0.52719
 Alpha  occ. eigenvalues --   -0.52655  -0.52453  -0.52376  -0.49945  -0.49901
 Alpha  occ. eigenvalues --   -0.47942  -0.47884  -0.46666  -0.46573  -0.45859
 Alpha  occ. eigenvalues --   -0.45744  -0.45724  -0.45644  -0.43808  -0.43770
 Alpha virt. eigenvalues --    0.20706   0.23076   0.23669   0.24846   0.26122
 Alpha virt. eigenvalues --    0.26591   0.26946   0.27733   0.27901   0.29114
 Alpha virt. eigenvalues --    0.30695   0.31017   0.31538   0.31730   0.32283

 Mulliken charges:
               1
     1  C   -0.298512
     2  C   -0.300473
     3  C   -0.480468
     4  H    0.149687
     5  H    0.149690
     6  H    0.151869
     7  H    0.153266
     8  H    0.155818
     9  H    0.155326
    10  H    0.163351
    11  C   -0.298353
    12  C   -0.299691
    13  C   -0.475720
    14  H    0.149666
    15  H    0.149809
    16  H    0.151939
    17  H    0.151943
    18  H    0.155217
    19  H    0.155238
    20  H    0.160285
    21  C   -0.298391
    22  C   -0.299651
    23  C   -0.475682
    24  H    0.149774
    25  H    0.149355
    26  H    0.151980
    27  H    0.151965
    28  H    0.155035
    29  H    0.155182
    30  H    0.160253
    31  C   -0.298127
    32  C   -0.309806
    33  C   -0.475479
    34  H    0.149595
    35  H    0.149249
    36  H    0.151964
    37  H    0.162579
    38  H    0.155025
    39  H    0.155248
    40  H    0.160044
 Sum of Mulliken charges =  -0.00000

 Dipole moment (field-independent basis, Debye):
    X=             -0.0219    Y=              0.0002    Z=             -0.0040  Tot=              0.0223
 Quadrupole moment (field-independent basis, Debye-Ang):
   XX=            -84.9849   YY=            -85.6786   ZZ=            -84.1411
   XY=              0.5561   XZ=             -0.7083   YZ=              0.7486

 Normal termination of Gaussian 16 at Wed May  5 19:44:55 2021.
