 Gaussian 16, Revision A.03,
 Gaussian 16:  EM64L-G16RevA.03 25-Dec-2016

 -------------
 #p 6-31g* mp2
 -------------

 ------------------------------------------------------
 Input file generated by CHIRIPA (05-May-2021 14:53:13)
 ------------------------------------------------------
 Symbolic Z-matrix:
 Charge =  0 Multiplicity = 1

                         Standard orientation:
 ---------------------------------------------------------------------
 Center     Atomic      Atomic             Coordinates (Angstroms)
 Number     Number       Type             X           Y           Z
 ---------------------------------------------------------------------
      1          6           0       -4.027221    0.766551   -0.040623
      2          6           0       -3.312061    2.069521    0.318265
      3          6           0       -4.127419    3.310862   -0.045136
      4          1           0       -4.246683    0.760654   -1.117074
      5          1           0       -4.996388    0.734020    0.476148
      6          1           0       -2.343928    2.098953   -0.197939
      7          1           0       -3.094106    2.072233    1.393953
      8          1           0       -5.087627    3.308629    0.480787
      9          1           0       -4.333187    3.335500   -1.120149
     10          1           0       -3.597507    4.231047    0.220030
     11          6           0       -3.224671   -0.483262    0.316600
     12          6           0       -3.939830   -1.786233   -0.042288
     13          6           0       -3.124473   -3.027573    0.321113
     14          1           0       -2.255504   -0.450731   -0.200171
     15          1           0       -3.005209   -0.477365    1.393051
     16          1           0       -4.157786   -1.788944   -1.117976
     17          1           0       -4.907964   -1.815664    0.473916
     18          1           0       -2.918705   -3.052211    1.396126
     19          1           0       -2.164264   -3.025340   -0.204811
     20          1           0       -3.654385   -3.947758    0.055947
     21          6           0        4.693568    1.539532    0.316722
     22          6           0        3.470800    1.980903   -0.199565
     23          6           0        2.432759    1.075466   -0.438737
     24          6           0        2.652875   -0.270194   -0.148845
     25          6           0        3.859781   -0.740750    0.366174
     26          6           0        4.883821    0.182507    0.597448
     27          1           0        5.494505    2.249819    0.499448
     28          1           0        3.320221    3.034196   -0.418524
     29          1           0        1.476102    1.389976   -0.837872
     30          1           0        3.980100   -1.796940    0.574507
     31          1           0        5.832387   -0.163116    0.998462
     32          7           0        1.561359   -1.238172   -0.397865
     33          8           0        1.780429   -2.418453   -0.134080
     34          8           0        0.507427   -0.798264   -0.852116
 ---------------------------------------------------------------------

 SCF Done:  E(RHF) =  -669.536529884     A.U. after   15 cycles
 E2 =    -0.2091318544D+01 EUMP2 =    -0.67162784842816D+03

 The electronic state is 1-A.
 Alpha  occ. eigenvalues --  -20.61026 -20.61019 -15.86047 -11.31331 -11.27890
 Alpha  occ. eigenvalues --  -11.27885 -11.27621 -11.26889 -11.26879 -11.21028
 Alpha  occ. eigenvalues --  -11.20672 -11.20524 -11.20393 -11.20033 -11.19633
 Alpha  occ. eigenvalues --   -1.60074  -1.39632  -1.19495  -1.08906  -1.07448
 Alpha  occ. eigenvalues --   -1.04886  -1.02590  -0.95755  -0.95021  -0.86288
 Alpha  occ. eigenvalues --   -0.86039  -0.82593  -0.78707  -0.77655  -0.77176
 Alpha  occ. eigenvalues --   -0.72273  -0.71380  -0.70605  -0.65154  -0.64889
 Alpha  occ. eigenvalues --   -0.64074  -0.62234  -0.59985  -0.58457  -0.56623
 Alpha  occ. eigenvalues --   -0.55393  -0.54292  -0.53219  -0.52978  -0.51777
 Alpha  occ. eigenvalues --   -0.51430  -0.49052  -0.49026  -0.48940  -0.47002
 Alpha  occ. eigenvalues --   -0.45750  -0.45176  -0.44752  -0.44408  -0.42817
 Alpha  occ. eigenvalues --   -0.37471  -0.36485
 Alpha virt. eigenvalues --    0.04861   0.11171   0.16346   0.21179   0.23688
 Alpha virt. eigenvalues --    0.25282   0.26665   0.27456   0.27919   0.28918
 Alpha virt. eigenvalues --    0.29061   0.31013   0.32079   0.32449   0.32480

 Mulliken charges:
               1
     1  C   -0.297010
     2  C   -0.298088
     3  C   -0.474957
     4  H    0.148273
     5  H    0.145786
     6  H    0.149811
     7  H    0.149727
     8  H    0.154758
     9  H    0.154523
    10  H    0.155558
    11  C   -0.310574
    12  C   -0.297597
    13  C   -0.479856
    14  H    0.177524
    15  H    0.143742
    16  H    0.149704
    17  H    0.145196
    18  H    0.150595
    19  H    0.174573
    20  H    0.153810
    21  C   -0.170479
    22  C   -0.218547
    23  C   -0.170367
    24  C    0.157769
    25  C   -0.170495
    26  C   -0.218609
    27  H    0.226162
    28  H    0.224072
    29  H    0.275496
    30  H    0.275981
    31  H    0.223955
    32  N    0.492565
    33  O   -0.458388
    34  O   -0.464612
 Sum of Mulliken charges =  -0.00000

 Dipole moment (field-independent basis, Debye):
    X=              4.2232    Y=              3.3099    Z=              0.7948  Tot=              5.4242
 Quadrupole moment (field-independent basis, Debye-Ang):
   XX=            -74.2966   YY=            -95.5590   ZZ=            -94.6007
   XY=              6.2135   XZ=              2.7835   YZ=             -1.8790

 Normal termination of Gaussian 16 at Wed May  5 18:34:42 2021.
