 Gaussian 16, Revision A.03,
 Gaussian 16:  EM64L-G16RevA.03 25-Dec-2016

 -------------
 #p 6-31g* mp2
 -------------

 ------------------------------------------------------
 Input file generated by CHIRIPA (05-May-2021 14:51:12)
 ------------------------------------------------------
 Symbolic Z-matrix:
 Charge =  0 Multiplicity = 1

                         Standard orientation:
 ---------------------------------------------------------------------
 Center     Atomic      Atomic             Coordinates (Angstroms)
 Number     Number       Type             X           Y           Z
 ---------------------------------------------------------------------
      1          6           0        4.054695    0.349576   -0.267881
      2          6           0        4.055821    1.583816    0.634690
      3          6           0        5.420028    2.271745    0.693736
      4          1           0        4.810225   -0.361571    0.093215
      5          1           0        4.361850    0.644416   -1.280857
      6          1           0        3.747419    1.286980    1.645329
      7          1           0        3.300068    2.292024    0.271516
      8          1           0        5.731658    2.595671   -0.304543
      9          1           0        6.181551    1.584915    1.077076
     10          1           0        5.398190    3.151493    1.344448
     11          6           0        2.697909   -0.349038   -0.337162
     12          6           0        2.696783   -1.583279   -1.239732
     13          6           0        1.332576   -2.271207   -1.298779
     14          1           0        2.390754   -0.643878    0.675814
     15          1           0        1.942380    0.362108   -0.698258
     16          1           0        3.452536   -2.291486   -0.876559
     17          1           0        3.005185   -1.286442   -2.250372
     18          1           0        0.571053   -1.584377   -1.682119
     19          1           0        1.020946   -2.595133   -0.300500
     20          1           0        1.354414   -3.150956   -1.949490
     21          6           0       -3.517253    0.603996   -0.142932
     22          6           0       -4.973838    1.066576   -0.094284
     23          6           0       -5.240156    2.276289   -0.990645
     24          1           0       -2.864934    1.435390    0.157416
     25          1           0       -3.252406    0.358030   -1.180598
     26          1           0       -5.236270    1.310278    0.943191
     27          1           0       -5.622777    0.233928   -0.394598
     28          1           0       -5.005630    2.041738   -2.033996
     29          1           0       -4.616926    3.124204   -0.688606
     30          1           0       -6.287446    2.590206   -0.940636
     31          6           0       -3.235351   -0.604534    0.747975
     32          6           0       -1.778767   -1.067115    0.699326
     33          6           0       -1.512448   -2.276828    1.595687
     34          1           0       -3.500199   -0.358567    1.785641
     35          1           0       -3.887670   -1.435927    0.447627
     36          1           0       -1.129827   -0.234465    0.999641
     37          1           0       -1.516334   -1.310816   -0.338148
     38          1           0       -2.135678   -3.124742    1.293649
     39          1           0       -1.746975   -2.042275    2.639040
     40          1           0       -0.465159   -2.590742    1.545678
 ---------------------------------------------------------------------

 SCF Done:  E(RHF) =  -470.732496869     A.U. after   11 cycles
 E2 =    -0.1583528069D+01 EUMP2 =    -0.47231602493783D+03

 The electronic state is 1-A.
 Alpha  occ. eigenvalues --  -11.21605 -11.21590 -11.21584 -11.21485 -11.21401
 Alpha  occ. eigenvalues --  -11.21370 -11.21342 -11.21302 -11.21074 -11.21062
 Alpha  occ. eigenvalues --  -11.21025 -11.21016  -1.08435  -1.08380  -1.03565
 Alpha  occ. eigenvalues --   -1.03451  -0.96028  -0.95898  -0.87012  -0.86950
 Alpha  occ. eigenvalues --   -0.79661  -0.79496  -0.78296  -0.78137  -0.65064
 Alpha  occ. eigenvalues --   -0.65018  -0.60951  -0.60892  -0.59488  -0.59232
 Alpha  occ. eigenvalues --   -0.57805  -0.57336  -0.55284  -0.55229  -0.52735
 Alpha  occ. eigenvalues --   -0.52664  -0.52443  -0.52237  -0.49981  -0.49827
 Alpha  occ. eigenvalues --   -0.48001  -0.47794  -0.46662  -0.46495  -0.45899
 Alpha  occ. eigenvalues --   -0.45706  -0.45680  -0.45515  -0.43780  -0.43738
 Alpha virt. eigenvalues --    0.21457   0.23095   0.23433   0.25012   0.25528
 Alpha virt. eigenvalues --    0.26385   0.26684   0.27696   0.27931   0.29297
 Alpha virt. eigenvalues --    0.30042   0.31095   0.31518   0.31949   0.32406

 Mulliken charges:
               1
     1  C   -0.298276
     2  C   -0.299653
     3  C   -0.475694
     4  H    0.149622
     5  H    0.149589
     6  H    0.151846
     7  H    0.151884
     8  H    0.155211
     9  H    0.155201
    10  H    0.160209
    11  C   -0.298658
    12  C   -0.299709
    13  C   -0.481943
    14  H    0.149317
    15  H    0.150329
    16  H    0.151631
    17  H    0.151719
    18  H    0.157397
    19  H    0.161124
    20  H    0.159648
    21  C   -0.298137
    22  C   -0.299569
    23  C   -0.475691
    24  H    0.149470
    25  H    0.148934
    26  H    0.151954
    27  H    0.151949
    28  H    0.155052
    29  H    0.155076
    30  H    0.160218
    31  C   -0.298140
    32  C   -0.303187
    33  C   -0.478488
    34  H    0.149094
    35  H    0.149405
    36  H    0.152150
    37  H    0.157518
    38  H    0.155205
    39  H    0.154884
    40  H    0.161510
 Sum of Mulliken charges =  -0.00000

 Dipole moment (field-independent basis, Debye):
    X=              0.0096    Y=             -0.0083    Z=             -0.0140  Tot=              0.0189
 Quadrupole moment (field-independent basis, Debye-Ang):
   XX=            -85.7794   YY=            -85.1976   ZZ=            -83.9647
   XY=             -0.2362   XZ=              0.0933   YZ=              0.4657

 Normal termination of Gaussian 16 at Wed May  5 23:10:47 2021.
