 Gaussian 16, Revision A.03,
 Gaussian 16:  EM64L-G16RevA.03 25-Dec-2016

 -------------
 #p 6-31g* mp2
 -------------

 ------------------------------------------------------
 Input file generated by CHIRIPA (05-May-2021 14:53:13)
 ------------------------------------------------------
 Symbolic Z-matrix:
 Charge =  0 Multiplicity = 1

                         Standard orientation:
 ---------------------------------------------------------------------
 Center     Atomic      Atomic             Coordinates (Angstroms)
 Number     Number       Type             X           Y           Z
 ---------------------------------------------------------------------
      1          6           0       -6.027746    0.405510   -0.133855
      2          6           0       -7.414212   -0.208993   -0.329002
      3          6           0       -8.474996    0.829619   -0.694812
      4          1           0       -6.080239    1.170782    0.652624
      5          1           0       -5.731351    0.924649   -1.055831
      6          1           0       -7.707315   -0.727994    0.592597
      7          1           0       -7.358371   -0.973025   -1.114974
      8          1           0       -8.209070    1.340393   -1.625937
      9          1           0       -8.559997    1.586816    0.091336
     10          1           0       -9.458467    0.368678   -0.829642
     11          6           0       -4.956528   -0.620254    0.232244
     12          6           0       -3.570062   -0.005752    0.427391
     13          6           0       -2.509277   -1.044363    0.793201
     14          1           0       -5.252923   -1.139393    1.154220
     15          1           0       -4.904034   -1.385526   -0.554235
     16          1           0       -3.625903    0.758281    1.213363
     17          1           0       -3.276958    0.513250   -0.494207
     18          1           0       -2.424277   -1.801560    0.007053
     19          1           0       -2.775204   -1.555138    1.724326
     20          1           0       -1.525807   -0.583423    0.928031
     21          6           0        1.795736    0.122121    0.335007
     22          6           0        2.434386   -1.074991   -0.004947
     23          6           0        3.816295   -1.107935   -0.214206
     24          6           0        4.531939    0.080188   -0.074536
     25          6           0        3.924475    1.288589    0.263171
     26          6           0        2.541504    1.298017    0.467746
     27          1           0        0.721824    0.138580    0.495745
     28          1           0        1.857745   -1.989739   -0.108720
     29          1           0        4.336163   -2.020858   -0.478266
     30          1           0        4.525985    2.184326    0.359388
     31          1           0        2.048187    2.229162    0.731665
     32          7           0        5.995467    0.057759   -0.293590
     33          8           0        6.603418    1.118113   -0.164437
     34          8           0        6.506915   -1.019751   -0.590290
 ---------------------------------------------------------------------

 SCF Done:  E(RHF) =  -669.535511906     A.U. after   15 cycles
 E2 =    -0.2090635430D+01 EUMP2 =    -0.67162614733670D+03

 The electronic state is 1-A.
 Alpha  occ. eigenvalues --  -20.60729 -20.60724 -15.85782 -11.31141 -11.27712
 Alpha  occ. eigenvalues --  -11.27707 -11.27435 -11.26725 -11.26710 -11.22558
 Alpha  occ. eigenvalues --  -11.22315 -11.22129 -11.22096 -11.21970 -11.21487
 Alpha  occ. eigenvalues --   -1.59805  -1.39358  -1.19313  -1.09144  -1.08708
 Alpha  occ. eigenvalues --   -1.04716  -1.04284  -0.96749  -0.95546  -0.87769
 Alpha  occ. eigenvalues --   -0.86112  -0.82380  -0.80353  -0.78914  -0.77426
 Alpha  occ. eigenvalues --   -0.72000  -0.71128  -0.70445  -0.65765  -0.64965
 Alpha  occ. eigenvalues --   -0.64721  -0.62064  -0.61667  -0.60197  -0.58358
 Alpha  occ. eigenvalues --   -0.56015  -0.55265  -0.53431  -0.53149  -0.53046
 Alpha  occ. eigenvalues --   -0.52807  -0.50669  -0.48763  -0.48756  -0.48661
 Alpha  occ. eigenvalues --   -0.47365  -0.46466  -0.46360  -0.44765  -0.44533
 Alpha  occ. eigenvalues --   -0.37291  -0.36322
 Alpha virt. eigenvalues --    0.05109   0.11333   0.16600   0.19554   0.22388
 Alpha virt. eigenvalues --    0.23702   0.25814   0.25985   0.26791   0.27394
 Alpha virt. eigenvalues --    0.28421   0.30269   0.30735   0.31411   0.32505

 Mulliken charges:
               1
     1  C   -0.298843
     2  C   -0.300193
     3  C   -0.476082
     4  H    0.150356
     5  H    0.150202
     6  H    0.152705
     7  H    0.152677
     8  H    0.155718
     9  H    0.155671
    10  H    0.161755
    11  C   -0.299223
    12  C   -0.299568
    13  C   -0.481085
    14  H    0.151246
    15  H    0.150966
    16  H    0.153336
    17  H    0.152313
    18  H    0.157508
    19  H    0.160970
    20  H    0.150559
    21  C   -0.177552
    22  C   -0.222210
    23  C   -0.170850
    24  C    0.158256
    25  C   -0.170665
    26  C   -0.221113
    27  H    0.237391
    28  H    0.224059
    29  H    0.275503
    30  H    0.275395
    31  H    0.223923
    32  N    0.487977
    33  O   -0.460558
    34  O   -0.460545
 Sum of Mulliken charges =  -0.00000

 Dipole moment (field-independent basis, Debye):
    X=             -5.4202    Y=              0.0557    Z=              0.7686  Tot=              5.4747
 Quadrupole moment (field-independent basis, Debye-Ang):
   XX=           -141.8880   YY=            -90.2702   ZZ=            -94.6139
   XY=              0.7817   XZ=              3.4764   YZ=              1.4833

 Normal termination of Gaussian 16 at Thu May  6 18:41:12 2021.
