 Gaussian 16, Revision A.03,
 Gaussian 16:  EM64L-G16RevA.03 25-Dec-2016

 -------------
 #p 6-31g* mp2
 -------------

 ------------------------------------------------------
 Input file generated by CHIRIPA (05-May-2021 14:51:11)
 ------------------------------------------------------
 Symbolic Z-matrix:
 Charge =  0 Multiplicity = 1

                         Standard orientation:
 ---------------------------------------------------------------------
 Center     Atomic      Atomic             Coordinates (Angstroms)
 Number     Number       Type             X           Y           Z
 ---------------------------------------------------------------------
      1          6           0        2.426029    0.839966   -0.011429
      2          6           0        3.510066    1.762139    0.547539
      3          6           0        2.941401    3.052434    1.138769
      4          1           0        1.856999    1.378315   -0.781709
      5          1           0        1.714224    0.595061    0.789040
      6          1           0        4.220386    2.004117   -0.253404
      7          1           0        4.076705    1.221469    1.316442
      8          1           0        2.248108    2.828887    1.956064
      9          1           0        2.392605    3.615982    0.377298
     10          1           0        3.733562    3.696855    1.532549
     11          6           0        2.978917   -0.454081   -0.605974
     12          6           0        1.894879   -1.376254   -1.164941
     13          6           0        2.463544   -2.666549   -1.756172
     14          1           0        3.690722   -0.209176   -1.406442
     15          1           0        3.547946   -0.992430    0.164306
     16          1           0        1.328241   -0.835584   -1.933845
     17          1           0        1.184560   -1.618233   -0.363999
     18          1           0        3.012340   -3.230097   -0.994701
     19          1           0        3.156838   -2.443002   -2.573467
     20          1           0        1.671383   -3.310971   -2.149951
     21          6           0       -2.746497    0.245135   -0.315464
     22          6           0       -4.058005    1.024505   -0.417995
     23          6           0       -4.131113    1.896295   -1.671961
     24          1           0       -1.905714    0.952235   -0.321707
     25          1           0       -2.631695   -0.384887   -1.208374
     26          1           0       -4.170967    1.651828    0.475493
     27          1           0       -4.895772    0.315478   -0.411315
     28          1           0       -4.043800    1.281913   -2.573911
     29          1           0       -3.314879    2.625856   -1.682065
     30          1           0       -5.076861    2.444556   -1.725172
     31          6           0       -2.658449   -0.631019    0.932867
     32          6           0       -1.346940   -1.410390    1.035397
     33          6           0       -1.273832   -2.282180    2.289364
     34          1           0       -2.773251   -0.000997    1.825777
     35          1           0       -3.499231   -1.338119    0.939109
     36          1           0       -0.509174   -0.701362    1.028717
     37          1           0       -1.233978   -2.037712    0.141909
     38          1           0       -2.090067   -3.011741    2.299467
     39          1           0       -1.361145   -1.667798    3.191314
     40          1           0       -0.328084   -2.830441    2.342574
 ---------------------------------------------------------------------

 SCF Done:  E(RHF) =  -470.732309300     A.U. after   11 cycles
 E2 =    -0.1584146325D+01 EUMP2 =    -0.47231645562542D+03

 The electronic state is 1-A.
 Alpha  occ. eigenvalues --  -11.21620 -11.21595 -11.21591 -11.21436 -11.21406
 Alpha  occ. eigenvalues --  -11.21400 -11.21339 -11.21321 -11.21122 -11.21102
 Alpha  occ. eigenvalues --  -11.21069 -11.21013  -1.08465  -1.08384  -1.03575
 Alpha  occ. eigenvalues --   -1.03477  -0.95996  -0.95963  -0.87017  -0.86973
 Alpha  occ. eigenvalues --   -0.79776  -0.79468  -0.78439  -0.78012  -0.65138
 Alpha  occ. eigenvalues --   -0.64987  -0.60948  -0.60924  -0.59456  -0.59243
 Alpha  occ. eigenvalues --   -0.57640  -0.57541  -0.55299  -0.55237  -0.52708
 Alpha  occ. eigenvalues --   -0.52642  -0.52425  -0.52383  -0.49952  -0.49898
 Alpha  occ. eigenvalues --   -0.48252  -0.47741  -0.46725  -0.46596  -0.46168
 Alpha  occ. eigenvalues --   -0.45723  -0.45689  -0.45041  -0.43792  -0.43743
 Alpha virt. eigenvalues --    0.21313   0.23241   0.23668   0.24235   0.25335
 Alpha virt. eigenvalues --    0.26446   0.26545   0.27783   0.28156   0.29736
 Alpha virt. eigenvalues --    0.30580   0.31289   0.31686   0.31794   0.32142

 Mulliken charges:
               1
     1  C   -0.302941
     2  C   -0.299346
     3  C   -0.475722
     4  H    0.149703
     5  H    0.152557
     6  H    0.152294
     7  H    0.152034
     8  H    0.154717
     9  H    0.155066
    10  H    0.160472
    11  C   -0.297753
    12  C   -0.309131
    13  C   -0.475239
    14  H    0.149189
    15  H    0.148965
    16  H    0.151039
    17  H    0.165329
    18  H    0.154502
    19  H    0.154715
    20  H    0.159385
    21  C   -0.298793
    22  C   -0.299638
    23  C   -0.475682
    24  H    0.150533
    25  H    0.149543
    26  H    0.151932
    27  H    0.151867
    28  H    0.155092
    29  H    0.155163
    30  H    0.160244
    31  C   -0.296842
    32  C   -0.309165
    33  C   -0.476684
    34  H    0.149216
    35  H    0.149478
    36  H    0.159080
    37  H    0.153949
    38  H    0.155756
    39  H    0.155208
    40  H    0.159906
 Sum of Mulliken charges =  -0.00000

 Dipole moment (field-independent basis, Debye):
    X=             -0.0271    Y=              0.0029    Z=              0.0137  Tot=              0.0305
 Quadrupole moment (field-independent basis, Debye-Ang):
   XX=            -84.8432   YY=            -85.4486   ZZ=            -84.7154
   XY=              0.8318   XZ=              0.1617   YZ=              0.0773

 Normal termination of Gaussian 16 at Wed May  5 16:45:11 2021.
