 Gaussian 16, Revision A.03,
 Gaussian 16:  EM64L-G16RevA.03 25-Dec-2016

 -------------
 #p 6-31g* mp2
 -------------

 ------------------------------------------------------
 Input file generated by CHIRIPA (05-May-2021 14:55:19)
 ------------------------------------------------------
 Symbolic Z-matrix:
 Charge =  0 Multiplicity = 1

                         Standard orientation:
 ---------------------------------------------------------------------
 Center     Atomic      Atomic             Coordinates (Angstroms)
 Number     Number       Type             X           Y           Z
 ---------------------------------------------------------------------
      1          6           0        3.793724    1.428760    1.150783
      2          6           0        4.380249    0.236481    0.713772
      3          6           0        3.625690   -0.712543    0.017681
      4          6           0        2.281250   -0.435466   -0.225217
      5          6           0        1.668176    0.743069    0.197259
      6          6           0        2.441942    1.677810    0.891588
      7          1           0        4.387344    2.160437    1.690839
      8          1           0        5.429841    0.040388    0.913647
      9          1           0        4.054431   -1.643827   -0.332046
     10          1           0        0.619578    0.910337   -0.016940
     11          1           0        1.983784    2.602884    1.229780
     12          7           0        1.472265   -1.432594   -0.961205
     13          8           0        0.289765   -1.164676   -1.162573
     14          8           0        2.036002   -2.463182   -1.322768
     15          6           0       -2.783522    1.039279    0.232537
     16          6           0       -2.896963    1.935998   -1.000755
     17          6           0       -2.277980    3.317514   -0.786115
     18          1           0       -3.272124    1.533371    1.083470
     19          1           0       -1.723735    0.929527    0.501243
     20          1           0       -3.956129    2.042903   -1.267879
     21          1           0       -2.408201    1.439629   -1.848897
     22          1           0       -1.214405    3.229397   -0.541895
     23          1           0       -2.771127    3.836097    0.042424
     24          1           0       -2.370167    3.942042   -1.680165
     25          6           0       -3.397804   -0.345194    0.033490
     26          6           0       -3.284363   -1.241913    1.266783
     27          6           0       -3.903346   -2.623428    1.052142
     28          1           0       -4.457591   -0.235441   -0.235215
     29          1           0       -2.909203   -0.839285   -0.817442
     30          1           0       -3.773125   -0.745544    2.114926
     31          1           0       -2.225197   -1.348817    1.533907
     32          1           0       -3.410199   -3.142012    0.223603
     33          1           0       -4.966922   -2.535312    0.807923
     34          1           0       -3.811158   -3.247957    1.946193
 ---------------------------------------------------------------------

 SCF Done:  E(RHF) =  -669.535980523     A.U. after   15 cycles
 E2 =    -0.2092395494D+01 EUMP2 =    -0.67162837601778D+03

 The electronic state is 1-A.
 Alpha  occ. eigenvalues --  -20.60933 -20.60923 -15.85971 -11.31271 -11.27833
 Alpha  occ. eigenvalues --  -11.27817 -11.27565 -11.26840 -11.26826 -11.21388
 Alpha  occ. eigenvalues --  -11.21233 -11.21145 -11.20956 -11.20665 -11.20374
 Alpha  occ. eigenvalues --   -1.59995  -1.39551  -1.19439  -1.08846  -1.07998
 Alpha  occ. eigenvalues --   -1.04834  -1.03149  -0.95698  -0.95615  -0.86640
 Alpha  occ. eigenvalues --   -0.86236  -0.82526  -0.79239  -0.77799  -0.77568
 Alpha  occ. eigenvalues --   -0.72199  -0.71309  -0.70556  -0.65103  -0.64918
 Alpha  occ. eigenvalues --   -0.64534  -0.62182  -0.60521  -0.59021  -0.57225
 Alpha  occ. eigenvalues --   -0.55342  -0.54916  -0.53164  -0.52935  -0.52336
 Alpha  occ. eigenvalues --   -0.52052  -0.49558  -0.48948  -0.48941  -0.47556
 Alpha  occ. eigenvalues --   -0.46257  -0.45362  -0.45161  -0.44943  -0.43380
 Alpha  occ. eigenvalues --   -0.37416  -0.36430
 Alpha virt. eigenvalues --    0.04922   0.11194   0.16434   0.19288   0.23080
 Alpha virt. eigenvalues --    0.24341   0.25951   0.27213   0.27906   0.28320
 Alpha virt. eigenvalues --    0.29508   0.31246   0.31777   0.31936   0.32540

 Mulliken charges:
               1
     1  C   -0.170342
     2  C   -0.218934
     3  C   -0.169764
     4  C    0.156520
     5  C   -0.180123
     6  C   -0.222239
     7  H    0.226094
     8  H    0.223796
     9  H    0.275745
    10  H    0.290991
    11  H    0.224590
    12  N    0.488986
    13  O   -0.464968
    14  O   -0.458951
    15  C   -0.299056
    16  C   -0.302837
    17  C   -0.473808
    18  H    0.146314
    19  H    0.143222
    20  H    0.152940
    21  H    0.161602
    22  H    0.142288
    23  H    0.154743
    24  H    0.162085
    25  C   -0.301445
    26  C   -0.298560
    27  C   -0.477047
    28  H    0.145769
    29  H    0.169477
    30  H    0.146193
    31  H    0.153928
    32  H    0.163239
    33  H    0.152220
    34  H    0.157335
 Sum of Mulliken charges =  -0.00000

 Dipole moment (field-independent basis, Debye):
    X=              2.9053    Y=              3.3538    Z=              2.4366  Tot=              5.0622
 Quadrupole moment (field-independent basis, Debye-Ang):
   XX=            -78.0660   YY=            -97.6582   ZZ=            -96.6687
   XY=              3.5969   XZ=              5.3768   YZ=             -1.3923

 Normal termination of Gaussian 16 at Wed May  5 23:44:23 2021.
