 Gaussian 16, Revision A.03,
 Gaussian 16:  EM64L-G16RevA.03 25-Dec-2016

 -------------
 #p 6-31g* mp2
 -------------

 ------------------------------------------------------
 Input file generated by CHIRIPA (05-May-2021 14:57:22)
 ------------------------------------------------------
 Symbolic Z-matrix:
 Charge =  0 Multiplicity = 1

                         Standard orientation:
 ---------------------------------------------------------------------
 Center     Atomic      Atomic             Coordinates (Angstroms)
 Number     Number       Type             X           Y           Z
 ---------------------------------------------------------------------
      1          6           0        2.578584    2.522090    0.097979
      2          6           0        1.720688    1.849532   -0.778491
      3          6           0        1.885246    0.483104   -1.024139
      4          6           0        2.922819   -0.182650   -0.373368
      5          6           0        3.793936    0.459489    0.505325
      6          6           0        3.610651    1.826149    0.735965
      7          1           0        2.443478    3.583655    0.282975
      8          1           0        0.918312    2.387454   -1.275359
      9          1           0        1.235539   -0.062227   -1.697869
     10          1           0        4.584721   -0.103664    0.985883
     11          1           0        4.278418    2.345882    1.417147
     12          7           0        3.106942   -1.629350   -0.625480
     13          8           0        4.028698   -2.193147   -0.039703
     14          8           0        2.326015   -2.172081   -1.404090
     15          6           0       -4.913170    0.191285   -1.158709
     16          6           0       -3.946754    1.201621   -1.116480
     17          6           0       -2.823095    1.075415   -0.294281
     18          6           0       -2.697120   -0.079669    0.475915
     19          6           0       -3.642729   -1.103731    0.455679
     20          6           0       -4.758346   -0.956143   -0.373878
     21          1           0       -5.782931    0.297629   -1.800271
     22          1           0       -4.064377    2.093826   -1.724902
     23          1           0       -2.059704    1.842195   -0.242318
     24          1           0       -3.497917   -1.981556    1.073636
     25          1           0       -5.507281   -1.742397   -0.404655
     26          7           0       -1.511810   -0.224595    1.350237
     27          8           0       -1.424094   -1.251993    2.019112
     28          8           0       -0.692924    0.691954    1.350097
 ---------------------------------------------------------------------

 SCF Done:  E(RHF) =  -868.337001957     A.U. after   16 cycles
 E2 =    -0.2601053681D+01 EUMP2 =    -0.87093805563874D+03

 The electronic state is 1-A.
 Alpha  occ. eigenvalues --  -20.61007 -20.61000 -20.59951 -20.59937 -15.86034
 Alpha  occ. eigenvalues --  -15.84998 -11.31476 -11.30218 -11.28122 -11.27982
 Alpha  occ. eigenvalues --  -11.27765 -11.27106 -11.27014 -11.26840 -11.26785
 Alpha  occ. eigenvalues --  -11.26563 -11.25886 -11.25809  -1.60071  -1.59017
 Alpha  occ. eigenvalues --   -1.39627  -1.38580  -1.19643  -1.18381  -1.09020
 Alpha  occ. eigenvalues --   -1.07823  -1.05059  -1.03809  -0.95850  -0.94687
 Alpha  occ. eigenvalues --   -0.86452  -0.85241  -0.82686  -0.81551  -0.77736
 Alpha  occ. eigenvalues --   -0.76605  -0.72269  -0.71401  -0.71235  -0.70749
 Alpha  occ. eigenvalues --   -0.70317  -0.69575  -0.65296  -0.65063  -0.64089
 Alpha  occ. eigenvalues --   -0.63897  -0.62417  -0.61215  -0.55540  -0.54369
 Alpha  occ. eigenvalues --   -0.53378  -0.53154  -0.52064  -0.51976  -0.49049
 Alpha  occ. eigenvalues --   -0.49002  -0.47990  -0.47976  -0.45015  -0.44019
 Alpha  occ. eigenvalues --   -0.37612  -0.36665  -0.36329  -0.35281
 Alpha virt. eigenvalues --    0.04771   0.06010   0.10974   0.12260   0.16272
 Alpha virt. eigenvalues --    0.17499   0.20595   0.22135   0.25956   0.27487
 Alpha virt. eigenvalues --    0.28770   0.29086   0.30484   0.31415   0.32868

 Mulliken charges:
               1
     1  C   -0.167054
     2  C   -0.202443
     3  C   -0.163922
     4  C    0.162068
     5  C   -0.168819
     6  C   -0.216432
     7  H    0.220822
     8  H    0.210718
     9  H    0.268406
    10  H    0.273313
    11  H    0.220273
    12  N    0.489009
    13  O   -0.461699
    14  O   -0.464743
    15  C   -0.170579
    16  C   -0.217895
    17  C   -0.174208
    18  C    0.159632
    19  C   -0.169274
    20  C   -0.217786
    21  H    0.226690
    22  H    0.222016
    23  H    0.268274
    24  H    0.278550
    25  H    0.225621
    26  N    0.488603
    27  O   -0.455423
    28  O   -0.463719
 Sum of Mulliken charges =  -0.00000

 Dipole moment (field-independent basis, Debye):
    X=             -4.9940    Y=              5.4739    Z=             -2.0103  Tot=              7.6775
 Quadrupole moment (field-independent basis, Debye-Ang):
   XX=            -83.1607   YY=           -103.8943   ZZ=           -107.3655
   XY=             16.1669   XZ=             11.8659   YZ=             -3.2213

 Normal termination of Gaussian 16 at Fri May  7 01:44:46 2021.
