 Gaussian 16, Revision A.03,
 Gaussian 16:  EM64L-G16RevA.03 25-Dec-2016

 -------------
 #p 6-31g* mp2
 -------------

 ------------------------------------------------------
 Input file generated by CHIRIPA (05-May-2021 14:57:25)
 ------------------------------------------------------
 Symbolic Z-matrix:
 Charge =  0 Multiplicity = 1

                         Standard orientation:
 ---------------------------------------------------------------------
 Center     Atomic      Atomic             Coordinates (Angstroms)
 Number     Number       Type             X           Y           Z
 ---------------------------------------------------------------------
      1          6           0       -6.824333   -0.522739   -0.430046
      2          6           0       -6.446706    0.676622    0.182696
      3          6           0       -5.103541    0.933108    0.473676
      4          6           0       -4.160052   -0.036194    0.136673
      5          6           0       -4.504894   -1.240769   -0.474371
      6          6           0       -5.853933   -1.475926   -0.756050
      7          1           0       -7.870018   -0.713699   -0.652474
      8          1           0       -7.198173    1.418694    0.437002
      9          1           0       -4.783490    1.853123    0.947552
     10          1           0       -3.733042   -1.961383   -0.715989
     11          1           0       -6.144299   -2.408255   -1.231965
     12          7           0       -2.734994    0.224046    0.439797
     13          8           0       -1.922989   -0.646053    0.132860
     14          8           0       -2.457023    1.293194    0.978583
     15          6           0        2.378573    1.547907   -0.464647
     16          6           0        2.210815    0.218131   -0.064556
     17          6           0        3.320837   -0.604861    0.147776
     18          6           0        4.589852   -0.062915   -0.050177
     19          6           0        4.789590    1.257953   -0.448550
     20          6           0        3.665156    2.062668   -0.655031
     21          1           0        1.510685    2.180127   -0.627319
     22          1           0        1.212825   -0.184327    0.084063
     23          1           0        3.219726   -1.637877    0.457731
     24          1           0        5.796949    1.630806   -0.588643
     25          1           0        3.798454    3.095017   -0.965723
     26          7           0        5.772611   -0.924504    0.171513
     27          8           0        6.880050   -0.423125   -0.009688
     28          8           0        5.569822   -2.084883    0.522275
 ---------------------------------------------------------------------

 SCF Done:  E(RHF) =  -868.341045715     A.U. after   16 cycles
 E2 =    -0.2598172470D+01 EUMP2 =    -0.87093921818502D+03

 The electronic state is 1-A.
 Alpha  occ. eigenvalues --  -20.61923 -20.61900 -20.59930 -20.59922 -15.86912
 Alpha  occ. eigenvalues --  -15.84970 -11.31948 -11.30116 -11.28474 -11.28469
 Alpha  occ. eigenvalues --  -11.28151 -11.27412 -11.27400 -11.26689 -11.26560
 Alpha  occ. eigenvalues --  -11.26236 -11.25673 -11.25336  -1.60964  -1.59009
 Alpha  occ. eigenvalues --   -1.40523  -1.38568  -1.20087  -1.18235  -1.09545
 Alpha  occ. eigenvalues --   -1.07654  -1.05438  -1.03586  -0.96434  -0.94539
 Alpha  occ. eigenvalues --   -0.86851  -0.84976  -0.83278  -0.81371  -0.78360
 Alpha  occ. eigenvalues --   -0.76460  -0.73147  -0.72252  -0.71195  -0.71188
 Alpha  occ. eigenvalues --   -0.70329  -0.69314  -0.65742  -0.65436  -0.63866
 Alpha  occ. eigenvalues --   -0.63526  -0.62787  -0.60917  -0.55949  -0.54045
 Alpha  occ. eigenvalues --   -0.53786  -0.53523  -0.51955  -0.51643  -0.49908
 Alpha  occ. eigenvalues --   -0.49875  -0.47963  -0.47924  -0.45996  -0.44024
 Alpha  occ. eigenvalues --   -0.38046  -0.37025  -0.36193  -0.35196
 Alpha virt. eigenvalues --    0.04150   0.06030   0.10635   0.12463   0.15716
 Alpha virt. eigenvalues --    0.17606   0.20812   0.22771   0.26750   0.27660
 Alpha virt. eigenvalues --    0.28736   0.29530   0.30425   0.31833   0.32423

 Mulliken charges:
               1
     1  C   -0.169543
     2  C   -0.218584
     3  C   -0.170384
     4  C    0.157319
     5  C   -0.170325
     6  C   -0.218531
     7  H    0.228285
     8  H    0.225636
     9  H    0.275959
    10  H    0.276083
    11  H    0.226008
    12  N    0.490012
    13  O   -0.467185
    14  O   -0.460522
    15  C   -0.172955
    16  C   -0.227877
    17  C   -0.174055
    18  C    0.158054
    19  C   -0.173583
    20  C   -0.219091
    21  H    0.230067
    22  H    0.249232
    23  H    0.273596
    24  H    0.271469
    25  H    0.219169
    26  N    0.488160
    27  O   -0.463853
    28  O   -0.462559
 Sum of Mulliken charges =  -0.00000

 Dipole moment (field-independent basis, Debye):
    X=             -9.9122    Y=              2.0980    Z=             -1.8352  Tot=             10.2966
 Quadrupole moment (field-independent basis, Debye-Ang):
   XX=           -100.5004   YY=            -98.7993   ZZ=           -105.5870
   XY=             19.6717   XZ=             -0.7331   YZ=              0.8837

 Normal termination of Gaussian 16 at Fri May  7 03:28:33 2021.
