 Gaussian 16, Revision A.03,
 Gaussian 16:  EM64L-G16RevA.03 25-Dec-2016

 -------------
 #p 6-31g* mp2
 -------------

 ------------------------------------------------------
 Input file generated by CHIRIPA (05-May-2021 14:51:10)
 ------------------------------------------------------
 Symbolic Z-matrix:
 Charge =  0 Multiplicity = 1

                         Standard orientation:
 ---------------------------------------------------------------------
 Center     Atomic      Atomic             Coordinates (Angstroms)
 Number     Number       Type             X           Y           Z
 ---------------------------------------------------------------------
      1          6           0        2.768294    1.190299    0.344552
      2          6           0        2.766582    2.522476   -0.405972
      3          6           0        2.063455    3.636962    0.369481
      4          1           0        1.731581    0.894330    0.555674
      5          1           0        3.258899    1.326620    1.318266
      6          1           0        2.277358    2.383359   -1.378557
      7          1           0        3.803413    2.815213   -0.615500
      8          1           0        2.554676    3.804683    1.333417
      9          1           0        1.019950    3.370375    0.566024
     10          1           0        2.073894    4.580342   -0.185303
     11          6           0        3.467609    0.066308   -0.417897
     12          6           0        3.469321   -1.265869    0.332627
     13          6           0        4.172448   -2.380355   -0.442826
     14          1           0        2.977004   -0.070013   -1.391611
     15          1           0        4.504323    0.362277   -0.629019
     16          1           0        2.432490   -1.558606    0.542155
     17          1           0        3.958546   -1.126752    1.305213
     18          1           0        5.215954   -2.113768   -0.639369
     19          1           0        3.681227   -2.548076   -1.406762
     20          1           0        4.162010   -3.323734    0.111958
     21          6           0       -3.709187   -0.342877   -0.353717
     22          6           0       -4.378799    0.843186    0.341165
     23          6           0       -5.559878    1.403219   -0.452064
     24          1           0       -3.368388   -0.031022   -1.350485
     25          1           0       -4.454403   -1.134757   -0.511757
     26          1           0       -3.632221    1.632043    0.499092
     27          1           0       -4.717875    0.528522    1.336470
     28          1           0       -6.325339    0.634182   -0.597844
     29          1           0       -5.233518    1.743972   -1.439979
     30          1           0       -6.023753    2.250304    0.062839
     31          6           0       -2.526715   -0.913730    0.427062
     32          6           0       -1.857103   -2.099793   -0.267820
     33          6           0       -0.676027   -2.659826    0.525409
     34          1           0       -1.781501   -0.121851    0.585103
     35          1           0       -2.867515   -1.225585    1.423830
     36          1           0       -1.518029   -1.785130   -1.263125
     37          1           0       -2.603681   -2.888651   -0.425747
     38          1           0       -1.002386   -3.000579    1.513324
     39          1           0        0.089435   -1.890789    0.671189
     40          1           0       -0.212150   -3.506912    0.010506
 ---------------------------------------------------------------------

 SCF Done:  E(RHF) =  -470.733314058     A.U. after   11 cycles
 E2 =    -0.1582835448D+01 EUMP2 =    -0.47231614950654D+03

 The electronic state is 1-A.
 Alpha  occ. eigenvalues --  -11.21660 -11.21633 -11.21631 -11.21544 -11.21456
 Alpha  occ. eigenvalues --  -11.21428 -11.21394 -11.21357 -11.21125 -11.21101
 Alpha  occ. eigenvalues --  -11.21093 -11.21038  -1.08480  -1.08437  -1.03581
 Alpha  occ. eigenvalues --   -1.03522  -0.96029  -0.95979  -0.87053  -0.86989
 Alpha  occ. eigenvalues --   -0.79675  -0.79560  -0.78309  -0.78233  -0.65178
 Alpha  occ. eigenvalues --   -0.65015  -0.61077  -0.60838  -0.59392  -0.59349
 Alpha  occ. eigenvalues --   -0.57637  -0.57588  -0.55347  -0.55247  -0.52721
 Alpha  occ. eigenvalues --   -0.52672  -0.52471  -0.52389  -0.50076  -0.49852
 Alpha  occ. eigenvalues --   -0.48029  -0.47853  -0.46818  -0.46508  -0.45937
 Alpha  occ. eigenvalues --   -0.45795  -0.45756  -0.45487  -0.43830  -0.43785
 Alpha virt. eigenvalues --    0.20476   0.23190   0.23883   0.24458   0.25450
 Alpha virt. eigenvalues --    0.26954   0.27069   0.27585   0.27861   0.29167
 Alpha virt. eigenvalues --    0.30720   0.31638   0.31695   0.31903   0.31979

 Mulliken charges:
               1
     1  C   -0.299220
     2  C   -0.299659
     3  C   -0.475590
     4  H    0.148798
     5  H    0.149991
     6  H    0.151754
     7  H    0.152292
     8  H    0.155427
     9  H    0.154701
    10  H    0.160364
    11  C   -0.297759
    12  C   -0.308220
    13  C   -0.475108
    14  H    0.149141
    15  H    0.149745
    16  H    0.160826
    17  H    0.151754
    18  H    0.154891
    19  H    0.154922
    20  H    0.160404
    21  C   -0.298356
    22  C   -0.299665
    23  C   -0.475742
    24  H    0.149611
    25  H    0.149755
    26  H    0.151862
    27  H    0.152100
    28  H    0.155240
    29  H    0.155209
    30  H    0.160437
    31  C   -0.298606
    32  C   -0.299335
    33  C   -0.482501
    34  H    0.148995
    35  H    0.150069
    36  H    0.151709
    37  H    0.152324
    38  H    0.155918
    39  H    0.160721
    40  H    0.160799
 Sum of Mulliken charges =  -0.00000

 Dipole moment (field-independent basis, Debye):
    X=             -0.0182    Y=             -0.0147    Z=              0.0101  Tot=              0.0255
 Quadrupole moment (field-independent basis, Debye-Ang):
   XX=            -84.5450   YY=            -85.3507   ZZ=            -84.7527
   XY=              1.5589   XZ=             -0.0965   YZ=             -0.3875

 Normal termination of Gaussian 16 at Wed May  5 21:24:35 2021.
