 Gaussian 16, Revision A.03,
 Gaussian 16:  EM64L-G16RevA.03 25-Dec-2016

 -------------
 #p 6-31g* mp2
 -------------

 ------------------------------------------------------
 Input file generated by CHIRIPA (05-May-2021 14:57:24)
 ------------------------------------------------------
 Symbolic Z-matrix:
 Charge =  0 Multiplicity = 1

                         Standard orientation:
 ---------------------------------------------------------------------
 Center     Atomic      Atomic             Coordinates (Angstroms)
 Number     Number       Type             X           Y           Z
 ---------------------------------------------------------------------
      1          6           0       -4.884454    2.199704    0.136119
      2          6           0       -3.627601    2.075638    0.737324
      3          6           0       -2.942974    0.857080    0.706511
      4          6           0       -3.547420   -0.221716    0.062978
      5          6           0       -4.798397   -0.129619   -0.545187
      6          6           0       -5.464818    1.098621   -0.502093
      7          1           0       -5.409218    3.150070    0.164826
      8          1           0       -3.174458    2.929067    1.233677
      9          1           0       -1.968850    0.733226    1.163852
     10          1           0       -5.224563   -0.998137   -1.032504
     11          1           0       -6.440791    1.192057   -0.969844
     12          7           0       -2.832273   -1.516874    0.023856
     13          8           0       -3.386359   -2.452286   -0.549405
     14          8           0       -1.731195   -1.572083    0.567195
     15          6           0        5.835920    1.293384   -0.121520
     16          6           0        5.829541   -0.055079    0.250135
     17          6           0        4.632727   -0.776978    0.282539
     18          6           0        3.455435   -0.115983   -0.064389
     19          6           0        3.429241    1.226520   -0.438943
     20          6           0        4.637864    1.928760   -0.464268
     21          1           0        6.770221    1.846536   -0.143943
     22          1           0        6.758454   -0.551106    0.516821
     23          1           0        4.599067   -1.821799    0.566497
     24          1           0        2.487308    1.693741   -0.699488
     25          1           0        4.639808    2.975901   -0.753295
     26          7           0        2.182173   -0.869818   -0.033832
     27          8           0        1.158439   -0.264481   -0.343951
     28          8           0        2.232032   -2.051737    0.299661
 ---------------------------------------------------------------------

 SCF Done:  E(RHF) =  -868.335165315     A.U. after   16 cycles
 E2 =    -0.2600614404D+01 EUMP2 =    -0.87093577971839D+03

 The electronic state is 1-A.
 Alpha  occ. eigenvalues --  -20.60105 -20.60070 -20.59443 -20.59267 -15.85170
 Alpha  occ. eigenvalues --  -15.84405 -11.30844 -11.30184 -11.27477 -11.27422
 Alpha  occ. eigenvalues --  -11.27239 -11.26847 -11.26763 -11.26684 -11.26546
 Alpha  occ. eigenvalues --  -11.26507 -11.25955 -11.25933  -1.59147  -1.58429
 Alpha  occ. eigenvalues --   -1.38705  -1.37964  -1.19041  -1.18413  -1.08373
 Alpha  occ. eigenvalues --   -1.07742  -1.04493  -1.03879  -0.95156  -0.94498
 Alpha  occ. eigenvalues --   -0.85876  -0.85257  -0.81996  -0.81328  -0.76994
 Alpha  occ. eigenvalues --   -0.76293  -0.71383  -0.70626  -0.70485  -0.70149
 Alpha  occ. eigenvalues --   -0.69760  -0.69527  -0.64689  -0.64496  -0.64056
 Alpha  occ. eigenvalues --   -0.63900  -0.61841  -0.61214  -0.54976  -0.54395
 Alpha  occ. eigenvalues --   -0.52803  -0.52590  -0.52191  -0.51982  -0.48131
 Alpha  occ. eigenvalues --   -0.48092  -0.47425  -0.47333  -0.44053  -0.43234
 Alpha  occ. eigenvalues --   -0.37037  -0.36432  -0.36112  -0.35502
 Alpha virt. eigenvalues --    0.05543   0.06254   0.11538   0.12148   0.16978
 Alpha virt. eigenvalues --    0.17650   0.21632   0.22191   0.27518   0.28045
 Alpha virt. eigenvalues --    0.28536   0.29157   0.31148   0.31693   0.32761

 Mulliken charges:
               1
     1  C   -0.172251
     2  C   -0.219708
     3  C   -0.169422
     4  C    0.158948
     5  C   -0.171838
     6  C   -0.219076
     7  H    0.221229
     8  H    0.218870
     9  H    0.282061
    10  H    0.273946
    11  H    0.219804
    12  N    0.486113
    13  O   -0.468807
    14  O   -0.440717
    15  C   -0.171820
    16  C   -0.218367
    17  C   -0.171179
    18  C    0.159344
    19  C   -0.172099
    20  C   -0.218352
    21  H    0.224070
    22  H    0.222764
    23  H    0.276793
    24  H    0.272152
    25  H    0.221045
    26  N    0.487436
    27  O   -0.458605
    28  O   -0.452333
 Sum of Mulliken charges =  -0.00000

 Dipole moment (field-independent basis, Debye):
    X=              2.2270    Y=              6.9440    Z=              0.1097  Tot=              7.2932
 Quadrupole moment (field-independent basis, Debye-Ang):
   XX=            -55.0877   YY=           -104.4505   ZZ=           -104.6037
   XY=             -7.6634   XZ=              1.7761   YZ=             -0.2568

 Normal termination of Gaussian 16 at Wed May  5 21:03:54 2021.
