 Gaussian 16, Revision A.03,
 Gaussian 16:  EM64L-G16RevA.03 25-Dec-2016

 -------------
 #p 6-31g* mp2
 -------------

 ------------------------------------------------------
 Input file generated by CHIRIPA (05-May-2021 14:55:23)
 ------------------------------------------------------
 Symbolic Z-matrix:
 Charge =  0 Multiplicity = 1

                         Standard orientation:
 ---------------------------------------------------------------------
 Center     Atomic      Atomic             Coordinates (Angstroms)
 Number     Number       Type             X           Y           Z
 ---------------------------------------------------------------------
      1          6           0        3.852416   -2.449082    0.549800
      2          6           0        2.555502   -2.035218    0.871130
      3          6           0        2.119624   -0.747690    0.544281
      4          6           0        3.010962    0.103815   -0.106677
      5          6           0        4.309190   -0.279149   -0.440191
      6          6           0        4.723585   -1.571274   -0.103682
      7          1           0        4.182672   -3.451050    0.807456
      8          1           0        1.876780   -2.714801    1.378622
      9          1           0        1.120962   -0.401368    0.781250
     10          1           0        4.962998    0.420782   -0.946204
     11          1           0        5.731347   -1.889969   -0.354467
     12          7           0        2.560888    1.469296   -0.457810
     13          8           0        3.365388    2.200486   -1.031203
     14          8           0        1.412144    1.782515   -0.152987
     15          6           0       -4.581066   -0.191119   -0.190461
     16          6           0       -4.448137   -1.712236   -0.271197
     17          6           0       -5.720804   -2.390741   -0.778882
     18          1           0       -5.421849    0.062580    0.469590
     19          1           0       -4.835049    0.201069   -1.184983
     20          1           0       -4.193120   -2.101304    0.722890
     21          1           0       -3.607453   -1.962342   -0.930979
     22          1           0       -5.975969   -2.030589   -1.780772
     23          1           0       -6.564964   -2.170341   -0.117506
     24          1           0       -5.603692   -3.477782   -0.828747
     25          6           0       -3.316890    0.501477    0.315403
     26          6           0       -3.449819    2.022593    0.396139
     27          6           0       -2.177152    2.701097    0.903825
     28          1           0       -3.062907    0.109288    1.309926
     29          1           0       -2.476107    0.247777   -0.344647
     30          1           0       -4.290503    2.272698    1.055922
     31          1           0       -3.704836    2.411661   -0.597948
     32          1           0       -1.332992    2.480698    0.242447
     33          1           0       -1.921987    2.340945    1.905715
     34          1           0       -2.294263    3.788138    0.953690
 ---------------------------------------------------------------------

 SCF Done:  E(RHF) =  -669.536065595     A.U. after   15 cycles
 E2 =    -0.2090848385D+01 EUMP2 =    -0.67162691397926D+03

 The electronic state is 1-A.
 Alpha  occ. eigenvalues --  -20.60878 -20.60867 -15.85925 -11.31246 -11.27813
 Alpha  occ. eigenvalues --  -11.27802 -11.27553 -11.26822 -11.26811 -11.21521
 Alpha  occ. eigenvalues --  -11.21134 -11.21012 -11.21008 -11.20916 -11.19942
 Alpha  occ. eigenvalues --   -1.59944  -1.39500  -1.19417  -1.08821  -1.08079
 Alpha  occ. eigenvalues --   -1.04813  -1.03084  -0.95667  -0.95502  -0.86520
 Alpha  occ. eigenvalues --   -0.86213  -0.82497  -0.79181  -0.77881  -0.77538
 Alpha  occ. eigenvalues --   -0.72152  -0.71262  -0.70526  -0.65075  -0.64816
 Alpha  occ. eigenvalues --   -0.64710  -0.62159  -0.60474  -0.58943  -0.57117
 Alpha  occ. eigenvalues --   -0.55319  -0.54774  -0.53147  -0.52905  -0.52193
 Alpha  occ. eigenvalues --   -0.51920  -0.49454  -0.48901  -0.48881  -0.47462
 Alpha  occ. eigenvalues --   -0.46220  -0.45403  -0.45315  -0.44909  -0.43360
 Alpha  occ. eigenvalues --   -0.37399  -0.36416
 Alpha virt. eigenvalues --    0.04983   0.11238   0.16479   0.21184   0.23134
 Alpha virt. eigenvalues --    0.24549   0.26642   0.27163   0.27601   0.28309
 Alpha virt. eigenvalues --    0.28949   0.30905   0.31796   0.31992   0.32492

 Mulliken charges:
               1
     1  C   -0.170670
     2  C   -0.218655
     3  C   -0.171293
     4  C    0.157473
     5  C   -0.170760
     6  C   -0.218624
     7  H    0.225833
     8  H    0.224002
     9  H    0.276768
    10  H    0.275706
    11  H    0.223621
    12  N    0.495941
    13  O   -0.459388
    14  O   -0.467874
    15  C   -0.297646
    16  C   -0.299149
    17  C   -0.475329
    18  H    0.149276
    19  H    0.150488
    20  H    0.148937
    21  H    0.150218
    22  H    0.155955
    23  H    0.155349
    24  H    0.158355
    25  C   -0.298164
    26  C   -0.299388
    27  C   -0.484728
    28  H    0.144409
    29  H    0.150354
    30  H    0.148121
    31  H    0.151735
    32  H    0.182432
    33  H    0.148252
    34  H    0.158444
 Sum of Mulliken charges =  -0.00000

 Dipole moment (field-independent basis, Debye):
    X=              1.7796    Y=             -4.7391    Z=              1.1644  Tot=              5.1944
 Quadrupole moment (field-independent basis, Debye-Ang):
   XX=            -82.4627   YY=            -96.5722   ZZ=            -94.3082
   XY=            -14.1380   XZ=              1.1020   YZ=             -0.3463

 Normal termination of Gaussian 16 at Thu May  6 17:37:49 2021.
