 Gaussian 16, Revision A.03,
 Gaussian 16:  EM64L-G16RevA.03 25-Dec-2016

 -------------
 #p 6-31g* mp2
 -------------

 ------------------------------------------------------
 Input file generated by CHIRIPA (05-May-2021 14:53:16)
 ------------------------------------------------------
 Symbolic Z-matrix:
 Charge =  0 Multiplicity = 1

                         Standard orientation:
 ---------------------------------------------------------------------
 Center     Atomic      Atomic             Coordinates (Angstroms)
 Number     Number       Type             X           Y           Z
 ---------------------------------------------------------------------
      1          6           0        4.091972    0.068754   -0.492948
      2          6           0        4.204436   -1.401070   -0.086801
      3          6           0        5.569348   -2.003856   -0.420652
      4          1           0        4.280867    0.160070   -1.571338
      5          1           0        4.880911    0.642947    0.012296
      6          1           0        3.414659   -1.972088   -0.591585
      7          1           0        4.015063   -1.488921    0.990713
      8          1           0        6.367314   -1.459614    0.094762
      9          1           0        5.763499   -1.945526   -1.496526
     10          1           0        5.627888   -3.055119   -0.121854
     11          6           0        2.733184    0.685444   -0.165666
     12          6           0        2.620720    2.155268   -0.571814
     13          6           0        1.255808    2.758054   -0.237962
     14          1           0        1.944245    0.111251   -0.670910
     15          1           0        2.544289    0.594128    0.912724
     16          1           0        2.810093    2.243119   -1.649327
     17          1           0        3.410497    2.726286   -0.067030
     18          1           0        1.061657    2.699724    0.837912
     19          1           0        0.457842    2.213812   -0.753376
     20          1           0        1.197268    3.809317   -0.536760
     21          6           0       -0.791730   -0.055305    1.929240
     22          6           0       -1.152782   -1.322202    1.458990
     23          6           0       -2.189754   -1.466691    0.532513
     24          6           0       -2.847281   -0.317743    0.095632
     25          6           0       -2.510834    0.958108    0.545402
     26          6           0       -1.470711    1.078807    1.471753
     27          1           0        0.015039    0.047698    2.648900
     28          1           0       -0.627230   -2.204725    1.812530
     29          1           0       -2.489808   -2.435470    0.151915
     30          1           0       -3.053207    1.819331    0.174533
     31          1           0       -1.192466    2.063955    1.835221
     32          7           0       -3.946746   -0.458115   -0.885121
     33          8           0       -4.510429    0.569747   -1.254443
     34          8           0       -4.224003   -1.593343   -1.265941
 ---------------------------------------------------------------------

 SCF Done:  E(RHF) =  -669.534768957     A.U. after   15 cycles
 E2 =    -0.2092829807D+01 EUMP2 =    -0.67162759876385D+03

 The electronic state is 1-A.
 Alpha  occ. eigenvalues --  -20.60755 -20.60749 -15.85807 -11.31170 -11.27714
 Alpha  occ. eigenvalues --  -11.27699 -11.27449 -11.26752 -11.26711 -11.22158
 Alpha  occ. eigenvalues --  -11.22146 -11.21976 -11.21877 -11.21690 -11.21509
 Alpha  occ. eigenvalues --   -1.59830  -1.39384  -1.19333  -1.08987  -1.08725
 Alpha  occ. eigenvalues --   -1.04737  -1.04072  -0.96530  -0.95565  -0.87561
 Alpha  occ. eigenvalues --   -0.86125  -0.82395  -0.80154  -0.78803  -0.77442
 Alpha  occ. eigenvalues --   -0.72025  -0.71154  -0.70435  -0.65616  -0.64982
 Alpha  occ. eigenvalues --   -0.64747  -0.62099  -0.61462  -0.59893  -0.58147
 Alpha  occ. eigenvalues --   -0.55831  -0.55226  -0.53289  -0.53223  -0.52921
 Alpha  occ. eigenvalues --   -0.52647  -0.50466  -0.48786  -0.48780  -0.48437
 Alpha  occ. eigenvalues --   -0.47176  -0.46351  -0.46245  -0.44790  -0.44331
 Alpha  occ. eigenvalues --   -0.37266  -0.36285
 Alpha virt. eigenvalues --    0.05051   0.11276   0.16486   0.20276   0.22572
 Alpha virt. eigenvalues --    0.23851   0.25565   0.25998   0.26737   0.28347
 Alpha virt. eigenvalues --    0.28810   0.30117   0.31115   0.31397   0.31629

 Mulliken charges:
               1
     1  C   -0.298739
     2  C   -0.299512
     3  C   -0.475865
     4  H    0.152427
     5  H    0.149901
     6  H    0.152425
     7  H    0.147648
     8  H    0.155782
     9  H    0.157224
    10  H    0.160671
    11  C   -0.297602
    12  C   -0.300280
    13  C   -0.476129
    14  H    0.154147
    15  H    0.140610
    16  H    0.155594
    17  H    0.152027
    18  H    0.143029
    19  H    0.162018
    20  H    0.161569
    21  C   -0.169411
    22  C   -0.218591
    23  C   -0.172044
    24  C    0.158530
    25  C   -0.174329
    26  C   -0.212842
    27  H    0.224963
    28  H    0.223609
    29  H    0.275298
    30  H    0.275678
    31  H    0.225142
    32  N    0.488019
    33  O   -0.460409
    34  O   -0.460560
 Sum of Mulliken charges =  -0.00000

 Dipole moment (field-independent basis, Debye):
    X=              3.9385    Y=              0.4929    Z=              3.3602  Tot=              5.2005
 Quadrupole moment (field-independent basis, Debye-Ang):
   XX=           -118.1739   YY=            -90.4902   ZZ=            -93.9960
   XY=             -2.8868   XZ=             -9.3530   YZ=             -0.9708

 Normal termination of Gaussian 16 at Thu May  6 05:55:11 2021.
