 Gaussian 16, Revision A.03,
 Gaussian 16:  EM64L-G16RevA.03 25-Dec-2016

 -------------
 #p 6-31g* mp2
 -------------

 ------------------------------------------------------
 Input file generated by CHIRIPA (05-May-2021 14:57:22)
 ------------------------------------------------------
 Symbolic Z-matrix:
 Charge =  0 Multiplicity = 1

                         Standard orientation:
 ---------------------------------------------------------------------
 Center     Atomic      Atomic             Coordinates (Angstroms)
 Number     Number       Type             X           Y           Z
 ---------------------------------------------------------------------
      1          6           0       -1.879376    2.525602   -1.005436
      2          6           0       -2.983077    2.434606   -0.150985
      3          6           0       -3.394582    1.195068    0.347769
      4          6           0       -2.676156    0.061798   -0.030193
      5          6           0       -1.572444    0.119916   -0.879740
      6          6           0       -1.178817    1.370004   -1.366450
      7          1           0       -1.566654    3.492603   -1.388202
      8          1           0       -3.529031    3.330387    0.131074
      9          1           0       -4.245439    1.095906    1.010813
     10          1           0       -1.048131   -0.790664   -1.143099
     11          1           0       -0.321293    1.437663   -2.029864
     12          7           0       -3.102334   -1.256030    0.491440
     13          8           0       -2.452583   -2.239565    0.143419
     14          8           0       -4.078055   -1.280456    1.238441
     15          6           0        3.403035    1.851842    1.207069
     16          6           0        3.530993    1.682964   -0.175548
     17          6           0        3.092782    0.506486   -0.790703
     18          6           0        2.528855   -0.484993    0.010700
     19          6           0        2.387643   -0.346481    1.390614
     20          6           0        2.832774    0.838366    1.984367
     21          1           0        3.746136    2.769009    1.676624
     22          1           0        3.973474    2.468352   -0.781700
     23          1           0        3.179734    0.349501   -1.858978
     24          1           0        1.942426   -1.147201    1.968581
     25          1           0        2.732130    0.966768    3.058345
     26          7           0        2.061277   -1.734909   -0.629209
     27          8           0        1.567945   -2.593369    0.099012
     28          8           0        2.196976   -1.832465   -1.846873
 ---------------------------------------------------------------------

 SCF Done:  E(RHF) =  -868.336895132     A.U. after   16 cycles
 E2 =    -0.2601172298D+01 EUMP2 =    -0.87093806743044D+03

 The electronic state is 1-A.
 Alpha  occ. eigenvalues --  -20.61130 -20.61034 -20.60353 -20.60284 -15.86123
 Alpha  occ. eigenvalues --  -15.85374 -11.31584 -11.30923 -11.28207 -11.28087
 Alpha  occ. eigenvalues --  -11.27895 -11.27543 -11.27448 -11.27331 -11.27220
 Alpha  occ. eigenvalues --  -11.27127 -11.26611 -11.26560  -1.60173  -1.59403
 Alpha  occ. eigenvalues --   -1.39712  -1.38943  -1.19758  -1.19121  -1.09138
 Alpha  occ. eigenvalues --   -1.08493  -1.05165  -1.04545  -0.95953  -0.95291
 Alpha  occ. eigenvalues --   -0.86559  -0.85936  -0.82771  -0.82109  -0.77815
 Alpha  occ. eigenvalues --   -0.77119  -0.72314  -0.71634  -0.71499  -0.70849
 Alpha  occ. eigenvalues --   -0.70739  -0.70217  -0.65400  -0.65157  -0.64767
 Alpha  occ. eigenvalues --   -0.64551  -0.62503  -0.61870  -0.55653  -0.55067
 Alpha  occ. eigenvalues --   -0.53528  -0.53248  -0.52855  -0.52625  -0.49106
 Alpha  occ. eigenvalues --   -0.49075  -0.48377  -0.48326  -0.45082  -0.44303
 Alpha  occ. eigenvalues --   -0.37765  -0.37143  -0.36765  -0.36133
 Alpha virt. eigenvalues --    0.04678   0.05400   0.10788   0.11531   0.16173
 Alpha virt. eigenvalues --    0.16846   0.20944   0.21579   0.26686   0.27251
 Alpha virt. eigenvalues --    0.28136   0.28389   0.30666   0.30934   0.32197

 Mulliken charges:
               1
     1  C   -0.171872
     2  C   -0.219112
     3  C   -0.171871
     4  C    0.157778
     5  C   -0.177630
     6  C   -0.217819
     7  H    0.222291
     8  H    0.221377
     9  H    0.274695
    10  H    0.286490
    11  H    0.222248
    12  N    0.486255
    13  O   -0.450328
    14  O   -0.464502
    15  C   -0.170835
    16  C   -0.219338
    17  C   -0.177080
    18  C    0.156803
    19  C   -0.169813
    20  C   -0.217766
    21  H    0.226156
    22  H    0.222523
    23  H    0.273620
    24  H    0.280982
    25  H    0.225955
    26  N    0.483556
    27  O   -0.447714
    28  O   -0.465052
 Sum of Mulliken charges =  -0.00000

 Dipole moment (field-independent basis, Debye):
    X=              3.2399    Y=              8.7838    Z=              0.5817  Tot=              9.3803
 Quadrupole moment (field-independent basis, Debye-Ang):
   XX=           -102.8558   YY=           -107.8154   ZZ=           -100.1405
   XY=             -3.0461   XZ=              7.5697   YZ=             -1.8076

 Normal termination of Gaussian 16 at Wed May  5 17:48:43 2021.
