 Gaussian 16, Revision A.03,
 Gaussian 16:  EM64L-G16RevA.03 25-Dec-2016

 -------------
 #p 6-31g* mp2
 -------------

 ------------------------------------------------------
 Input file generated by CHIRIPA (05-May-2021 14:55:25)
 ------------------------------------------------------
 Symbolic Z-matrix:
 Charge =  0 Multiplicity = 1

                         Standard orientation:
 ---------------------------------------------------------------------
 Center     Atomic      Atomic             Coordinates (Angstroms)
 Number     Number       Type             X           Y           Z
 ---------------------------------------------------------------------
      1          6           0       -5.388926    0.106233   -0.690244
      2          6           0       -4.447500   -0.477115   -1.544612
      3          6           0       -3.146230   -0.730048   -1.100464
      4          6           0       -2.819091   -0.385384    0.210061
      5          6           0       -3.734612    0.197004    1.085238
      6          6           0       -5.030110    0.440841    0.619645
      7          1           0       -6.397542    0.299184   -1.043599
      8          1           0       -4.723354   -0.738020   -2.562393
      9          1           0       -2.397605   -1.180611   -1.740755
     10          1           0       -3.430041    0.446089    2.094501
     11          1           0       -5.759157    0.893986    1.285373
     12          7           0       -1.444550   -0.648337    0.691612
     13          8           0       -1.181319   -0.335402    1.850672
     14          8           0       -0.656442   -1.162397   -0.099125
     15          6           0        4.255368   -0.237374   -0.156024
     16          6           0        5.775808   -0.117695   -0.046836
     17          6           0        6.475759   -1.476888   -0.025464
     18          1           0        3.879200   -0.831894    0.687771
     19          1           0        4.003042   -0.795173   -1.068486
     20          1           0        6.025147    0.440911    0.864430
     21          1           0        6.148379    0.476772   -0.890884
     22          1           0        6.256138   -2.037723   -0.939702
     23          1           0        6.132206   -2.073786    0.825586
     24          1           0        7.561956   -1.367906    0.053019
     25          6           0        3.541450    1.113012   -0.178557
     26          6           0        2.021009    0.993332   -0.287745
     27          6           0        1.321059    2.352526   -0.309117
     28          1           0        3.793776    1.670811    0.733905
     29          1           0        3.917617    1.707531   -1.022352
     30          1           0        1.648439    0.398866    0.556303
     31          1           0        1.771671    0.434726   -1.199011
     32          1           0        1.664612    2.949424   -1.160166
     33          1           0        1.540680    2.913360    0.605121
     34          1           0        0.234863    2.243544   -0.387601
 ---------------------------------------------------------------------

 SCF Done:  E(RHF) =  -669.536099668     A.U. after   15 cycles
 E2 =    -0.2092165675D+01 EUMP2 =    -0.67162826534261D+03

 The electronic state is 1-A.
 Alpha  occ. eigenvalues --  -20.60997 -20.60982 -15.85996 -11.31317 -11.27873
 Alpha  occ. eigenvalues --  -11.27870 -11.27607 -11.26875 -11.26866 -11.20731
 Alpha  occ. eigenvalues --  -11.20323 -11.20269 -11.20164 -11.20013 -11.19898
 Alpha  occ. eigenvalues --   -1.60038  -1.39593  -1.19479  -1.08887  -1.07274
 Alpha  occ. eigenvalues --   -1.04872  -1.02415  -0.95730  -0.94944  -0.86273
 Alpha  occ. eigenvalues --   -0.85965  -0.82565  -0.78471  -0.77620  -0.77023
 Alpha  occ. eigenvalues --   -0.72209  -0.71349  -0.70587  -0.65133  -0.64875
 Alpha  occ. eigenvalues --   -0.63911  -0.62219  -0.59812  -0.58313  -0.56529
 Alpha  occ. eigenvalues --   -0.55375  -0.54251  -0.53203  -0.52963  -0.51682
 Alpha  occ. eigenvalues --   -0.51354  -0.49098  -0.48981  -0.48856  -0.46769
 Alpha  occ. eigenvalues --   -0.45479  -0.45076  -0.44470  -0.44402  -0.42678
 Alpha  occ. eigenvalues --   -0.37453  -0.36471
 Alpha virt. eigenvalues --    0.04887   0.11184   0.16377   0.21315   0.23942
 Alpha virt. eigenvalues --    0.25224   0.27239   0.27799   0.28132   0.28698
 Alpha virt. eigenvalues --    0.28931   0.30878   0.32313   0.32448   0.32545

 Mulliken charges:
               1
     1  C   -0.170476
     2  C   -0.218551
     3  C   -0.170735
     4  C    0.158936
     5  C   -0.170680
     6  C   -0.218571
     7  H    0.226107
     8  H    0.223925
     9  H    0.275861
    10  H    0.275977
    11  H    0.223942
    12  N    0.488407
    13  O   -0.460539
    14  O   -0.457240
    15  C   -0.297340
    16  C   -0.298805
    17  C   -0.474992
    18  H    0.154724
    19  H    0.148666
    20  H    0.150303
    21  H    0.148916
    22  H    0.153977
    23  H    0.155682
    24  H    0.156973
    25  C   -0.298941
    26  C   -0.302458
    27  C   -0.472995
    28  H    0.146051
    29  H    0.142901
    30  H    0.176125
    31  H    0.152367
    32  H    0.148281
    33  H    0.153151
    34  H    0.151053
 Sum of Mulliken charges =  -0.00000

 Dipole moment (field-independent basis, Debye):
    X=             -5.1504    Y=              0.7234    Z=             -1.6016  Tot=              5.4420
 Quadrupole moment (field-independent basis, Debye-Ang):
   XX=            -69.2609   YY=            -96.9187   ZZ=            -90.5988
   XY=             -1.0909   XZ=              2.8218   YZ=              3.0094

 Normal termination of Gaussian 16 at Thu May  6 11:06:30 2021.
