 Gaussian 16, Revision A.03,
 Gaussian 16:  EM64L-G16RevA.03 25-Dec-2016

 -------------
 #p 6-31g* mp2
 -------------

 ------------------------------------------------------
 Input file generated by CHIRIPA (05-May-2021 14:55:22)
 ------------------------------------------------------
 Symbolic Z-matrix:
 Charge =  0 Multiplicity = 1

                         Standard orientation:
 ---------------------------------------------------------------------
 Center     Atomic      Atomic             Coordinates (Angstroms)
 Number     Number       Type             X           Y           Z
 ---------------------------------------------------------------------
      1          6           0        0.824897   -2.022933    0.884502
      2          6           0        0.535740   -1.356749   -0.310951
      3          6           0        1.475233   -0.499229   -0.891088
      4          6           0        2.699367   -0.330349   -0.245901
      5          6           0        3.017089   -0.979929    0.945899
      6          6           0        2.062467   -1.832732    1.508012
      7          1           0        0.089200   -2.687243    1.328165
      8          1           0       -0.424551   -1.502554   -0.797395
      9          1           0        1.277520    0.029000   -1.815914
     10          1           0        3.983016   -0.814486    1.407452
     11          1           0        2.289770   -2.348791    2.436485
     12          7           0        3.701974    0.574973   -0.850526
     13          8           0        4.773125    0.706788   -0.262394
     14          8           0        3.397684    1.135606   -1.901113
     15          6           0       -2.835887    1.258544    0.225742
     16          6           0       -1.765252    1.234501    1.317138
     17          6           0       -0.957790    2.531273    1.381806
     18          1           0       -2.356355    1.442387   -0.745440
     19          1           0       -3.513375    2.104871    0.405013
     20          1           0       -1.090803    0.387650    1.136643
     21          1           0       -2.247368    1.050503    2.285810
     22          1           0       -1.613810    3.383835    1.585210
     23          1           0       -0.450675    2.717216    0.429513
     24          1           0       -0.198155    2.492381    2.168764
     25          6           0       -3.651472   -0.030879    0.148663
     26          6           0       -4.722107   -0.006835   -0.942734
     27          6           0       -5.529571   -1.303606   -1.007402
     28          1           0       -2.973985   -0.877205   -0.030610
     29          1           0       -4.131004   -0.214722    1.119845
     30          1           0       -4.239991    0.177162   -1.911406
     31          1           0       -5.396556    0.840015   -0.762239
     32          1           0       -6.036685   -1.489550   -0.055109
     33          1           0       -4.873549   -2.156170   -1.210805
     34          1           0       -6.289205   -1.264715   -1.794359
 ---------------------------------------------------------------------

 SCF Done:  E(RHF) =  -669.534768969     A.U. after   15 cycles
 E2 =    -0.2093517111D+01 EUMP2 =    -0.67162828608055D+03

 The electronic state is 1-A.
 Alpha  occ. eigenvalues --  -20.60827 -20.60822 -15.85881 -11.31283 -11.27850
 Alpha  occ. eigenvalues --  -11.27840 -11.27587 -11.26870 -11.26860 -11.22209
 Alpha  occ. eigenvalues --  -11.22115 -11.21880 -11.21799 -11.21660 -11.21225
 Alpha  occ. eigenvalues --   -1.59901  -1.39454  -1.19463  -1.08986  -1.08839
 Alpha  occ. eigenvalues --   -1.04875  -1.03965  -0.96433  -0.95674  -0.87442
 Alpha  occ. eigenvalues --   -0.86269  -0.82506  -0.80050  -0.78795  -0.77547
 Alpha  occ. eigenvalues --   -0.72099  -0.71223  -0.70553  -0.65703  -0.65111
 Alpha  occ. eigenvalues --   -0.64817  -0.62209  -0.61389  -0.59807  -0.58042
 Alpha  occ. eigenvalues --   -0.55752  -0.55353  -0.53253  -0.53064  -0.52950
 Alpha  occ. eigenvalues --   -0.52831  -0.50378  -0.48862  -0.48852  -0.48355
 Alpha  occ. eigenvalues --   -0.47104  -0.46314  -0.46259  -0.44851  -0.44255
 Alpha  occ. eigenvalues --   -0.37378  -0.36410
 Alpha virt. eigenvalues --    0.04973   0.11072   0.16419   0.19457   0.22926
 Alpha virt. eigenvalues --    0.23849   0.25219   0.26467   0.27322   0.28258
 Alpha virt. eigenvalues --    0.29332   0.30831   0.31216   0.31666   0.31861

 Mulliken charges:
               1
     1  C   -0.170560
     2  C   -0.222546
     3  C   -0.170866
     4  C    0.159464
     5  C   -0.170892
     6  C   -0.217876
     7  H    0.226948
     8  H    0.228611
     9  H    0.275886
    10  H    0.276058
    11  H    0.224109
    12  N    0.488079
    13  O   -0.460013
    14  O   -0.460237
    15  C   -0.298417
    16  C   -0.308753
    17  C   -0.475226
    18  H    0.147406
    19  H    0.152793
    20  H    0.158513
    21  H    0.149594
    22  H    0.155655
    23  H    0.157161
    24  H    0.161407
    25  C   -0.298262
    26  C   -0.299932
    27  C   -0.475485
    28  H    0.137493
    29  H    0.151859
    30  H    0.151712
    31  H    0.155458
    32  H    0.156227
    33  H    0.151658
    34  H    0.162974
 Sum of Mulliken charges =  -0.00000

 Dipole moment (field-independent basis, Debye):
    X=             -3.5010    Y=             -3.1607    Z=              2.1485  Tot=              5.1830
 Quadrupole moment (field-independent basis, Debye-Ang):
   XX=           -111.8829   YY=            -93.6809   ZZ=            -92.9081
   XY=             -9.2211   XZ=              8.9428   YZ=             -0.7774

 Normal termination of Gaussian 16 at Thu May  6 07:48:35 2021.
