 Gaussian 16, Revision A.03,
 Gaussian 16:  EM64L-G16RevA.03 25-Dec-2016

 -------------
 #p 6-31g* mp2
 -------------

 ------------------------------------------------------
 Input file generated by CHIRIPA (05-May-2021 14:51:11)
 ------------------------------------------------------
 Symbolic Z-matrix:
 Charge =  0 Multiplicity = 1

                         Standard orientation:
 ---------------------------------------------------------------------
 Center     Atomic      Atomic             Coordinates (Angstroms)
 Number     Number       Type             X           Y           Z
 ---------------------------------------------------------------------
      1          6           0        3.248078    0.654603    0.155800
      2          6           0        3.359717   -0.833026   -0.179582
      3          6           0        4.736405   -1.411411    0.149045
      4          1           0        4.020794    1.207327   -0.395881
      5          1           0        3.462358    0.799664    1.223712
      6          1           0        3.143935   -0.975405   -1.246251
      7          1           0        2.586523   -1.382249    0.372814
      8          1           0        4.957111   -1.298574    1.215421
      9          1           0        5.517690   -0.889418   -0.412843
     10          1           0        4.794154   -2.475935   -0.098570
     11          6           0        1.877588    1.247234   -0.167114
     12          6           0        1.765949    2.734863    0.168267
     13          6           0        0.389261    3.313248   -0.160360
     14          1           0        1.663308    1.102173   -1.235027
     15          1           0        1.104873    0.694509    0.384567
     16          1           0        2.539143    3.284086   -0.384129
     17          1           0        1.981731    2.877242    1.234936
     18          1           0       -0.392023    2.791254    0.401528
     19          1           0        0.168555    3.200410   -1.226736
     20          1           0        0.331512    4.377772    0.087255
     21          6           0       -3.063885   -0.498141   -0.351235
     22          6           0       -4.052518    0.179246    0.598363
     23          6           0       -5.048488    1.081797   -0.130500
     24          1           0       -2.519063    0.272320   -0.913822
     25          1           0       -3.622372   -1.088777   -1.090583
     26          1           0       -3.492277    0.767319    1.336547
     27          1           0       -4.594914   -0.592912    1.158892
     28          1           0       -5.632733    0.504883   -0.854675
     29          1           0       -4.523831    1.872844   -0.676011
     30          1           0       -5.745784    1.555912    0.567249
     31          6           0       -2.061781   -1.403696    0.362550
     32          6           0       -1.073148   -2.081082   -0.587048
     33          6           0       -0.077179   -2.983634    0.141814
     34          1           0       -1.503294   -0.813059    1.101898
     35          1           0       -2.606603   -2.174156    0.925137
     36          1           0       -0.530752   -1.308924   -1.147577
     37          1           0       -1.633389   -2.669156   -1.325232
     38          1           0       -0.601835   -3.774680    0.687325
     39          1           0        0.507067   -2.406720    0.865989
     40          1           0        0.620117   -3.457748   -0.555935
 ---------------------------------------------------------------------

 SCF Done:  E(RHF) =  -470.733104084     A.U. after   11 cycles
 E2 =    -0.1584022471D+01 EUMP2 =    -0.47231712655550D+03

 The electronic state is 1-A.
 Alpha  occ. eigenvalues --  -11.21669 -11.21592 -11.21557 -11.21546 -11.21464
 Alpha  occ. eigenvalues --  -11.21395 -11.21384 -11.21332 -11.21153 -11.21053
 Alpha  occ. eigenvalues --  -11.21049 -11.21047  -1.08483  -1.08401  -1.03568
 Alpha  occ. eigenvalues --   -1.03499  -0.96015  -0.95964  -0.87054  -0.86959
 Alpha  occ. eigenvalues --   -0.79673  -0.79524  -0.78290  -0.78226  -0.65228
 Alpha  occ. eigenvalues --   -0.64932  -0.61064  -0.60822  -0.59406  -0.59304
 Alpha  occ. eigenvalues --   -0.57624  -0.57571  -0.55335  -0.55240  -0.52706
 Alpha  occ. eigenvalues --   -0.52650  -0.52442  -0.52391  -0.50094  -0.49809
 Alpha  occ. eigenvalues --   -0.47944  -0.47887  -0.46781  -0.46475  -0.45979
 Alpha  occ. eigenvalues --   -0.45847  -0.45609  -0.45473  -0.43818  -0.43761
 Alpha virt. eigenvalues --    0.19571   0.22468   0.23793   0.24583   0.25546
 Alpha virt. eigenvalues --    0.26099   0.27396   0.27754   0.28073   0.29776
 Alpha virt. eigenvalues --    0.31165   0.31502   0.31756   0.31926   0.32067

 Mulliken charges:
               1
     1  C   -0.298022
     2  C   -0.306837
     3  C   -0.475271
     4  H    0.149739
     5  H    0.149238
     6  H    0.151362
     7  H    0.160894
     8  H    0.154877
     9  H    0.154884
    10  H    0.160368
    11  C   -0.301790
    12  C   -0.299666
    13  C   -0.476295
    14  H    0.149751
    15  H    0.151806
    16  H    0.152511
    17  H    0.152159
    18  H    0.154794
    19  H    0.155176
    20  H    0.160843
    21  C   -0.299102
    22  C   -0.299538
    23  C   -0.475828
    24  H    0.151040
    25  H    0.149479
    26  H    0.151390
    27  H    0.151841
    28  H    0.155086
    29  H    0.155756
    30  H    0.160164
    31  C   -0.299212
    32  C   -0.302133
    33  C   -0.477898
    34  H    0.149078
    35  H    0.149621
    36  H    0.155469
    37  H    0.151801
    38  H    0.154940
    39  H    0.156529
    40  H    0.160997
 Sum of Mulliken charges =  -0.00000

 Dipole moment (field-independent basis, Debye):
    X=              0.0126    Y=              0.0018    Z=             -0.0143  Tot=              0.0191
 Quadrupole moment (field-independent basis, Debye-Ang):
   XX=            -85.8466   YY=            -84.8560   ZZ=            -84.0654
   XY=              1.6471   XZ=             -0.6768   YZ=              0.2303

 Normal termination of Gaussian 16 at Thu May  6 05:25:49 2021.
