 Gaussian 16, Revision A.03,
 Gaussian 16:  EM64L-G16RevA.03 25-Dec-2016

 -------------
 #p 6-31g* mp2
 -------------

 ------------------------------------------------------
 Input file generated by CHIRIPA (05-May-2021 14:53:12)
 ------------------------------------------------------
 Symbolic Z-matrix:
 Charge =  0 Multiplicity = 1

                         Standard orientation:
 ---------------------------------------------------------------------
 Center     Atomic      Atomic             Coordinates (Angstroms)
 Number     Number       Type             X           Y           Z
 ---------------------------------------------------------------------
      1          6           0        3.539513   -0.526468    0.342370
      2          6           0        4.636943   -0.157110   -0.656233
      3          6           0        5.467499   -1.363574   -1.094885
      4          1           0        3.997274   -0.997930    1.222781
      5          1           0        2.881135   -1.281260   -0.109540
      6          1           0        5.292245    0.597777   -0.203087
      7          1           0        4.176534    0.313701   -1.534286
      8          1           0        4.831293   -2.116652   -1.571033
      9          1           0        5.953343   -1.830962   -0.232270
     10          1           0        6.246096   -1.076850   -1.808633
     11          6           0        2.700649    0.669100    0.790310
     12          6           0        1.603219    0.299742    1.788913
     13          6           0        0.772663    1.506206    2.227565
     14          1           0        3.359027    1.423892    1.242220
     15          1           0        2.242888    1.140562   -0.090101
     16          1           0        2.063628   -0.171069    2.666966
     17          1           0        0.947918   -0.455145    1.335767
     18          1           0        0.286819    1.973594    1.364950
     19          1           0        1.408869    2.259284    2.703713
     20          1           0       -0.005934    1.219482    2.941313
     21          6           0       -0.861979    1.642625   -1.442002
     22          6           0       -0.428370    0.331577   -1.219165
     23          6           0       -1.292749   -0.617771   -0.665870
     24          6           0       -2.589885   -0.219905   -0.345820
     25          6           0       -3.051481    1.078599   -0.555836
     26          6           0       -2.169846    2.011301   -1.110211
     27          1           0       -0.183806    2.373636   -1.872233
     28          1           0        0.586788    0.042433   -1.475864
     29          1           0       -0.983164   -1.639558   -0.482767
     30          1           0       -4.069214    1.337065   -0.289691
     31          1           0       -2.509328    3.028765   -1.282159
     32          7           0       -3.514099   -1.216127    0.240499
     33          8           0       -4.652004   -0.840474    0.513806
     34          8           0       -3.083093   -2.353753    0.415649
 ---------------------------------------------------------------------

 SCF Done:  E(RHF) =  -669.533754785     A.U. after   15 cycles
 E2 =    -0.2095528945D+01 EUMP2 =    -0.67162928373030D+03

 The electronic state is 1-A.
 Alpha  occ. eigenvalues --  -20.60830 -20.60825 -15.85884 -11.31290 -11.27840
 Alpha  occ. eigenvalues --  -11.27837 -11.27591 -11.26883 -11.26846 -11.22305
 Alpha  occ. eigenvalues --  -11.22125 -11.22058 -11.21956 -11.21630 -11.21258
 Alpha  occ. eigenvalues --   -1.59904  -1.39457  -1.19469  -1.09100  -1.08838
 Alpha  occ. eigenvalues --   -1.04888  -1.04025  -0.96494  -0.95685  -0.87509
 Alpha  occ. eigenvalues --   -0.86273  -0.82517  -0.80118  -0.78895  -0.77560
 Alpha  occ. eigenvalues --   -0.72103  -0.71228  -0.70574  -0.65953  -0.65120
 Alpha  occ. eigenvalues --   -0.64740  -0.62233  -0.61448  -0.59860  -0.58102
 Alpha  occ. eigenvalues --   -0.55881  -0.55355  -0.53165  -0.53135  -0.52977
 Alpha  occ. eigenvalues --   -0.52804  -0.50435  -0.48865  -0.48855  -0.48409
 Alpha  occ. eigenvalues --   -0.47187  -0.46409  -0.46389  -0.44853  -0.44334
 Alpha  occ. eigenvalues --   -0.37394  -0.36392
 Alpha virt. eigenvalues --    0.04936   0.11064   0.16328   0.19110   0.22965
 Alpha virt. eigenvalues --    0.24101   0.25262   0.25602   0.27055   0.28684
 Alpha virt. eigenvalues --    0.29414   0.31084   0.31342   0.31557   0.31753

 Mulliken charges:
               1
     1  C   -0.299657
     2  C   -0.299099
     3  C   -0.475865
     4  H    0.155369
     5  H    0.143296
     6  H    0.154697
     7  H    0.145896
     8  H    0.154927
     9  H    0.157939
    10  H    0.161869
    11  C   -0.300237
    12  C   -0.299479
    13  C   -0.479771
    14  H    0.153196
    15  H    0.137930
    16  H    0.155014
    17  H    0.150800
    18  H    0.157653
    19  H    0.153381
    20  H    0.163600
    21  C   -0.174656
    22  C   -0.214602
    23  C   -0.172028
    24  C    0.158820
    25  C   -0.170888
    26  C   -0.217484
    27  H    0.226616
    28  H    0.228640
    29  H    0.275747
    30  H    0.276111
    31  H    0.224296
    32  N    0.488039
    33  O   -0.460000
    34  O   -0.460068
 Sum of Mulliken charges =  -0.00000

 Dipole moment (field-independent basis, Debye):
    X=              3.2384    Y=              3.4941    Z=             -2.0231  Tot=              5.1758
 Quadrupole moment (field-independent basis, Debye-Ang):
   XX=           -108.8828   YY=            -94.8421   ZZ=            -93.6084
   XY=            -12.3438   XZ=              5.0388   YZ=             -0.9043

 Normal termination of Gaussian 16 at Thu May  6 10:24:04 2021.
