 Gaussian 16, Revision A.03,
 Gaussian 16:  EM64L-G16RevA.03 25-Dec-2016

 -------------
 #p 6-31g* mp2
 -------------

 ------------------------------------------------------
 Input file generated by CHIRIPA (05-May-2021 14:55:22)
 ------------------------------------------------------
 Symbolic Z-matrix:
 Charge =  0 Multiplicity = 1

                         Standard orientation:
 ---------------------------------------------------------------------
 Center     Atomic      Atomic             Coordinates (Angstroms)
 Number     Number       Type             X           Y           Z
 ---------------------------------------------------------------------
      1          6           0       -3.117835    1.476092    1.203165
      2          6           0       -2.866304    1.514252   -0.172261
      3          6           0       -2.356629    0.392109   -0.832242
      4          6           0       -2.108987   -0.756744   -0.082509
      5          6           0       -2.349180   -0.825896    1.288919
      6          6           0       -2.858927    0.308198    1.928087
      7          1           0       -3.513791    2.352442    1.707770
      8          1           0       -3.066421    2.419890   -0.737786
      9          1           0       -2.152712    0.394183   -1.896117
     10          1           0       -2.139641   -1.743053    1.825887
     11          1           0       -3.053307    0.275683    2.996359
     12          7           0       -1.569379   -1.951033   -0.770184
     13          8           0       -1.359693   -2.951040   -0.087063
     14          8           0       -1.366338   -1.864496   -1.979284
     15          6           0        3.348396    0.202102   -0.219317
     16          6           0        3.994078   -0.453427    1.001897
     17          6           0        5.062464   -1.480527    0.625852
     18          1           0        2.903148   -0.576910   -0.853225
     19          1           0        4.128748    0.687229   -0.821894
     20          1           0        3.212565   -0.935992    1.602717
     21          1           0        4.437674    0.327252    1.633069
     22          1           0        5.862461   -1.009417    0.045626
     23          1           0        4.630390   -2.279839    0.015103
     24          1           0        5.510932   -1.936792    1.513861
     25          6           0        2.278282    1.231271    0.140397
     26          6           0        1.632601    1.886800   -1.080817
     27          6           0        0.564214    2.913900   -0.704772
     28          1           0        1.497930    0.746144    0.742974
     29          1           0        2.723531    2.010282    0.774305
     30          1           0        1.189004    1.106121   -1.711988
     31          1           0        2.414114    2.369364   -1.681638
     32          1           0        0.996288    3.713211   -0.094023
     33          1           0       -0.235783    2.442790   -0.124546
     34          1           0        0.115746    3.370164   -1.592781
 ---------------------------------------------------------------------

 SCF Done:  E(RHF) =  -669.534943319     A.U. after   15 cycles
 E2 =    -0.2093327080D+01 EUMP2 =    -0.67162827039943D+03

 The electronic state is 1-A.
 Alpha  occ. eigenvalues --  -20.60888 -20.60883 -15.85939 -11.31316 -11.27861
 Alpha  occ. eigenvalues --  -11.27845 -11.27588 -11.26884 -11.26847 -11.21552
 Alpha  occ. eigenvalues --  -11.21347 -11.21283 -11.21126 -11.21103 -11.20750
 Alpha  occ. eigenvalues --   -1.59962  -1.39514  -1.19485  -1.08873  -1.08268
 Alpha  occ. eigenvalues --   -1.04886  -1.03391  -0.95859  -0.95701  -0.86886
 Alpha  occ. eigenvalues --   -0.86266  -0.82532  -0.79467  -0.78066  -0.77581
 Alpha  occ. eigenvalues --   -0.72153  -0.71287  -0.70566  -0.65126  -0.64904
 Alpha  occ. eigenvalues --   -0.64866  -0.62222  -0.60815  -0.59241  -0.57471
 Alpha  occ. eigenvalues --   -0.55367  -0.55251  -0.53223  -0.52962  -0.52561
 Alpha  occ. eigenvalues --   -0.52225  -0.49762  -0.48914  -0.48909  -0.47773
 Alpha  occ. eigenvalues --   -0.46479  -0.45610  -0.45517  -0.44912  -0.43652
 Alpha  occ. eigenvalues --   -0.37449  -0.36383
 Alpha virt. eigenvalues --    0.04938   0.11101   0.16424   0.21092   0.22938
 Alpha virt. eigenvalues --    0.24371   0.26663   0.26909   0.27546   0.28275
 Alpha virt. eigenvalues --    0.28643   0.30490   0.31597   0.31796   0.32114

 Mulliken charges:
               1
     1  C   -0.170883
     2  C   -0.219538
     3  C   -0.169534
     4  C    0.159068
     5  C   -0.171946
     6  C   -0.217965
     7  H    0.226687
     8  H    0.226123
     9  H    0.276479
    10  H    0.275931
    11  H    0.224172
    12  N    0.487912
    13  O   -0.459996
    14  O   -0.460428
    15  C   -0.300092
    16  C   -0.299384
    17  C   -0.476253
    18  H    0.156616
    19  H    0.148744
    20  H    0.152475
    21  H    0.149415
    22  H    0.154091
    23  H    0.159502
    24  H    0.159241
    25  C   -0.298273
    26  C   -0.300599
    27  C   -0.484914
    28  H    0.148336
    29  H    0.147670
    30  H    0.155836
    31  H    0.152307
    32  H    0.153260
    33  H    0.163093
    34  H    0.152845
 Sum of Mulliken charges =  -0.00000

 Dipole moment (field-independent basis, Debye):
    X=             -1.9922    Y=              4.0859    Z=              2.4222  Tot=              5.1508
 Quadrupole moment (field-independent basis, Debye-Ang):
   XX=            -87.4746   YY=           -100.8478   ZZ=            -91.6003
   XY=             -6.8108   XZ=             -5.0950   YZ=             -4.5937

 Normal termination of Gaussian 16 at Wed May  5 22:17:49 2021.
