 Gaussian 16, Revision A.03,
 Gaussian 16:  EM64L-G16RevA.03 25-Dec-2016

 -------------
 #p 6-31g* mp2
 -------------

 ------------------------------------------------------
 Input file generated by CHIRIPA (05-May-2021 14:55:22)
 ------------------------------------------------------
 Symbolic Z-matrix:
 Charge =  0 Multiplicity = 1

                         Standard orientation:
 ---------------------------------------------------------------------
 Center     Atomic      Atomic             Coordinates (Angstroms)
 Number     Number       Type             X           Y           Z
 ---------------------------------------------------------------------
      1          6           0       -5.980368   -0.524415    0.276657
      2          6           0       -5.428303    0.759723    0.328963
      3          6           0       -4.053909    0.949256    0.156730
      4          6           0       -3.257406   -0.172721   -0.066967
      5          6           0       -3.777608   -1.464762   -0.124504
      6          6           0       -5.154714   -1.630609    0.050489
      7          1           0       -7.049084   -0.662449    0.411523
      8          1           0       -6.067102    1.620643    0.504457
      9          1           0       -3.600195    1.932255    0.192440
     10          1           0       -3.115369   -2.303626   -0.301041
     11          1           0       -5.580695   -2.629055    0.009365
     12          7           0       -1.800960    0.015391   -0.250763
     13          8           0       -1.120729   -0.989403   -0.446493
     14          8           0       -1.367208    1.164066   -0.195613
     15          6           0        5.019724   -0.149724   -0.299590
     16          6           0        5.951549   -0.869150    0.676173
     17          6           0        7.032531   -1.686173   -0.032169
     18          1           0        4.547973   -0.890354   -0.959789
     19          1           0        5.615292    0.510269   -0.945424
     20          1           0        5.354240   -1.526549    1.320894
     21          1           0        6.420991   -0.126741    1.334252
     22          1           0        7.653009   -1.040288   -0.661804
     23          1           0        6.580197   -2.448050   -0.675238
     24          1           0        7.687396   -2.192061    0.684133
     25          6           0        3.933736    0.671259    0.393479
     26          6           0        3.001911    1.390685   -0.582284
     27          6           0        1.920930    2.207708    0.126058
     28          1           0        3.338168    0.011266    1.039313
     29          1           0        4.405488    1.411888    1.053679
     30          1           0        2.532469    0.648275   -1.240363
     31          1           0        3.599220    2.048085   -1.227004
     32          1           0        2.373263    2.969585    0.769127
     33          1           0        1.300451    1.561822    0.755693
     34          1           0        1.266064    2.713596   -0.590243
 ---------------------------------------------------------------------

 SCF Done:  E(RHF) =  -669.535735828     A.U. after   15 cycles
 E2 =    -0.2091181854D+01 EUMP2 =    -0.67162691768197D+03

 The electronic state is 1-A.
 Alpha  occ. eigenvalues --  -20.60966 -20.60959 -15.85994 -11.31313 -11.27876
 Alpha  occ. eigenvalues --  -11.27872 -11.27613 -11.26882 -11.26872 -11.20767
 Alpha  occ. eigenvalues --  -11.20384 -11.20341 -11.20092 -11.19961 -11.19018
 Alpha  occ. eigenvalues --   -1.60030  -1.39585  -1.19482  -1.08887  -1.07241
 Alpha  occ. eigenvalues --   -1.04877  -1.02249  -0.95733  -0.94683  -0.86278
 Alpha  occ. eigenvalues --   -0.85708  -0.82561  -0.78377  -0.77616  -0.77002
 Alpha  occ. eigenvalues --   -0.72212  -0.71345  -0.70590  -0.65136  -0.64881
 Alpha  occ. eigenvalues --   -0.63873  -0.62224  -0.59638  -0.58148  -0.56286
 Alpha  occ. eigenvalues --   -0.55385  -0.53985  -0.53209  -0.52967  -0.51380
 Alpha  occ. eigenvalues --   -0.51133  -0.49177  -0.48975  -0.48382  -0.46674
 Alpha  occ. eigenvalues --   -0.45418  -0.44987  -0.44538  -0.44398  -0.42501
 Alpha  occ. eigenvalues --   -0.37460  -0.36478
 Alpha virt. eigenvalues --    0.04899   0.11178   0.16397   0.21316   0.23984
 Alpha virt. eigenvalues --    0.25671   0.27234   0.27796   0.28201   0.28624
 Alpha virt. eigenvalues --    0.29369   0.30896   0.32425   0.32671   0.32807

 Mulliken charges:
               1
     1  C   -0.170563
     2  C   -0.218552
     3  C   -0.170856
     4  C    0.157887
     5  C   -0.170694
     6  C   -0.218585
     7  H    0.226060
     8  H    0.223930
     9  H    0.276015
    10  H    0.275756
    11  H    0.223849
    12  N    0.488883
    13  O   -0.460400
    14  O   -0.458259
    15  C   -0.297621
    16  C   -0.298773
    17  C   -0.475054
    18  H    0.150588
    19  H    0.146595
    20  H    0.151449
    21  H    0.149855
    22  H    0.153757
    23  H    0.154664
    24  H    0.157420
    25  C   -0.297706
    26  C   -0.300658
    27  C   -0.469474
    28  H    0.151392
    29  H    0.144775
    30  H    0.159036
    31  H    0.143374
    32  H    0.140022
    33  H    0.168431
    34  H    0.163459
 Sum of Mulliken charges =  -0.00000

 Dipole moment (field-independent basis, Debye):
    X=             -5.5739    Y=             -0.7252    Z=              0.6168  Tot=              5.6546
 Quadrupole moment (field-independent basis, Debye-Ang):
   XX=            -63.8250   YY=            -89.8113   ZZ=            -95.9433
   XY=              3.1768   XZ=             -1.7177   YZ=              0.3258

 Normal termination of Gaussian 16 at Thu May  6 04:37:18 2021.
