 Gaussian 16, Revision A.03,
 Gaussian 16:  EM64L-G16RevA.03 25-Dec-2016

 -------------
 #p 6-31g* mp2
 -------------

 ------------------------------------------------------
 Input file generated by CHIRIPA (05-May-2021 14:53:18)
 ------------------------------------------------------
 Symbolic Z-matrix:
 Charge =  0 Multiplicity = 1

                         Standard orientation:
 ---------------------------------------------------------------------
 Center     Atomic      Atomic             Coordinates (Angstroms)
 Number     Number       Type             X           Y           Z
 ---------------------------------------------------------------------
      1          6           0       -1.864704    1.173831   -0.710078
      2          6           0       -1.103332    2.397371   -0.198953
      3          6           0       -0.274770    3.076305   -1.289973
      4          1           0       -1.149214    0.453947   -1.130536
      5          1           0       -2.522942    1.478672   -1.535420
      6          1           0       -0.447751    2.090569    0.626094
      7          1           0       -1.820701    3.114343    0.220512
      8          1           0       -0.917975    3.410030   -2.110654
      9          1           0        0.462775    2.380439   -1.702767
     10          1           0        0.261213    3.948477   -0.902805
     11          6           0       -2.697655    0.484287    0.369019
     12          6           0       -3.459027   -0.739252   -0.142107
     13          6           0       -4.287589   -1.418187    0.948914
     14          1           0       -2.039416    0.179447    1.194361
     15          1           0       -3.413145    1.204172    0.789477
     16          1           0       -2.741658   -1.456224   -0.561571
     17          1           0       -4.114607   -0.432450   -0.967153
     18          1           0       -5.025134   -0.722320    1.361707
     19          1           0       -3.644384   -1.751911    1.769594
     20          1           0       -4.823572   -2.290358    0.561746
     21          6           0        1.130680   -2.672222   -1.224274
     22          6           0        1.669876   -1.548119   -1.858450
     23          6           0        2.034411   -0.420790   -1.116296
     24          6           0        1.845155   -0.451979    0.264464
     25          6           0        1.310411   -1.556782    0.925336
     26          6           0        0.952981   -2.672964    0.163151
     27          1           0        0.850260   -3.543629   -1.808577
     28          1           0        1.809009   -1.544725   -2.935797
     29          1           0        2.454018    0.462839   -1.581643
     30          1           0        1.183617   -1.530487    2.000813
     31          1           0        0.534462   -3.544554    0.658345
     32          7           0        2.227311    0.735573    1.060753
     33          8           0        2.050531    0.683041    2.275919
     34          8           0        2.696388    1.696422    0.454642
 ---------------------------------------------------------------------

 SCF Done:  E(RHF) =  -669.535853427     A.U. after   15 cycles
 E2 =    -0.2094950230D+01 EUMP2 =    -0.67163080365700D+03

 The electronic state is 1-A.
 Alpha  occ. eigenvalues --  -20.60944 -20.60925 -15.85967 -11.31354 -11.27922
 Alpha  occ. eigenvalues --  -11.27918 -11.27662 -11.26945 -11.26935 -11.21669
 Alpha  occ. eigenvalues --  -11.21274 -11.21215 -11.21183 -11.21115 -11.20549
 Alpha  occ. eigenvalues --   -1.60006  -1.39556  -1.19532  -1.08919  -1.08269
 Alpha  occ. eigenvalues --   -1.04933  -1.03349  -0.95798  -0.95746  -0.86816
 Alpha  occ. eigenvalues --   -0.86324  -0.82579  -0.79428  -0.78061  -0.77628
 Alpha  occ. eigenvalues --   -0.72190  -0.71368  -0.70627  -0.65182  -0.64943
 Alpha  occ. eigenvalues --   -0.64885  -0.62286  -0.60742  -0.59176  -0.57383
 Alpha  occ. eigenvalues --   -0.55431  -0.55105  -0.53251  -0.53018  -0.52468
 Alpha  occ. eigenvalues --   -0.52218  -0.49779  -0.48953  -0.48939  -0.47738
 Alpha  occ. eigenvalues --   -0.46479  -0.45585  -0.45522  -0.44915  -0.43586
 Alpha  occ. eigenvalues --   -0.37490  -0.36502
 Alpha virt. eigenvalues --    0.04866   0.11007   0.16364   0.20994   0.22732
 Alpha virt. eigenvalues --    0.24098   0.26420   0.26614   0.27449   0.27904
 Alpha virt. eigenvalues --    0.28711   0.30399   0.31491   0.31744   0.32175

 Mulliken charges:
               1
     1  C   -0.302412
     2  C   -0.304024
     3  C   -0.471629
     4  H    0.149737
     5  H    0.147193
     6  H    0.157376
     7  H    0.152717
     8  H    0.149041
     9  H    0.148968
    10  H    0.169412
    11  C   -0.297238
    12  C   -0.299509
    13  C   -0.475162
    14  H    0.149270
    15  H    0.150743
    16  H    0.147925
    17  H    0.151567
    18  H    0.157244
    19  H    0.152868
    20  H    0.158005
    21  C   -0.170958
    22  C   -0.218507
    23  C   -0.172308
    24  C    0.158881
    25  C   -0.171546
    26  C   -0.218141
    27  H    0.226757
    28  H    0.224802
    29  H    0.277212
    30  H    0.276235
    31  H    0.224617
    32  N    0.488641
    33  O   -0.459707
    34  O   -0.458072
 Sum of Mulliken charges =  -0.00000

 Dipole moment (field-independent basis, Debye):
    X=             -1.1704    Y=             -4.1468    Z=             -2.7453  Tot=              5.1091
 Quadrupole moment (field-independent basis, Debye-Ang):
   XX=           -100.0006   YY=            -90.0227   ZZ=            -93.4787
   XY=             -7.3029   XZ=             -6.5425   YZ=             -1.5064

 Normal termination of Gaussian 16 at Thu May  6 04:26:48 2021.
