 Gaussian 16, Revision A.03,
 Gaussian 16:  EM64L-G16RevA.03 25-Dec-2016

 -------------
 #p 6-31g* mp2
 -------------

 ------------------------------------------------------
 Input file generated by CHIRIPA (05-May-2021 14:51:12)
 ------------------------------------------------------
 Symbolic Z-matrix:
 Charge =  0 Multiplicity = 1

                         Standard orientation:
 ---------------------------------------------------------------------
 Center     Atomic      Atomic             Coordinates (Angstroms)
 Number     Number       Type             X           Y           Z
 ---------------------------------------------------------------------
      1          6           0       -3.410004    0.356509    0.125650
      2          6           0       -3.298346    1.756164   -0.479729
      3          6           0       -1.989422    2.456171   -0.112982
      4          1           0       -3.324912    0.428793    1.218573
      5          1           0       -2.560206   -0.251384   -0.214503
      6          1           0       -4.148846    2.360817   -0.139641
      7          1           0       -3.383904    1.680561   -1.571324
      8          1           0       -1.130464    1.876804   -0.466712
      9          1           0       -1.899752    2.560925    0.973106
     10          1           0       -1.930534    3.455155   -0.556180
     11          6           0       -4.713099   -0.356052   -0.232018
     12          6           0       -4.824757   -1.755707    0.373361
     13          6           0       -6.133680   -2.455714    0.006614
     14          1           0       -5.562897    0.251841    0.108134
     15          1           0       -4.798190   -0.428336   -1.324941
     16          1           0       -4.739198   -1.680104    1.464956
     17          1           0       -3.974256   -2.360360    0.033273
     18          1           0       -6.223351   -2.560468   -1.079474
     19          1           0       -6.992639   -1.876347    0.360343
     20          1           0       -6.192568   -3.454698    0.449811
     21          6           0        3.462672    0.351048    0.371587
     22          6           0        3.228657    1.761629   -0.170153
     23          6           0        2.027086    2.451444    0.476513
     24          1           0        2.559461   -0.252441    0.207402
     25          1           0        3.610246    0.403297    1.459193
     26          1           0        3.082945    1.706886   -1.256610
     27          1           0        4.132598    2.361775   -0.004832
     28          1           0        2.167671    2.535426    1.559003
     29          1           0        1.112052    1.876817    0.300112
     30          1           0        1.878071    3.458486    0.074617
     31          6           0        4.660431   -0.351505   -0.265219
     32          6           0        4.894445   -1.762086    0.276522
     33          6           0        6.096016   -2.451901   -0.370145
     34          1           0        4.512856   -0.403754   -1.352825
     35          1           0        5.563641    0.251984   -0.101034
     36          1           0        3.990504   -2.362232    0.111200
     37          1           0        5.040158   -1.707344    1.362977
     38          1           0        7.011050   -1.877274   -0.193744
     39          1           0        5.955431   -2.535883   -1.452634
     40          1           0        6.245032   -3.458943    0.031751
 ---------------------------------------------------------------------

 SCF Done:  E(RHF) =  -470.733069722     A.U. after   11 cycles
 E2 =    -0.1582295886D+01 EUMP2 =    -0.47231536560762D+03

 The electronic state is 1-A.
 Alpha  occ. eigenvalues --  -11.21606 -11.21590 -11.21587 -11.21548 -11.21409
 Alpha  occ. eigenvalues --  -11.21383 -11.21349 -11.21323 -11.21075 -11.21063
 Alpha  occ. eigenvalues --  -11.21032 -11.20947  -1.08431  -1.08401  -1.03535
 Alpha  occ. eigenvalues --   -1.03482  -0.96007  -0.95908  -0.87053  -0.86895
 Alpha  occ. eigenvalues --   -0.79651  -0.79495  -0.78253  -0.78206  -0.65076
 Alpha  occ. eigenvalues --   -0.65023  -0.61002  -0.60829  -0.59352  -0.59296
 Alpha  occ. eigenvalues --   -0.57659  -0.57494  -0.55417  -0.55101  -0.52728
 Alpha  occ. eigenvalues --   -0.52598  -0.52525  -0.52217  -0.50080  -0.49720
 Alpha  occ. eigenvalues --   -0.48022  -0.47745  -0.46709  -0.46479  -0.45827
 Alpha  occ. eigenvalues --   -0.45730  -0.45712  -0.45615  -0.43798  -0.43729
 Alpha virt. eigenvalues --    0.22315   0.23009   0.23624   0.24755   0.26109
 Alpha virt. eigenvalues --    0.26781   0.26952   0.27581   0.27665   0.29045
 Alpha virt. eigenvalues --    0.30443   0.31448   0.31605   0.31872   0.32233

 Mulliken charges:
               1
     1  C   -0.298155
     2  C   -0.299927
     3  C   -0.477724
     4  H    0.149835
     5  H    0.148773
     6  H    0.151862
     7  H    0.151661
     8  H    0.157744
     9  H    0.155912
    10  H    0.160435
    11  C   -0.298248
    12  C   -0.299638
    13  C   -0.475707
    14  H    0.149626
    15  H    0.149589
    16  H    0.152012
    17  H    0.151793
    18  H    0.155150
    19  H    0.155223
    20  H    0.160260
    21  C   -0.298149
    22  C   -0.299725
    23  C   -0.480238
    24  H    0.149096
    25  H    0.149579
    26  H    0.151348
    27  H    0.151642
    28  H    0.154560
    29  H    0.161449
    30  H    0.160219
    31  C   -0.298230
    32  C   -0.299610
    33  C   -0.475685
    34  H    0.149346
    35  H    0.149678
    36  H    0.151798
    37  H    0.151950
    38  H    0.155190
    39  H    0.155107
    40  H    0.160200
 Sum of Mulliken charges =  -0.00000

 Dipole moment (field-independent basis, Debye):
    X=             -0.0210    Y=              0.0158    Z=              0.0083  Tot=              0.0275
 Quadrupole moment (field-independent basis, Debye-Ang):
   XX=            -85.8468   YY=            -85.2795   ZZ=            -83.7245
   XY=             -0.0178   XZ=              0.2215   YZ=              0.2825

 Normal termination of Gaussian 16 at Wed May  5 23:10:22 2021.
