 Gaussian 16, Revision A.03,
 Gaussian 16:  EM64L-G16RevA.03 25-Dec-2016

 -------------
 #p 6-31g* mp2
 -------------

 ------------------------------------------------------
 Input file generated by CHIRIPA (05-May-2021 14:53:11)
 ------------------------------------------------------
 Symbolic Z-matrix:
 Charge =  0 Multiplicity = 1

                         Standard orientation:
 ---------------------------------------------------------------------
 Center     Atomic      Atomic             Coordinates (Angstroms)
 Number     Number       Type             X           Y           Z
 ---------------------------------------------------------------------
      1          6           0       -2.683930    0.636559    0.455199
      2          6           0       -2.866078    2.065420    0.968194
      3          6           0       -1.618388    2.606077    1.667303
      4          1           0       -2.421212   -0.017962    1.297533
      5          1           0       -1.832675    0.609392   -0.239078
      6          1           0       -3.717599    2.090156    1.660231
      7          1           0       -3.128581    2.716580    0.124572
      8          1           0       -0.764340    2.610336    0.982331
      9          1           0       -1.356705    1.980353    2.526716
     10          1           0       -1.770622    3.628795    2.026097
     11          6           0       -3.922690    0.082138   -0.246099
     12          6           0       -3.740543   -1.346723   -0.759093
     13          6           0       -4.988233   -1.887380   -1.458202
     14          1           0       -4.773946    0.109305    0.448178
     15          1           0       -4.185409    0.736659   -1.088433
     16          1           0       -3.478039   -1.997883    0.084529
     17          1           0       -2.889021   -1.371459   -1.451131
     18          1           0       -5.249916   -1.261655   -2.317616
     19          1           0       -5.842280   -1.891639   -0.773231
     20          1           0       -4.835998   -2.910098   -1.816997
     21          6           0        1.938694   -2.271981    1.328533
     22          6           0        3.276538   -2.066033    0.976002
     23          6           0        3.643763   -0.966151    0.195007
     24          6           0        2.642779   -0.088236   -0.218014
     25          6           0        1.301330   -0.266283    0.116807
     26          6           0        0.957089   -1.373033    0.898569
     27          1           0        1.662351   -3.129063    1.935526
     28          1           0        4.040990   -2.762528    1.308497
     29          1           0        4.671959   -0.782764   -0.092395
     30          1           0        0.561690    0.445294   -0.229613
     31          1           0       -0.082686   -1.530464    1.170831
     32          7           0        3.019377    1.079797   -1.045224
     33          8           0        2.118596    1.838654   -1.396456
     34          8           0        4.208205    1.214325   -1.326696
 ---------------------------------------------------------------------

 SCF Done:  E(RHF) =  -669.535608447     A.U. after   15 cycles
 E2 =    -0.2092452984D+01 EUMP2 =    -0.67162806143077D+03

 The electronic state is 1-A.
 Alpha  occ. eigenvalues --  -20.60742 -20.60736 -15.85788 -11.31102 -11.27678
 Alpha  occ. eigenvalues --  -11.27629 -11.27410 -11.26693 -11.26635 -11.22207
 Alpha  occ. eigenvalues --  -11.22196 -11.22016 -11.21939 -11.21508 -11.21344
 Alpha  occ. eigenvalues --   -1.59813  -1.39369  -1.19273  -1.09027  -1.08680
 Alpha  occ. eigenvalues --   -1.04667  -1.04006  -0.96456  -0.95524  -0.87468
 Alpha  occ. eigenvalues --   -0.86072  -0.82359  -0.80079  -0.78928  -0.77380
 Alpha  occ. eigenvalues --   -0.72009  -0.71132  -0.70399  -0.65677  -0.64925
 Alpha  occ. eigenvalues --   -0.64652  -0.62053  -0.61366  -0.59823  -0.58080
 Alpha  occ. eigenvalues --   -0.55736  -0.55187  -0.53099  -0.53012  -0.52889
 Alpha  occ. eigenvalues --   -0.52762  -0.50392  -0.48767  -0.48762  -0.48380
 Alpha  occ. eigenvalues --   -0.47096  -0.46386  -0.46317  -0.44783  -0.44303
 Alpha  occ. eigenvalues --   -0.37261  -0.36262
 Alpha virt. eigenvalues --    0.05101   0.11356   0.16599   0.19583   0.22860
 Alpha virt. eigenvalues --    0.23248   0.24458   0.25282   0.27370   0.28507
 Alpha virt. eigenvalues --    0.29717   0.30901   0.31303   0.31548   0.31950

 Mulliken charges:
               1
     1  C   -0.306758
     2  C   -0.299491
     3  C   -0.481605
     4  H    0.143822
     5  H    0.148422
     6  H    0.153248
     7  H    0.157543
     8  H    0.162856
     9  H    0.152040
    10  H    0.165048
    11  C   -0.297425
    12  C   -0.301106
    13  C   -0.475943
    14  H    0.151754
    15  H    0.154785
    16  H    0.146583
    17  H    0.153100
    18  H    0.158196
    19  H    0.156076
    20  H    0.161169
    21  C   -0.171075
    22  C   -0.218758
    23  C   -0.170519
    24  C    0.160055
    25  C   -0.180588
    26  C   -0.223941
    27  H    0.225288
    28  H    0.223035
    29  H    0.275201
    30  H    0.285253
    31  H    0.227985
    32  N    0.487900
    33  O   -0.461878
    34  O   -0.460275
 Sum of Mulliken charges =  -0.00000

 Dipole moment (field-independent basis, Debye):
    X=             -1.5102    Y=             -3.9916    Z=              2.8687  Tot=              5.1423
 Quadrupole moment (field-independent basis, Debye-Ang):
   XX=            -97.1215   YY=            -94.0245   ZZ=            -96.3053
   XY=            -13.0245   XZ=              7.7466   YZ=              0.0205

 Normal termination of Gaussian 16 at Wed May  5 15:26:48 2021.
