 Gaussian 16, Revision A.03,
 Gaussian 16:  EM64L-G16RevA.03 25-Dec-2016

 -------------
 #p 6-31g* mp2
 -------------

 ------------------------------------------------------
 Input file generated by CHIRIPA (05-May-2021 14:51:08)
 ------------------------------------------------------
 Symbolic Z-matrix:
 Charge =  0 Multiplicity = 1

                         Standard orientation:
 ---------------------------------------------------------------------
 Center     Atomic      Atomic             Coordinates (Angstroms)
 Number     Number       Type             X           Y           Z
 ---------------------------------------------------------------------
      1          6           0        2.457513   -0.027925    0.461080
      2          6           0        1.615431   -1.152354    1.064854
      3          6           0        0.205709   -0.697208    1.443432
      4          1           0        2.518838    0.801544    1.178830
      5          1           0        1.946985    0.365786   -0.428722
      6          1           0        2.128069   -1.544758    1.952456
      7          1           0        1.556263   -1.979321    0.345660
      8          1           0       -0.328174   -0.324564    0.563258
      9          1           0        0.246880    0.112468    2.179184
     10          1           0       -0.378901   -1.516647    1.873095
     11          6           0        3.869400   -0.467440    0.077504
     12          6           0        4.711482    0.656988   -0.526271
     13          6           0        6.121204    0.201842   -0.904849
     14          1           0        4.379928   -0.861152    0.967305
     15          1           0        3.808075   -1.296909   -0.640246
     16          1           0        4.770650    1.483955    0.192924
     17          1           0        4.198844    1.049392   -1.413872
     18          1           0        6.080033   -0.607834   -1.640600
     19          1           0        6.655088   -0.170802   -0.024675
     20          1           0        6.705814    1.021282   -1.334512
     21          6           0       -3.203368    0.881725    0.154771
     22          6           0       -2.708894    2.131246   -0.574735
     23          6           0       -2.794968    3.391586    0.286616
     24          1           0       -4.242610    1.038748    0.474557
     25          1           0       -2.612250    0.742221    1.070475
     26          1           0       -3.299852    2.267572   -1.489502
     27          1           0       -1.670770    1.971156   -0.892989
     28          1           0       -2.190861    3.280802    1.192918
     29          1           0       -3.829199    3.578903    0.593015
     30          1           0       -2.436509    4.272864   -0.254418
     31          6           0       -3.123545   -0.386359   -0.693354
     32          6           0       -3.618020   -1.635881    0.036152
     33          6           0       -3.531945   -2.896221   -0.825200
     34          1           0       -3.714663   -0.246856   -1.609058
     35          1           0       -2.084303   -0.543384   -1.013140
     36          1           0       -4.656144   -1.475791    0.354406
     37          1           0       -3.027062   -1.772207    0.950919
     38          1           0       -2.497714   -3.083538   -1.131598
     39          1           0       -4.136052   -2.785437   -1.731501
     40          1           0       -3.890404   -3.777498   -0.284165
 ---------------------------------------------------------------------

 SCF Done:  E(RHF) =  -470.732621129     A.U. after   11 cycles
 E2 =    -0.1584036315D+01 EUMP2 =    -0.47231665744433D+03

 The electronic state is 1-A.
 Alpha  occ. eigenvalues --  -11.21674 -11.21635 -11.21568 -11.21537 -11.21464
 Alpha  occ. eigenvalues --  -11.21400 -11.21340 -11.21263 -11.21142 -11.21096
 Alpha  occ. eigenvalues --  -11.21039 -11.21035  -1.08497  -1.08375  -1.03591
 Alpha  occ. eigenvalues --   -1.03483  -0.96071  -0.95913  -0.87069  -0.86950
 Alpha  occ. eigenvalues --   -0.79665  -0.79546  -0.78300  -0.78196  -0.65273
 Alpha  occ. eigenvalues --   -0.64933  -0.61009  -0.60864  -0.59407  -0.59297
 Alpha  occ. eigenvalues --   -0.57660  -0.57547  -0.55526  -0.55050  -0.52752
 Alpha  occ. eigenvalues --   -0.52618  -0.52493  -0.52314  -0.50031  -0.49822
 Alpha  occ. eigenvalues --   -0.48001  -0.47847  -0.46720  -0.46557  -0.45913
 Alpha  occ. eigenvalues --   -0.45808  -0.45640  -0.45557  -0.43823  -0.43731
 Alpha virt. eigenvalues --    0.20452   0.23032   0.23934   0.24732   0.25486
 Alpha virt. eigenvalues --    0.26080   0.27080   0.27802   0.27874   0.29835
 Alpha virt. eigenvalues --    0.30070   0.31335   0.31451   0.31891   0.32330

 Mulliken charges:
               1
     1  C   -0.298458
     2  C   -0.300316
     3  C   -0.483746
     4  H    0.149875
     5  H    0.149028
     6  H    0.152268
     7  H    0.151903
     8  H    0.163418
     9  H    0.154929
    10  H    0.161611
    11  C   -0.298316
    12  C   -0.299712
    13  C   -0.475749
    14  H    0.149731
    15  H    0.149771
    16  H    0.152036
    17  H    0.152016
    18  H    0.155254
    19  H    0.155240
    20  H    0.160402
    21  C   -0.303375
    22  C   -0.299880
    23  C   -0.475569
    24  H    0.149853
    25  H    0.155880
    26  H    0.151790
    27  H    0.151100
    28  H    0.155446
    29  H    0.155078
    30  H    0.160000
    31  C   -0.300176
    32  C   -0.301758
    33  C   -0.475721
    34  H    0.149846
    35  H    0.149680
    36  H    0.151731
    37  H    0.155043
    38  H    0.154887
    39  H    0.154992
    40  H    0.159970
 Sum of Mulliken charges =  -0.00000

 Dipole moment (field-independent basis, Debye):
    X=              0.0244    Y=             -0.0011    Z=              0.0280  Tot=              0.0371
 Quadrupole moment (field-independent basis, Debye-Ang):
   XX=            -84.9077   YY=            -85.7869   ZZ=            -84.1488
   XY=              0.1008   XZ=              0.9102   YZ=             -0.3709

 Normal termination of Gaussian 16 at Wed May  5 21:19:03 2021.
