 Gaussian 16, Revision A.03,
 Gaussian 16:  EM64L-G16RevA.03 25-Dec-2016

 -------------
 #p 6-31g* mp2
 -------------

 ------------------------------------------------------
 Input file generated by CHIRIPA (05-May-2021 14:53:17)
 ------------------------------------------------------
 Symbolic Z-matrix:
 Charge =  0 Multiplicity = 1

                         Standard orientation:
 ---------------------------------------------------------------------
 Center     Atomic      Atomic             Coordinates (Angstroms)
 Number     Number       Type             X           Y           Z
 ---------------------------------------------------------------------
      1          6           0       -4.375598   -0.483953   -0.035383
      2          6           0       -5.628261   -1.035188   -0.717263
      3          6           0       -5.784462   -2.545234   -0.535181
      4          1           0       -3.491160   -0.996656   -0.437688
      5          1           0       -4.414812   -0.722858    1.036430
      6          1           0       -5.587358   -0.794108   -1.787227
      7          1           0       -6.509805   -0.520978   -0.313425
      8          1           0       -5.850801   -2.800310    0.527427
      9          1           0       -4.923113   -3.074992   -0.954749
     10          1           0       -6.686341   -2.918175   -1.030549
     11          6           0       -4.205599    1.024311   -0.208497
     12          6           0       -2.952936    1.575546    0.473383
     13          6           0       -2.796735    3.085593    0.291301
     14          1           0       -4.166385    1.263216   -1.280310
     15          1           0       -5.090037    1.537014    0.193808
     16          1           0       -2.071392    1.061336    0.069545
     17          1           0       -2.993839    1.334466    1.543347
     18          1           0       -3.658084    3.615350    0.710869
     19          1           0       -2.730396    3.340668   -0.771307
     20          1           0       -1.894856    3.458533    0.786669
     21          6           0        1.502343   -0.437395    1.796254
     22          6           0        2.813573   -0.784808    2.137576
     23          6           0        3.846365   -0.663475    1.203142
     24          6           0        3.530851   -0.189198   -0.069180
     25          6           0        2.234439    0.165061   -0.439459
     26          6           0        1.217463    0.035597    0.511092
     27          1           0        0.706189   -0.534807    2.528405
     28          1           0        3.037745   -1.152420    3.134899
     29          1           0        4.870299   -0.925263    1.440724
     30          1           0        2.041849    0.528568   -1.441552
     31          1           0        0.200070    0.306154    0.243223
     32          7           0        4.615850   -0.056443   -1.066954
     33          8           0        4.311814    0.363882   -2.181192
     34          8           0        5.749763   -0.375229   -0.715879
 ---------------------------------------------------------------------

 SCF Done:  E(RHF) =  -669.535565212     A.U. after   15 cycles
 E2 =    -0.2090977564D+01 EUMP2 =    -0.67162654277584D+03

 The electronic state is 1-A.
 Alpha  occ. eigenvalues --  -20.60733 -20.60728 -15.85786 -11.31144 -11.27713
 Alpha  occ. eigenvalues --  -11.27706 -11.27445 -11.26728 -11.26691 -11.22679
 Alpha  occ. eigenvalues --  -11.22187 -11.22164 -11.22087 -11.21882 -11.21553
 Alpha  occ. eigenvalues --   -1.59809  -1.39363  -1.19314  -1.09204  -1.08709
 Alpha  occ. eigenvalues --   -1.04718  -1.04272  -0.96682  -0.95546  -0.87699
 Alpha  occ. eigenvalues --   -0.86117  -0.82381  -0.80370  -0.79014  -0.77428
 Alpha  occ. eigenvalues --   -0.72005  -0.71132  -0.70420  -0.65854  -0.64965
 Alpha  occ. eigenvalues --   -0.64725  -0.62114  -0.61628  -0.60065  -0.58303
 Alpha  occ. eigenvalues --   -0.55955  -0.55214  -0.53385  -0.53106  -0.53047
 Alpha  occ. eigenvalues --   -0.52823  -0.50619  -0.48791  -0.48761  -0.48634
 Alpha  occ. eigenvalues --   -0.47401  -0.46542  -0.46455  -0.44770  -0.44520
 Alpha  occ. eigenvalues --   -0.37294  -0.36321
 Alpha virt. eigenvalues --    0.05106   0.11328   0.16600   0.19602   0.22500
 Alpha virt. eigenvalues --    0.23673   0.24872   0.26265   0.27338   0.28201
 Alpha virt. eigenvalues --    0.28707   0.30003   0.31053   0.31269   0.31922

 Mulliken charges:
               1
     1  C   -0.298712
     2  C   -0.300216
     3  C   -0.476217
     4  H    0.147310
     5  H    0.148822
     6  H    0.153705
     7  H    0.153387
     8  H    0.155054
     9  H    0.155727
    10  H    0.162497
    11  C   -0.297623
    12  C   -0.306429
    13  C   -0.476245
    14  H    0.152261
    15  H    0.153109
    16  H    0.145138
    17  H    0.151473
    18  H    0.159184
    19  H    0.158185
    20  H    0.160862
    21  C   -0.173937
    22  C   -0.218550
    23  C   -0.171296
    24  C    0.158963
    25  C   -0.173792
    26  C   -0.226727
    27  H    0.226320
    28  H    0.223208
    29  H    0.275406
    30  H    0.275804
    31  H    0.236469
    32  N    0.488055
    33  O   -0.460554
    34  O   -0.460642
 Sum of Mulliken charges =  -0.00000

 Dipole moment (field-independent basis, Debye):
    X=             -4.0522    Y=             -0.4202    Z=              3.5051  Tot=              5.3742
 Quadrupole moment (field-independent basis, Debye-Ang):
   XX=           -118.8617   YY=            -95.6151   ZZ=            -92.5820
   XY=             -2.7738   XZ=             14.9909   YZ=             -1.7946

 Normal termination of Gaussian 16 at Wed May  5 23:36:46 2021.
