 Gaussian 16, Revision A.03,
 Gaussian 16:  EM64L-G16RevA.03 25-Dec-2016

 -------------
 #p 6-31g* mp2
 -------------

 ------------------------------------------------------
 Input file generated by CHIRIPA (05-May-2021 14:51:10)
 ------------------------------------------------------
 Symbolic Z-matrix:
 Charge =  0 Multiplicity = 1

                         Standard orientation:
 ---------------------------------------------------------------------
 Center     Atomic      Atomic             Coordinates (Angstroms)
 Number     Number       Type             X           Y           Z
 ---------------------------------------------------------------------
      1          6           0        3.555227   -0.367126   -0.366248
      2          6           0        2.677587   -1.473649   -0.952199
      3          6           0        3.425980   -2.796693   -1.117298
      4          1           0        4.428299   -0.217555   -1.016108
      5          1           0        3.943364   -0.694001    0.608379
      6          1           0        2.290103   -1.144229   -1.924801
      7          1           0        1.806404   -1.620471   -0.300970
      8          1           0        3.798921   -3.151510   -0.151057
      9          1           0        4.285368   -2.672562   -1.784115
     10          1           0        2.779863   -3.573679   -1.537637
     11          6           0        2.821177    0.961648   -0.195196
     12          6           0        3.698817    2.068172    0.390755
     13          6           0        2.950424    3.391215    0.555853
     14          1           0        2.433040    1.288524   -1.169823
     15          1           0        1.948105    0.812077    0.454664
     16          1           0        4.570000    2.214994   -0.260474
     17          1           0        4.086300    1.738752    1.363357
     18          1           0        2.091036    3.267085    1.222670
     19          1           0        2.577483    3.746033   -0.410387
     20          1           0        3.596541    4.168201    0.976192
     21          6           0       -3.678217    0.286796    0.233876
     22          6           0       -4.477865    0.304381   -1.069289
     23          6           0       -5.453862    1.478689   -1.148170
     24          1           0       -4.373995    0.244821    1.083038
     25          1           0       -3.125168    1.231475    0.329337
     26          1           0       -5.028156   -0.640620   -1.162936
     27          1           0       -3.780097    0.346126   -1.915454
     28          1           0       -4.917466    2.430661   -1.080122
     29          1           0       -6.172616    1.438310   -0.323329
     30          1           0       -6.015034    1.471888   -2.087798
     31          6           0       -2.698187   -0.881319    0.327568
     32          6           0       -1.898539   -0.898903    1.630733
     33          6           0       -0.922542   -2.073212    1.709614
     34          1           0       -3.251236   -1.825997    0.232107
     35          1           0       -2.002409   -0.839343   -0.521594
     36          1           0       -2.596307   -0.940649    2.476898
     37          1           0       -1.348248    0.046097    1.724380
     38          1           0       -0.203788   -2.032832    0.884773
     39          1           0       -1.458937   -3.025184    1.641566
     40          1           0       -0.361371   -2.066411    2.649242
 ---------------------------------------------------------------------

 SCF Done:  E(RHF) =  -470.733394412     A.U. after   11 cycles
 E2 =    -0.1582760048D+01 EUMP2 =    -0.47231615445941D+03

 The electronic state is 1-A.
 Alpha  occ. eigenvalues --  -11.21630 -11.21626 -11.21612 -11.21598 -11.21431
 Alpha  occ. eigenvalues --  -11.21406 -11.21370 -11.21346 -11.21098 -11.21098
 Alpha  occ. eigenvalues --  -11.21073 -11.21066  -1.08457  -1.08433  -1.03561
 Alpha  occ. eigenvalues --   -1.03531  -0.96001  -0.95987  -0.87029  -0.86994
 Alpha  occ. eigenvalues --   -0.79662  -0.79562  -0.78284  -0.78234  -0.65151
 Alpha  occ. eigenvalues --   -0.65007  -0.61060  -0.60843  -0.59380  -0.59346
 Alpha  occ. eigenvalues --   -0.57642  -0.57570  -0.55327  -0.55244  -0.52694
 Alpha  occ. eigenvalues --   -0.52684  -0.52450  -0.52395  -0.50057  -0.49849
 Alpha  occ. eigenvalues --   -0.48032  -0.47847  -0.46813  -0.46471  -0.45894
 Alpha  occ. eigenvalues --   -0.45767  -0.45724  -0.45563  -0.43803  -0.43795
 Alpha virt. eigenvalues --    0.20751   0.23261   0.23705   0.24350   0.25949
 Alpha virt. eigenvalues --    0.26908   0.27075   0.27666   0.28008   0.28959
 Alpha virt. eigenvalues --    0.30316   0.31615   0.31665   0.31900   0.31980

 Mulliken charges:
               1
     1  C   -0.297440
     2  C   -0.309471
     3  C   -0.475061
     4  H    0.149791
     5  H    0.149794
     6  H    0.151582
     7  H    0.160412
     8  H    0.155478
     9  H    0.155180
    10  H    0.160378
    11  C   -0.298915
    12  C   -0.299664
    13  C   -0.475717
    14  H    0.149285
    15  H    0.149606
    16  H    0.152108
    17  H    0.152155
    18  H    0.154999
    19  H    0.155084
    20  H    0.160436
    21  C   -0.298381
    22  C   -0.299684
    23  C   -0.475732
    24  H    0.149574
    25  H    0.149740
    26  H    0.151881
    27  H    0.152083
    28  H    0.155276
    29  H    0.155143
    30  H    0.160237
    31  C   -0.298581
    32  C   -0.299344
    33  C   -0.484181
    34  H    0.149530
    35  H    0.150333
    36  H    0.152129
    37  H    0.151588
    38  H    0.162683
    39  H    0.155779
    40  H    0.159907
 Sum of Mulliken charges =  -0.00000

 Dipole moment (field-independent basis, Debye):
    X=              0.0044    Y=             -0.0076    Z=             -0.0028  Tot=              0.0092
 Quadrupole moment (field-independent basis, Debye-Ang):
   XX=            -84.8573   YY=            -86.0410   ZZ=            -83.7960
   XY=              1.5124   XZ=             -0.6548   YZ=             -0.5417

 Normal termination of Gaussian 16 at Wed May  5 18:12:19 2021.
