 Gaussian 16, Revision A.03,
 Gaussian 16:  EM64L-G16RevA.03 25-Dec-2016

 -------------
 #p 6-31g* mp2
 -------------

 ------------------------------------------------------
 Input file generated by CHIRIPA (05-May-2021 14:53:18)
 ------------------------------------------------------
 Symbolic Z-matrix:
 Charge =  0 Multiplicity = 1

                         Standard orientation:
 ---------------------------------------------------------------------
 Center     Atomic      Atomic             Coordinates (Angstroms)
 Number     Number       Type             X           Y           Z
 ---------------------------------------------------------------------
      1          6           0       -3.954292    0.979865    0.263026
      2          6           0       -2.508000    1.453796    0.410044
      3          6           0       -2.398224    2.809181    1.109097
      4          1           0       -4.524351    1.731599   -0.299888
      5          1           0       -4.415680    0.918536    1.258393
      6          1           0       -2.049054    1.512886   -0.585192
      7          1           0       -1.941271    0.700757    0.972508
      8          1           0       -2.830753    2.760672    2.113670
      9          1           0       -2.939148    3.577415    0.547119
     10          1           0       -1.355766    3.128873    1.203642
     11          6           0       -4.080384   -0.373675   -0.433936
     12          6           0       -5.526675   -0.847606   -0.580953
     13          6           0       -5.636451   -2.202991   -1.280007
     14          1           0       -3.618995   -0.312346   -1.429303
     15          1           0       -3.510324   -1.125409    0.128979
     16          1           0       -6.093404   -0.094567   -1.143418
     17          1           0       -5.985622   -0.906696    0.414282
     18          1           0       -5.095527   -2.971225   -0.718029
     19          1           0       -5.203922   -2.154482   -2.284579
     20          1           0       -6.678909   -2.522683   -1.374552
     21          6           0        1.777531   -1.167843    1.976397
     22          6           0        1.317266   -0.053897    1.266607
     23          6           0        2.063082    0.470462    0.206723
     24          6           0        3.270123   -0.146783   -0.117855
     25          6           0        3.755412   -1.257768    0.570256
     26          6           0        2.992991   -1.765171    1.626573
     27          1           0        1.191714   -1.568593    2.798354
     28          1           0        0.373689    0.412039    1.536069
     29          1           0        1.730335    1.331842   -0.359600
     30          1           0        4.699868   -1.700686    0.278292
     31          1           0        3.352909   -2.630380    2.176042
     32          7           0        4.068473    0.399358   -1.238018
     33          8           0        5.128626   -0.162630   -1.504258
     34          8           0        3.618952    1.379070   -1.828553
 ---------------------------------------------------------------------

 SCF Done:  E(RHF) =  -669.535494036     A.U. after   15 cycles
 E2 =    -0.2091138346D+01 EUMP2 =    -0.67162663238184D+03

 The electronic state is 1-A.
 Alpha  occ. eigenvalues --  -20.60732 -20.60727 -15.85785 -11.31142 -11.27712
 Alpha  occ. eigenvalues --  -11.27698 -11.27451 -11.26730 -11.26679 -11.22521
 Alpha  occ. eigenvalues --  -11.22051 -11.22030 -11.21903 -11.21892 -11.21423
 Alpha  occ. eigenvalues --   -1.59807  -1.39361  -1.19312  -1.09063  -1.08710
 Alpha  occ. eigenvalues --   -1.04713  -1.04165  -0.96586  -0.95547  -0.87598
 Alpha  occ. eigenvalues --   -0.86115  -0.82380  -0.80255  -0.78857  -0.77421
 Alpha  occ. eigenvalues --   -0.72003  -0.71130  -0.70426  -0.65717  -0.64963
 Alpha  occ. eigenvalues --   -0.64720  -0.62113  -0.61524  -0.59969  -0.58201
 Alpha  occ. eigenvalues --   -0.55856  -0.55218  -0.53296  -0.53054  -0.52996
 Alpha  occ. eigenvalues --   -0.52812  -0.50514  -0.48774  -0.48759  -0.48535
 Alpha  occ. eigenvalues --   -0.47277  -0.46390  -0.46295  -0.44768  -0.44405
 Alpha  occ. eigenvalues --   -0.37296  -0.36309
 Alpha virt. eigenvalues --    0.05105   0.11307   0.16577   0.19648   0.22581
 Alpha virt. eigenvalues --    0.23672   0.25536   0.26110   0.27092   0.28164
 Alpha virt. eigenvalues --    0.28960   0.30029   0.30975   0.31283   0.31994

 Mulliken charges:
               1
     1  C   -0.297830
     2  C   -0.305140
     3  C   -0.477200
     4  H    0.153333
     5  H    0.150037
     6  H    0.156014
     7  H    0.142910
     8  H    0.156581
     9  H    0.161391
    10  H    0.157249
    11  C   -0.298749
    12  C   -0.300206
    13  C   -0.476017
    14  H    0.152255
    15  H    0.147558
    16  H    0.153558
    17  H    0.151809
    18  H    0.154609
    19  H    0.156829
    20  H    0.161641
    21  C   -0.172339
    22  C   -0.224076
    23  C   -0.173041
    24  C    0.158732
    25  C   -0.171199
    26  C   -0.218401
    27  H    0.225267
    28  H    0.233447
    29  H    0.275530
    30  H    0.275410
    31  H    0.223134
    32  N    0.488100
    33  O   -0.460627
    34  O   -0.460570
 Sum of Mulliken charges =  -0.00000

 Dipole moment (field-independent basis, Debye):
    X=             -3.0108    Y=             -1.8897    Z=              3.8833  Tot=              5.2646
 Quadrupole moment (field-independent basis, Debye-Ang):
   XX=           -110.5558   YY=            -92.5875   ZZ=            -95.7309
   XY=             -9.2309   XZ=             14.0383   YZ=             -1.9615

 Normal termination of Gaussian 16 at Thu May  6 20:33:45 2021.
