 Gaussian 16, Revision A.03,
 Gaussian 16:  EM64L-G16RevA.03 25-Dec-2016

 -------------
 #p 6-31g* mp2
 -------------

 ------------------------------------------------------
 Input file generated by CHIRIPA (05-May-2021 14:53:17)
 ------------------------------------------------------
 Symbolic Z-matrix:
 Charge =  0 Multiplicity = 1

                         Standard orientation:
 ---------------------------------------------------------------------
 Center     Atomic      Atomic             Coordinates (Angstroms)
 Number     Number       Type             X           Y           Z
 ---------------------------------------------------------------------
      1          6           0        4.532258    0.643525   -0.259104
      2          6           0        3.307195    0.935650    0.607999
      3          6           0        2.440361    2.062839    0.046004
      4          1           0        5.133455    1.558205   -0.353276
      5          1           0        4.200810    0.381522   -1.273447
      6          1           0        3.640796    1.195677    1.620774
      7          1           0        2.708945    0.020118    0.700276
      8          1           0        2.079455    1.808374   -0.955792
      9          1           0        3.016601    2.990611   -0.030064
     10          1           0        1.570209    2.255048    0.681419
     11          6           0        5.408695   -0.480937    0.289687
     12          6           0        6.633759   -0.773062   -0.577416
     13          6           0        7.500593   -1.900251   -0.015421
     14          1           0        5.740143   -0.218935    1.304030
     15          1           0        4.807499   -1.395617    0.383859
     16          1           0        7.232009    0.142469   -0.669692
     17          1           0        6.300158   -1.033089   -1.590191
     18          1           0        6.924353   -2.828023    0.060647
     19          1           0        7.861498   -1.645786    0.986375
     20          1           0        8.370744   -2.092461   -0.650835
     21          6           0       -1.623744    1.055264    0.083924
     22          6           0       -2.278389    0.903841   -1.142873
     23          6           0       -3.530587    0.285519   -1.207886
     24          6           0       -4.101620   -0.171670   -0.021215
     25          6           0       -3.474460   -0.035568    1.216298
     26          6           0       -2.222813    0.585904    1.257526
     27          1           0       -0.651221    1.536815    0.125190
     28          1           0       -1.815533    1.267386   -2.055914
     29          1           0       -4.059520    0.155264   -2.144199
     30          1           0       -3.961034   -0.408148    2.109521
     31          1           0       -1.716726    0.702137    2.211681
     32          7           0       -5.426974   -0.827927   -0.077452
     33          8           0       -5.908798   -1.222117    0.982310
     34          8           0       -5.958867   -0.935685   -1.180228
 ---------------------------------------------------------------------

 SCF Done:  E(RHF) =  -669.535531329     A.U. after   15 cycles
 E2 =    -0.2090803871D+01 EUMP2 =    -0.67162633519934D+03

 The electronic state is 1-A.
 Alpha  occ. eigenvalues --  -20.60716 -20.60711 -15.85770 -11.31120 -11.27695
 Alpha  occ. eigenvalues --  -11.27692 -11.27370 -11.26696 -11.26685 -11.22599
 Alpha  occ. eigenvalues --  -11.22409 -11.22159 -11.22098 -11.21975 -11.21476
 Alpha  occ. eigenvalues --   -1.59792  -1.39346  -1.19291  -1.09169  -1.08682
 Alpha  occ. eigenvalues --   -1.04696  -1.04317  -0.96789  -0.95520  -0.87810
 Alpha  occ. eigenvalues --   -0.86091  -0.82359  -0.80388  -0.78929  -0.77412
 Alpha  occ. eigenvalues --   -0.71988  -0.71116  -0.70409  -0.65791  -0.64941
 Alpha  occ. eigenvalues --   -0.64705  -0.62048  -0.61705  -0.60238  -0.58380
 Alpha  occ. eigenvalues --   -0.56096  -0.55192  -0.53445  -0.53189  -0.53024
 Alpha  occ. eigenvalues --   -0.52786  -0.50706  -0.48750  -0.48744  -0.48692
 Alpha  occ. eigenvalues --   -0.47397  -0.46483  -0.46373  -0.44755  -0.44555
 Alpha  occ. eigenvalues --   -0.37261  -0.36307
 Alpha virt. eigenvalues --    0.05126   0.11348   0.16611   0.19901   0.22463
 Alpha virt. eigenvalues --    0.23820   0.25920   0.26222   0.26613   0.27309
 Alpha virt. eigenvalues --    0.29133   0.30243   0.30763   0.31310   0.32248

 Mulliken charges:
               1
     1  C   -0.299137
     2  C   -0.300304
     3  C   -0.481256
     4  H    0.151428
     5  H    0.150348
     6  H    0.154804
     7  H    0.152779
     8  H    0.153842
     9  H    0.162534
    10  H    0.152629
    11  C   -0.299032
    12  C   -0.300211
    13  C   -0.476135
    14  H    0.150528
    15  H    0.150756
    16  H    0.152619
    17  H    0.152575
    18  H    0.155993
    19  H    0.155762
    20  H    0.161773
    21  C   -0.177881
    22  C   -0.221510
    23  C   -0.170680
    24  C    0.158049
    25  C   -0.170749
    26  C   -0.221502
    27  H    0.238240
    28  H    0.223539
    29  H    0.275256
    30  H    0.275320
    31  H    0.222916
    32  N    0.488036
    33  O   -0.460669
    34  O   -0.460664
 Sum of Mulliken charges =  -0.00000

 Dipole moment (field-independent basis, Debye):
    X=              4.9604    Y=              2.3004    Z=              0.1904  Tot=              5.4711
 Quadrupole moment (field-independent basis, Debye-Ang):
   XX=           -133.1277   YY=            -96.4090   ZZ=            -89.6528
   XY=             -9.3633   XZ=             -0.6823   YZ=             -0.2761

 Normal termination of Gaussian 16 at Thu May  6 12:18:29 2021.
