 Gaussian 16, Revision A.03,
 Gaussian 16:  EM64L-G16RevA.03 25-Dec-2016

 -------------
 #p 6-31g* mp2
 -------------

 ------------------------------------------------------
 Input file generated by CHIRIPA (05-May-2021 14:53:12)
 ------------------------------------------------------
 Symbolic Z-matrix:
 Charge =  0 Multiplicity = 1

                         Standard orientation:
 ---------------------------------------------------------------------
 Center     Atomic      Atomic             Coordinates (Angstroms)
 Number     Number       Type             X           Y           Z
 ---------------------------------------------------------------------
      1          6           0       -3.967359   -0.140353    0.094688
      2          6           0       -5.456031   -0.210810   -0.247182
      3          6           0       -6.031162   -1.619461   -0.096445
      4          1           0       -3.415495   -0.834588   -0.553717
      5          1           0       -3.818091   -0.489967    1.125651
      6          1           0       -5.602615    0.140140   -1.276727
      7          1           0       -6.004392    0.483815    0.401982
      8          1           0       -5.914113   -1.975313    0.932277
      9          1           0       -5.510054   -2.320941   -0.755970
     10          1           0       -7.096494   -1.646944   -0.345792
     11          6           0       -3.377952    1.261445   -0.051229
     12          6           0       -1.889280    1.331902    0.290641
     13          6           0       -1.314149    2.740553    0.139904
     14          1           0       -3.527220    1.611059   -1.082191
     15          1           0       -3.929816    1.955680    0.597176
     16          1           0       -1.340919    0.637277   -0.358523
     17          1           0       -1.742696    0.980952    1.320186
     18          1           0       -1.835257    3.442033    0.799429
     19          1           0       -1.431197    3.096405   -0.888818
     20          1           0       -0.248817    2.768036    0.389251
     21          6           0        4.319979    1.623078   -0.133611
     22          6           0        4.907728    0.354171   -0.102837
     23          6           0        4.113720   -0.794709   -0.038226
     24          6           0        2.729012   -0.637177   -0.005701
     25          6           0        2.113627    0.613315   -0.035027
     26          6           0        2.927260    1.748379   -0.099668
     27          1           0        4.944407    2.510189   -0.183814
     28          1           0        5.989065    0.253837   -0.129077
     29          1           0        4.542443   -1.789188   -0.013223
     30          1           0        1.032876    0.681474   -0.007608
     31          1           0        2.468050    2.732557   -0.123445
     32          7           0        1.878043   -1.846131    0.062716
     33          8           0        0.660495   -1.680448    0.090308
     34          8           0        2.444715   -2.936501    0.087453
 ---------------------------------------------------------------------

 SCF Done:  E(RHF) =  -669.535193782     A.U. after   15 cycles
 E2 =    -0.2092645687D+01 EUMP2 =    -0.67162783946928D+03

 The electronic state is 1-A.
 Alpha  occ. eigenvalues --  -20.60778 -20.60772 -15.85822 -11.31141 -11.27727
 Alpha  occ. eigenvalues --  -11.27652 -11.27468 -11.26737 -11.26710 -11.21635
 Alpha  occ. eigenvalues --  -11.21576 -11.21266 -11.21254 -11.20946 -11.20668
 Alpha  occ. eigenvalues --   -1.59849  -1.39404  -1.19321  -1.08728  -1.08247
 Alpha  occ. eigenvalues --   -1.04726  -1.03458  -0.95939  -0.95561  -0.86938
 Alpha  occ. eigenvalues --   -0.86124  -0.82403  -0.79514  -0.78009  -0.77432
 Alpha  occ. eigenvalues --   -0.72045  -0.71169  -0.70450  -0.64981  -0.64913
 Alpha  occ. eigenvalues --   -0.64698  -0.62215  -0.60818  -0.59282  -0.57504
 Alpha  occ. eigenvalues --   -0.55251  -0.55154  -0.53055  -0.52812  -0.52666
 Alpha  occ. eigenvalues --   -0.52332  -0.49830  -0.48835  -0.48798  -0.47785
 Alpha  occ. eigenvalues --   -0.46496  -0.45528  -0.45422  -0.44813  -0.43681
 Alpha  occ. eigenvalues --   -0.37309  -0.36321
 Alpha virt. eigenvalues --    0.05064   0.11320   0.16557   0.20030   0.23221
 Alpha virt. eigenvalues --    0.24090   0.26252   0.26725   0.27249   0.28160
 Alpha virt. eigenvalues --    0.28991   0.30220   0.31484   0.31715   0.32904

 Mulliken charges:
               1
     1  C   -0.299643
     2  C   -0.299906
     3  C   -0.475709
     4  H    0.158624
     5  H    0.152117
     6  H    0.150462
     7  H    0.149816
     8  H    0.156032
     9  H    0.157839
    10  H    0.158495
    11  C   -0.297594
    12  C   -0.311578
    13  C   -0.480630
    14  H    0.148333
    15  H    0.148121
    16  H    0.164750
    17  H    0.157614
    18  H    0.159648
    19  H    0.157010
    20  H    0.146069
    21  C   -0.170088
    22  C   -0.219476
    23  C   -0.169519
    24  C    0.155580
    25  C   -0.180042
    26  C   -0.226289
    27  H    0.225581
    28  H    0.223296
    29  H    0.275390
    30  H    0.295804
    31  H    0.225633
    32  N    0.487894
    33  O   -0.463447
    34  O   -0.460186
 Sum of Mulliken charges =  -0.00000

 Dipole moment (field-independent basis, Debye):
    X=              2.8901    Y=              4.1123    Z=             -0.2414  Tot=              5.0321
 Quadrupole moment (field-independent basis, Debye-Ang):
   XX=            -75.4671   YY=           -100.1503   ZZ=            -94.6982
   XY=              6.7777   XZ=             -0.9436   YZ=              0.3801

 Normal termination of Gaussian 16 at Thu May  6 13:40:44 2021.
