 Gaussian 16, Revision A.03,
 Gaussian 16:  EM64L-G16RevA.03 25-Dec-2016

 -------------
 #p 6-31g* mp2
 -------------

 ------------------------------------------------------
 Input file generated by CHIRIPA (05-May-2021 14:51:10)
 ------------------------------------------------------
 Symbolic Z-matrix:
 Charge =  0 Multiplicity = 1

                         Standard orientation:
 ---------------------------------------------------------------------
 Center     Atomic      Atomic             Coordinates (Angstroms)
 Number     Number       Type             X           Y           Z
 ---------------------------------------------------------------------
      1          6           0        3.199758   -1.161557   -0.001531
      2          6           0        1.843204   -0.940726    0.668529
      3          6           0        0.927692   -2.161039    0.566209
      4          1           0        3.042345   -1.416023   -1.058608
      5          1           0        3.691422   -2.029607    0.459066
      6          1           0        1.354847   -0.072509    0.207745
      7          1           0        2.003873   -0.686568    1.724088
      8          1           0        1.390735   -3.031075    1.042895
      9          1           0        0.738021   -2.413527   -0.482064
     10          1           0       -0.036593   -1.981328    1.051718
     11          6           0        4.126146    0.049522    0.092395
     12          6           0        5.482700   -0.171308   -0.577664
     13          6           0        6.398212    1.049005   -0.475344
     14          1           0        3.634482    0.917573   -0.368202
     15          1           0        4.283559    0.303989    1.149473
     16          1           0        5.322031   -0.425466   -1.633224
     17          1           0        5.971057   -1.039525   -0.116880
     18          1           0        6.587882    1.301493    0.572929
     19          1           0        5.935169    1.919041   -0.952030
     20          1           0        7.362496    0.869294   -0.960853
     21          6           0       -2.901337    0.610240   -0.066276
     22          6           0       -2.378312    1.976512    0.378388
     23          6           0       -0.852884    2.069486    0.331242
     24          1           0       -2.465131   -0.168470    0.574256
     25          1           0       -2.552047    0.406469   -1.087975
     26          1           0       -2.729634    2.178253    1.398432
     27          1           0       -2.815962    2.752077   -0.263155
     28          1           0       -0.487487    1.894007   -0.685759
     29          1           0       -0.400668    1.316922    0.985269
     30          1           0       -0.500568    3.054445    0.653091
     31          6           0       -4.424567    0.501795   -0.024588
     32          6           0       -4.947592   -0.864479   -0.469253
     33          6           0       -6.473020   -0.957451   -0.422107
     34          1           0       -4.773856    0.705566    0.997111
     35          1           0       -4.860772    1.280503   -0.665121
     36          1           0       -4.509941   -1.640043    0.172291
     37          1           0       -4.596270   -1.066218   -1.489296
     38          1           0       -6.925235   -0.204888   -1.076133
     39          1           0       -6.838417   -0.781974    0.594895
     40          1           0       -6.825336   -1.942412   -0.743955
 ---------------------------------------------------------------------

 SCF Done:  E(RHF) =  -470.732956474     A.U. after   11 cycles
 E2 =    -0.1583088664D+01 EUMP2 =    -0.47231604513735D+03

 The electronic state is 1-A.
 Alpha  occ. eigenvalues --  -11.21613 -11.21601 -11.21565 -11.21481 -11.21416
 Alpha  occ. eigenvalues --  -11.21356 -11.21349 -11.21290 -11.21070 -11.21061
 Alpha  occ. eigenvalues --  -11.21042 -11.21037  -1.08442  -1.08373  -1.03555
 Alpha  occ. eigenvalues --   -1.03466  -0.95998  -0.95929  -0.87029  -0.86934
 Alpha  occ. eigenvalues --   -0.79686  -0.79477  -0.78281  -0.78157  -0.65078
 Alpha  occ. eigenvalues --   -0.65005  -0.60976  -0.60861  -0.59408  -0.59260
 Alpha  occ. eigenvalues --   -0.57675  -0.57478  -0.55287  -0.55212  -0.52684
 Alpha  occ. eigenvalues --   -0.52635  -0.52483  -0.52326  -0.49968  -0.49850
 Alpha  occ. eigenvalues --   -0.48108  -0.47713  -0.46670  -0.46505  -0.45885
 Alpha  occ. eigenvalues --   -0.45725  -0.45697  -0.45465  -0.43793  -0.43732
 Alpha virt. eigenvalues --    0.21323   0.23005   0.23537   0.24979   0.25668
 Alpha virt. eigenvalues --    0.26232   0.26987   0.27241   0.28412   0.29171
 Alpha virt. eigenvalues --    0.30518   0.31280   0.31623   0.31827   0.31944

 Mulliken charges:
               1
     1  C   -0.297733
     2  C   -0.307034
     3  C   -0.476756
     4  H    0.149233
     5  H    0.149004
     6  H    0.161396
     7  H    0.150466
     8  H    0.154934
     9  H    0.155389
    10  H    0.160168
    11  C   -0.298325
    12  C   -0.299586
    13  C   -0.475664
    14  H    0.149874
    15  H    0.149489
    16  H    0.151779
    17  H    0.151814
    18  H    0.155119
    19  H    0.155183
    20  H    0.160087
    21  C   -0.299765
    22  C   -0.299698
    23  C   -0.480694
    24  H    0.150972
    25  H    0.149483
    26  H    0.151911
    27  H    0.151855
    28  H    0.154153
    29  H    0.162317
    30  H    0.160352
    31  C   -0.298284
    32  C   -0.299620
    33  C   -0.475724
    34  H    0.149507
    35  H    0.149713
    36  H    0.152077
    37  H    0.151972
    38  H    0.155137
    39  H    0.155169
    40  H    0.160326
 Sum of Mulliken charges =  -0.00000

 Dipole moment (field-independent basis, Debye):
    X=             -0.0223    Y=              0.0246    Z=             -0.0019  Tot=              0.0332
 Quadrupole moment (field-independent basis, Debye-Ang):
   XX=            -86.5792   YY=            -85.3071   ZZ=            -83.0559
   XY=             -0.9587   XZ=              0.3609   YZ=             -0.6118

 Normal termination of Gaussian 16 at Wed May  5 18:14:30 2021.
