 Gaussian 16, Revision A.03,
 Gaussian 16:  EM64L-G16RevA.03 25-Dec-2016

 -------------
 #p 6-31g* mp2
 -------------

 ------------------------------------------------------
 Input file generated by CHIRIPA (05-May-2021 14:51:09)
 ------------------------------------------------------
 Symbolic Z-matrix:
 Charge =  0 Multiplicity = 1

                         Standard orientation:
 ---------------------------------------------------------------------
 Center     Atomic      Atomic             Coordinates (Angstroms)
 Number     Number       Type             X           Y           Z
 ---------------------------------------------------------------------
      1          6           0       -3.344843    0.186404   -0.006680
      2          6           0       -3.668293   -0.730940   -1.186445
      3          6           0       -4.785848   -1.726063   -0.872447
      4          1           0       -3.059143   -0.426892    0.858876
      5          1           0       -4.252858    0.732915    0.283540
      6          1           0       -2.759602   -1.274533   -1.475242
      7          1           0       -3.953071   -0.115382   -2.049350
      8          1           0       -5.707357   -1.198777   -0.605255
      9          1           0       -4.507107   -2.364514   -0.027885
     10          1           0       -5.000836   -2.371899   -1.729498
     11          6           0       -2.229596    1.186832   -0.305170
     12          6           0       -1.906145    2.104175    0.874595
     13          6           0       -0.788591    3.099299    0.560596
     14          1           0       -1.321580    0.640320   -0.595391
     15          1           0       -2.515296    1.800128   -1.170727
     16          1           0       -1.621367    1.488617    1.737500
     17          1           0       -2.814836    2.647768    1.163392
     18          1           0       -1.067332    3.737750   -0.283965
     19          1           0        0.132918    2.572012    0.293404
     20          1           0       -0.573602    3.745134    1.417647
     21          6           0        3.128989   -0.245750   -0.365862
     22          6           0        4.653364   -0.236036   -0.246829
     23          6           0        5.322723    0.650418   -1.297520
     24          1           0        2.848211   -0.589853   -1.370701
     25          1           0        2.754254    0.782889   -0.271667
     26          1           0        5.025004   -1.264554   -0.339837
     27          1           0        4.930541    0.107902    0.757907
     28          1           0        4.980153    1.685918   -1.202725
     29          1           0        5.075153    0.305665   -2.306706
     30          1           0        6.412269    0.642713   -1.194129
     31          6           0        2.445450   -1.127486    0.677711
     32          6           0        0.921074   -1.137199    0.558680
     33          6           0        0.251716   -2.023654    1.609371
     34          1           0        2.820185   -2.156124    0.583517
     35          1           0        2.726227   -0.783382    1.682551
     36          1           0        0.643897   -1.481137   -0.446057
     37          1           0        0.549434   -0.108681    0.651687
     38          1           0        0.499286   -1.678900    2.618556
     39          1           0        0.594286   -3.059153    1.514575
     40          1           0       -0.837831   -2.015948    1.505979
 ---------------------------------------------------------------------

 SCF Done:  E(RHF) =  -470.732817820     A.U. after   11 cycles
 E2 =    -0.1584532871D+01 EUMP2 =    -0.47231735069129D+03

 The electronic state is 1-A.
 Alpha  occ. eigenvalues --  -11.21687 -11.21640 -11.21595 -11.21587 -11.21471
 Alpha  occ. eigenvalues --  -11.21411 -11.21362 -11.21263 -11.21178 -11.21106
 Alpha  occ. eigenvalues --  -11.21092 -11.21063  -1.08521  -1.08389  -1.03613
 Alpha  occ. eigenvalues --   -1.03516  -0.96055  -0.95963  -0.87069  -0.86984
 Alpha  occ. eigenvalues --   -0.79702  -0.79575  -0.78392  -0.78137  -0.65290
 Alpha  occ. eigenvalues --   -0.64942  -0.61167  -0.60761  -0.59418  -0.59325
 Alpha  occ. eigenvalues --   -0.57667  -0.57577  -0.55341  -0.55236  -0.52745
 Alpha  occ. eigenvalues --   -0.52674  -0.52473  -0.52395  -0.50014  -0.49908
 Alpha  occ. eigenvalues --   -0.48115  -0.47849  -0.46768  -0.46594  -0.46114
 Alpha  occ. eigenvalues --   -0.45799  -0.45719  -0.45254  -0.43833  -0.43766
 Alpha virt. eigenvalues --    0.19400   0.21799   0.23553   0.24893   0.25485
 Alpha virt. eigenvalues --    0.26170   0.26294   0.27807   0.28977   0.29383
 Alpha virt. eigenvalues --    0.30581   0.31114   0.31713   0.31913   0.32128

 Mulliken charges:
               1
     1  C   -0.300456
     2  C   -0.300166
     3  C   -0.475610
     4  H    0.151235
     5  H    0.149469
     6  H    0.152192
     7  H    0.152042
     8  H    0.155245
     9  H    0.154870
    10  H    0.160200
    11  C   -0.304519
    12  C   -0.300985
    13  C   -0.478750
    14  H    0.157607
    15  H    0.149255
    16  H    0.152219
    17  H    0.152434
    18  H    0.155831
    19  H    0.156102
    20  H    0.160265
    21  C   -0.299856
    22  C   -0.299670
    23  C   -0.475828
    24  H    0.149869
    25  H    0.150122
    26  H    0.152127
    27  H    0.152150
    28  H    0.155507
    29  H    0.155259
    30  H    0.160403
    31  C   -0.297430
    32  C   -0.308247
    33  C   -0.478598
    34  H    0.149806
    35  H    0.149903
    36  H    0.151809
    37  H    0.160534
    38  H    0.155564
    39  H    0.155920
    40  H    0.162175
 Sum of Mulliken charges =  -0.00000

 Dipole moment (field-independent basis, Debye):
    X=              0.0363    Y=             -0.0121    Z=             -0.0036  Tot=              0.0384
 Quadrupole moment (field-independent basis, Debye-Ang):
   XX=            -85.3369   YY=            -84.6771   ZZ=            -84.7497
   XY=             -1.5219   XZ=              0.7009   YZ=              0.7469

 Normal termination of Gaussian 16 at Wed May  5 18:10:48 2021.
