 Gaussian 16, Revision A.03,
 Gaussian 16:  EM64L-G16RevA.03 25-Dec-2016

 -------------
 #p 6-31g* mp2
 -------------

 ------------------------------------------------------
 Input file generated by CHIRIPA (05-May-2021 14:53:13)
 ------------------------------------------------------
 Symbolic Z-matrix:
 Charge =  0 Multiplicity = 1

                         Standard orientation:
 ---------------------------------------------------------------------
 Center     Atomic      Atomic             Coordinates (Angstroms)
 Number     Number       Type             X           Y           Z
 ---------------------------------------------------------------------
      1          6           0       -2.678903    0.899414   -0.084126
      2          6           0       -3.147379    2.325591   -0.374876
      3          6           0       -1.990846    3.275490   -0.687796
      4          1           0       -1.977153    0.915899    0.760988
      5          1           0       -2.117020    0.521862   -0.949653
      6          1           0       -3.709395    2.699839    0.490394
      7          1           0       -3.848243    2.305686   -1.219274
      8          1           0       -1.433769    2.928633   -1.564126
      9          1           0       -1.294131    3.325026    0.155256
     10          1           0       -2.348307    4.289475   -0.892533
     11          6           0       -3.823653   -0.061987    0.230488
     12          6           0       -3.355178   -1.488164    0.521238
     13          6           0       -4.511710   -2.438064    0.834157
     14          1           0       -4.385537    0.315565    1.096015
     15          1           0       -4.525404   -0.078472   -0.614627
     16          1           0       -2.654313   -1.468259    1.365636
     17          1           0       -2.793162   -1.862412   -0.344032
     18          1           0       -5.208425   -2.487599   -0.008894
     19          1           0       -5.068788   -2.091206    1.710488
     20          1           0       -4.154249   -3.452048    1.038894
     21          6           0        1.356786   -2.388425   -0.903815
     22          6           0        0.674082   -1.169788   -0.830586
     23          6           0        1.319700   -0.021242   -0.363075
     24          6           0        2.654456   -0.127841    0.024678
     25          6           0        3.361716   -1.327559   -0.036547
     26          6           0        2.696062   -2.463289   -0.507261
     27          1           0        0.847473   -3.275666   -1.268232
     28          1           0       -0.366055   -1.108688   -1.137874
     29          1           0        0.815056    0.934926   -0.296028
     30          1           0        4.398184   -1.357271    0.276930
     31          1           0        3.228761   -3.408362   -0.563048
     32          7           0        3.348547    1.081290    0.521305
     33          8           0        4.524800    0.961039    0.856874
     34          8           0        2.703182    2.126363    0.565589
 ---------------------------------------------------------------------

 SCF Done:  E(RHF) =  -669.535360918     A.U. after   15 cycles
 E2 =    -0.2092708851D+01 EUMP2 =    -0.67162806976905D+03

 The electronic state is 1-A.
 Alpha  occ. eigenvalues --  -20.60687 -20.60681 -15.85737 -11.31069 -11.27646
 Alpha  occ. eigenvalues --  -11.27592 -11.27373 -11.26663 -11.26577 -11.22455
 Alpha  occ. eigenvalues --  -11.22270 -11.22117 -11.22102 -11.21746 -11.21390
 Alpha  occ. eigenvalues --   -1.59762  -1.39316  -1.19238  -1.09178  -1.08641
 Alpha  occ. eigenvalues --   -1.04631  -1.04164  -0.96599  -0.95482  -0.87610
 Alpha  occ. eigenvalues --   -0.86037  -0.82323  -0.80238  -0.79071  -0.77331
 Alpha  occ. eigenvalues --   -0.71957  -0.71085  -0.70350  -0.65846  -0.64888
 Alpha  occ. eigenvalues --   -0.64613  -0.61989  -0.61549  -0.59982  -0.58222
 Alpha  occ. eigenvalues --   -0.55876  -0.55148  -0.53263  -0.53045  -0.52964
 Alpha  occ. eigenvalues --   -0.52714  -0.50535  -0.48719  -0.48712  -0.48540
 Alpha  occ. eigenvalues --   -0.47274  -0.46500  -0.46448  -0.44729  -0.44448
 Alpha  occ. eigenvalues --   -0.37226  -0.36226
 Alpha virt. eigenvalues --    0.05150   0.11381   0.16622   0.19530   0.22522
 Alpha virt. eigenvalues --    0.22861   0.24629   0.25933   0.26754   0.28372
 Alpha virt. eigenvalues --    0.30075   0.30771   0.31215   0.31499   0.32015

 Mulliken charges:
               1
     1  C   -0.305693
     2  C   -0.299329
     3  C   -0.480787
     4  H    0.153954
     5  H    0.140469
     6  H    0.155766
     7  H    0.153000
     8  H    0.153005
     9  H    0.163507
    10  H    0.165046
    11  C   -0.298407
    12  C   -0.301557
    13  C   -0.475915
    14  H    0.154439
    15  H    0.151467
    16  H    0.156222
    17  H    0.142109
    18  H    0.156377
    19  H    0.158804
    20  H    0.160597
    21  C   -0.172133
    22  C   -0.224074
    23  C   -0.177166
    24  C    0.158528
    25  C   -0.171078
    26  C   -0.218740
    27  H    0.225081
    28  H    0.232557
    29  H    0.279858
    30  H    0.275040
    31  H    0.222801
    32  N    0.487980
    33  O   -0.460908
    34  O   -0.460817
 Sum of Mulliken charges =  -0.00000

 Dipole moment (field-independent basis, Debye):
    X=             -2.6751    Y=             -4.1224    Z=             -1.6370  Tot=              5.1798
 Quadrupole moment (field-independent basis, Debye-Ang):
   XX=           -104.3650   YY=            -92.7725   ZZ=            -94.6528
   XY=            -14.4429   XZ=             -4.1597   YZ=              0.1283

 Normal termination of Gaussian 16 at Thu May  6 07:22:28 2021.
