 Gaussian 16, Revision A.03,
 Gaussian 16:  EM64L-G16RevA.03 25-Dec-2016

 -------------
 #p 6-31g* mp2
 -------------

 ------------------------------------------------------
 Input file generated by CHIRIPA (05-May-2021 14:51:09)
 ------------------------------------------------------
 Symbolic Z-matrix:
 Charge =  0 Multiplicity = 1

                         Standard orientation:
 ---------------------------------------------------------------------
 Center     Atomic      Atomic             Coordinates (Angstroms)
 Number     Number       Type             X           Y           Z
 ---------------------------------------------------------------------
      1          6           0        3.631100    1.114923   -0.286452
      2          6           0        2.526174    1.932583    0.383291
      3          6           0        2.548558    3.405079   -0.027864
      4          1           0        4.606620    1.552736   -0.034211
      5          1           0        3.525864    1.193601   -1.377383
      6          1           0        2.632633    1.851261    1.472635
      7          1           0        1.553181    1.492659    0.129583
      8          1           0        2.419433    3.504773   -1.110449
      9          1           0        3.505018    3.865413    0.240234
     10          1           0        1.750385    3.971012    0.462544
     11          6           0        3.621760   -0.359110    0.114630
     12          6           0        4.726687   -1.176770   -0.555113
     13          6           0        4.704303   -2.649265   -0.143958
     14          1           0        3.726997   -0.437788    1.205561
     15          1           0        2.646240   -0.796923   -0.137611
     16          1           0        5.699680   -0.736846   -0.301405
     17          1           0        4.620228   -1.095448   -1.644457
     18          1           0        3.747842   -3.109600   -0.412056
     19          1           0        4.833427   -2.748960    0.938627
     20          1           0        5.502475   -3.215199   -0.634366
     21          6           0       -4.203643   -0.258032   -0.399771
     22          6           0       -5.532781    0.032683    0.297985
     23          6           0       -6.677904    0.270328   -0.686907
     24          1           0       -3.952190    0.582734   -1.060702
     25          1           0       -4.321652   -1.139008   -1.045796
     26          1           0       -5.411924    0.912024    0.943563
     27          1           0       -5.781004   -0.808786    0.957476
     28          1           0       -6.827234   -0.607944   -1.323256
     29          1           0       -6.456056    1.122643   -1.337248
     30          1           0       -7.618580    0.476291   -0.166746
     31          6           0       -3.049217   -0.497781    0.571592
     32          6           0       -1.720079   -0.788497   -0.126163
     33          6           0       -0.574956   -1.026141    0.858729
     34          1           0       -2.931209    0.383196    1.217618
     35          1           0       -3.300671   -1.338547    1.232524
     36          1           0       -1.471856    0.052973   -0.785655
     37          1           0       -1.840937   -1.667836   -0.771741
     38          1           0       -0.796805   -1.878456    1.509070
     39          1           0       -0.425627   -0.147870    1.495078
     40          1           0        0.365720   -1.232104    0.338568
 ---------------------------------------------------------------------

 SCF Done:  E(RHF) =  -470.733084149     A.U. after   11 cycles
 E2 =    -0.1583070500D+01 EUMP2 =    -0.47231615464888D+03

 The electronic state is 1-A.
 Alpha  occ. eigenvalues --  -11.21626 -11.21609 -11.21587 -11.21564 -11.21417
 Alpha  occ. eigenvalues --  -11.21382 -11.21358 -11.21321 -11.21078 -11.21064
 Alpha  occ. eigenvalues --  -11.21061 -11.21045  -1.08448  -1.08408  -1.03544
 Alpha  occ. eigenvalues --   -1.03511  -0.95999  -0.95956  -0.87010  -0.86979
 Alpha  occ. eigenvalues --   -0.79612  -0.79573  -0.78268  -0.78211  -0.65108
 Alpha  occ. eigenvalues --   -0.65027  -0.60993  -0.60859  -0.59378  -0.59333
 Alpha  occ. eigenvalues --   -0.57674  -0.57511  -0.55280  -0.55254  -0.52777
 Alpha  occ. eigenvalues --   -0.52620  -0.52450  -0.52326  -0.49955  -0.49887
 Alpha  occ. eigenvalues --   -0.47985  -0.47836  -0.46663  -0.46585  -0.45800
 Alpha  occ. eigenvalues --   -0.45765  -0.45704  -0.45678  -0.43788  -0.43701
 Alpha virt. eigenvalues --    0.21030   0.23092   0.23863   0.24159   0.26248
 Alpha virt. eigenvalues --    0.26571   0.26966   0.27532   0.27925   0.28844
 Alpha virt. eigenvalues --    0.30642   0.31346   0.31751   0.31972   0.32185

 Mulliken charges:
               1
     1  C   -0.297882
     2  C   -0.303391
     3  C   -0.475647
     4  H    0.149586
     5  H    0.149074
     6  H    0.151781
     7  H    0.156760
     8  H    0.154957
     9  H    0.155182
    10  H    0.159791
    11  C   -0.305105
    12  C   -0.299083
    13  C   -0.475620
    14  H    0.149830
    15  H    0.156076
    16  H    0.151955
    17  H    0.151649
    18  H    0.154775
    19  H    0.155390
    20  H    0.160215
    21  C   -0.298244
    22  C   -0.299660
    23  C   -0.475712
    24  H    0.149612
    25  H    0.149499
    26  H    0.151974
    27  H    0.151977
    28  H    0.155176
    29  H    0.155186
    30  H    0.160294
    31  C   -0.298525
    32  C   -0.300239
    33  C   -0.482593
    34  H    0.149690
    35  H    0.149825
    36  H    0.151608
    37  H    0.151797
    38  H    0.155207
    39  H    0.156951
    40  H    0.165885
 Sum of Mulliken charges =  -0.00000

 Dipole moment (field-independent basis, Debye):
    X=             -0.0048    Y=             -0.0090    Z=              0.0152  Tot=              0.0183
 Quadrupole moment (field-independent basis, Debye-Ang):
   XX=            -85.2734   YY=            -85.0115   ZZ=            -84.5568
   XY=              0.6343   XZ=             -0.0475   YZ=              0.4830

 Normal termination of Gaussian 16 at Wed May  5 23:00:20 2021.
