 Gaussian 16, Revision A.03,
 Gaussian 16:  EM64L-G16RevA.03 25-Dec-2016

 -------------
 #p 6-31g* mp2
 -------------

 ------------------------------------------------------
 Input file generated by CHIRIPA (05-May-2021 14:55:20)
 ------------------------------------------------------
 Symbolic Z-matrix:
 Charge =  0 Multiplicity = 1

                         Standard orientation:
 ---------------------------------------------------------------------
 Center     Atomic      Atomic             Coordinates (Angstroms)
 Number     Number       Type             X           Y           Z
 ---------------------------------------------------------------------
      1          6           0        2.365196    2.262591    0.039078
      2          6           0        2.156594    1.395957    1.117017
      3          6           0        2.717231    0.115240    1.117174
      4          6           0        3.484484   -0.267833    0.018144
      5          6           0        3.710498    0.572696   -1.070764
      6          6           0        3.140116    1.848923   -1.049453
      7          1           0        1.925894    3.255739    0.047294
      8          1           0        1.555227    1.714527    1.963725
      9          1           0        2.571779   -0.575903    1.938504
     10          1           0        4.314667    0.226795   -1.900673
     11          1           0        3.303800    2.519843   -1.887975
     12          7           0        4.083163   -1.621294    0.006947
     13          8           0        4.755149   -1.934861   -0.973231
     14          8           0        3.869086   -2.342943    0.978560
     15          6           0       -3.897261    0.666659    0.121082
     16          6           0       -2.400055    0.385932   -0.011398
     17          6           0       -1.539714    1.614629    0.285104
     18          1           0       -4.172716    1.482284   -0.561432
     19          1           0       -4.107313    1.025745    1.138103
     20          1           0       -2.193100    0.026166   -1.027447
     21          1           0       -2.128169   -0.429248    0.671371
     22          1           0       -1.717004    1.972136    1.304593
     23          1           0       -1.782303    2.430138   -0.403878
     24          1           0       -0.472957    1.391531    0.184524
     25          6           0       -4.770423   -0.552057   -0.172255
     26          6           0       -6.267629   -0.271330   -0.039774
     27          6           0       -7.127970   -1.500027   -0.336275
     28          1           0       -4.560371   -0.911144   -1.189275
     29          1           0       -4.494968   -1.367682    0.510260
     30          1           0       -6.539515    0.543850   -0.722543
     31          1           0       -6.474584    0.088436    0.976275
     32          1           0       -6.885381   -2.315536    0.352706
     33          1           0       -6.950680   -1.857534   -1.355765
     34          1           0       -8.194727   -1.276930   -0.235696
 ---------------------------------------------------------------------

 SCF Done:  E(RHF) =  -669.534825819     A.U. after   15 cycles
 E2 =    -0.2092116824D+01 EUMP2 =    -0.67162694264276D+03

 The electronic state is 1-A.
 Alpha  occ. eigenvalues --  -20.60796 -20.60790 -15.85850 -11.31235 -11.27802
 Alpha  occ. eigenvalues --  -11.27794 -11.27532 -11.26817 -11.26793 -11.21968
 Alpha  occ. eigenvalues --  -11.21788 -11.21689 -11.21578 -11.21535 -11.21205
 Alpha  occ. eigenvalues --   -1.59871  -1.39423  -1.19417  -1.08813  -1.08700
 Alpha  occ. eigenvalues --   -1.04823  -1.03823  -0.96294  -0.95630  -0.87327
 Alpha  occ. eigenvalues --   -0.86206  -0.82460  -0.79897  -0.78504  -0.77506
 Alpha  occ. eigenvalues --   -0.72068  -0.71194  -0.70505  -0.65337  -0.65064
 Alpha  occ. eigenvalues --   -0.64821  -0.62168  -0.61225  -0.59690  -0.57907
 Alpha  occ. eigenvalues --   -0.55591  -0.55295  -0.53553  -0.52917  -0.52791
 Alpha  occ. eigenvalues --   -0.52485  -0.50237  -0.48827  -0.48821  -0.48204
 Alpha  occ. eigenvalues --   -0.46923  -0.46051  -0.45968  -0.44825  -0.44095
 Alpha  occ. eigenvalues --   -0.37327  -0.36384
 Alpha virt. eigenvalues --    0.05016   0.11165   0.16487   0.21117   0.22646
 Alpha virt. eigenvalues --    0.24121   0.26301   0.26762   0.27319   0.27941
 Alpha virt. eigenvalues --    0.28605   0.30530   0.31399   0.31706   0.32292

 Mulliken charges:
               1
     1  C   -0.170037
     2  C   -0.220244
     3  C   -0.171641
     4  C    0.158651
     5  C   -0.170972
     6  C   -0.218416
     7  H    0.227804
     8  H    0.226865
     9  H    0.275916
    10  H    0.275836
    11  H    0.223844
    12  N    0.488110
    13  O   -0.460287
    14  O   -0.460241
    15  C   -0.298422
    16  C   -0.297804
    17  C   -0.488514
    18  H    0.149187
    19  H    0.148722
    20  H    0.154169
    21  H    0.152887
    22  H    0.149643
    23  H    0.152866
    24  H    0.169570
    25  C   -0.298647
    26  C   -0.299764
    27  C   -0.475887
    28  H    0.150480
    29  H    0.150731
    30  H    0.151665
    31  H    0.151693
    32  H    0.155916
    33  H    0.155751
    34  H    0.160569
 Sum of Mulliken charges =  -0.00000

 Dipole moment (field-independent basis, Debye):
    X=             -2.0735    Y=              4.7350    Z=              0.0124  Tot=              5.1691
 Quadrupole moment (field-independent basis, Debye-Ang):
   XX=           -109.7443   YY=            -98.4305   ZZ=            -89.9515
   XY=             17.4423   XZ=             -2.0363   YZ=             -1.3629

 Normal termination of Gaussian 16 at Thu May  6 19:06:34 2021.
