 Gaussian 16, Revision A.03,
 Gaussian 16:  EM64L-G16RevA.03 25-Dec-2016

 -------------
 #p 6-31g* mp2
 -------------

 ------------------------------------------------------
 Input file generated by CHIRIPA (05-May-2021 14:53:14)
 ------------------------------------------------------
 Symbolic Z-matrix:
 Charge =  0 Multiplicity = 1

                         Standard orientation:
 ---------------------------------------------------------------------
 Center     Atomic      Atomic             Coordinates (Angstroms)
 Number     Number       Type             X           Y           Z
 ---------------------------------------------------------------------
      1          6           0        3.109283   -0.262353    0.265034
      2          6           0        4.343084    0.179704   -0.522562
      3          6           0        5.094034    1.328669    0.151045
      4          1           0        2.434543    0.595703    0.389176
      5          1           0        3.417188   -0.566548    1.275011
      6          1           0        4.033123    0.481664   -1.531205
      7          1           0        5.014876   -0.679550   -0.645010
      8          1           0        5.431215    1.035052    1.150394
      9          1           0        4.443885    2.202864    0.259164
     10          1           0        5.972418    1.628774   -0.428815
     11          6           0        2.347996   -1.410226   -0.395692
     12          6           0        1.114196   -1.852282    0.391905
     13          6           0        0.363246   -3.001247   -0.281703
     14          1           0        2.040091   -1.106030   -1.405669
     15          1           0        3.022736   -2.268281   -0.519834
     16          1           0        0.442404   -0.993028    0.514352
     17          1           0        1.424156   -2.154243    1.400548
     18          1           0        1.013395   -3.875443   -0.389822
     19          1           0        0.026064   -2.707630   -1.281052
     20          1           0       -0.515138   -3.301352    0.298158
     21          6           0       -3.214878   -1.625189    0.082830
     22          6           0       -3.220964   -0.863540   -1.090360
     23          6           0       -2.623857    0.400248   -1.119513
     24          6           0       -2.027037    0.873632    0.047965
     25          6           0       -2.004605    0.138695    1.232301
     26          6           0       -2.607788   -1.122527    1.238379
     27          1           0       -3.681086   -2.605934    0.096514
     28          1           0       -3.691694   -1.251377   -1.989271
     29          1           0       -2.614125    1.010993   -2.014116
     30          1           0       -1.527524    0.552042    2.112616
     31          1           0       -2.601549   -1.711823    2.150924
     32          7           0       -1.391690    2.210190    0.029316
     33          8           0       -0.872505    2.604671    1.071174
     34          8           0       -1.424920    2.837994   -1.026806
 ---------------------------------------------------------------------

 SCF Done:  E(RHF) =  -669.534327213     A.U. after   15 cycles
 E2 =    -0.2094623230D+01 EUMP2 =    -0.67162895044347D+03

 The electronic state is 1-A.
 Alpha  occ. eigenvalues --  -20.60880 -20.60872 -15.85930 -11.31275 -11.27872
 Alpha  occ. eigenvalues --  -11.27841 -11.27602 -11.26861 -11.26846 -11.21540
 Alpha  occ. eigenvalues --  -11.21273 -11.21253 -11.21223 -11.21067 -11.20648
 Alpha  occ. eigenvalues --   -1.59955  -1.39507  -1.19479  -1.08865  -1.08245
 Alpha  occ. eigenvalues --   -1.04881  -1.03364  -0.95825  -0.95698  -0.86847
 Alpha  occ. eigenvalues --   -0.86267  -0.82527  -0.79456  -0.78045  -0.77573
 Alpha  occ. eigenvalues --   -0.72145  -0.71286  -0.70576  -0.65121  -0.64900
 Alpha  occ. eigenvalues --   -0.64856  -0.62217  -0.60804  -0.59271  -0.57467
 Alpha  occ. eigenvalues --   -0.55368  -0.55164  -0.53154  -0.52957  -0.52447
 Alpha  occ. eigenvalues --   -0.52245  -0.49769  -0.48906  -0.48901  -0.47770
 Alpha  occ. eigenvalues --   -0.46498  -0.45591  -0.45506  -0.44889  -0.43629
 Alpha  occ. eigenvalues --   -0.37371  -0.36382
 Alpha virt. eigenvalues --    0.04945   0.11062   0.16411   0.21097   0.23027
 Alpha virt. eigenvalues --    0.24480   0.26782   0.26938   0.27408   0.28079
 Alpha virt. eigenvalues --    0.28535   0.30901   0.31541   0.31686   0.32199

 Mulliken charges:
               1
     1  C   -0.300531
     2  C   -0.299407
     3  C   -0.476695
     4  H    0.156784
     5  H    0.147802
     6  H    0.152902
     7  H    0.149568
     8  H    0.153656
     9  H    0.161107
    10  H    0.159153
    11  C   -0.297797
    12  C   -0.305338
    13  C   -0.472017
    14  H    0.149491
    15  H    0.148054
    16  H    0.158806
    17  H    0.148059
    18  H    0.153585
    19  H    0.154191
    20  H    0.151226
    21  C   -0.168016
    22  C   -0.218111
    23  C   -0.171896
    24  C    0.161666
    25  C   -0.177668
    26  C   -0.212787
    27  H    0.226469
    28  H    0.224052
    29  H    0.275933
    30  H    0.276534
    31  H    0.224357
    32  N    0.487760
    33  O   -0.460564
    34  O   -0.460328
 Sum of Mulliken charges =  -0.00000

 Dipole moment (field-independent basis, Debye):
    X=             -2.3560    Y=             -4.5740    Z=              0.0694  Tot=              5.1456
 Quadrupole moment (field-independent basis, Debye-Ang):
   XX=            -86.1076   YY=           -104.2672   ZZ=            -90.0456
   XY=              7.0677   XZ=              1.2213   YZ=             -1.3973

 Normal termination of Gaussian 16 at Thu May  6 08:57:48 2021.
