 Gaussian 16, Revision A.03,
 Gaussian 16:  EM64L-G16RevA.03 25-Dec-2016

 -------------
 #p 6-31g* mp2
 -------------

 ------------------------------------------------------
 Input file generated by CHIRIPA (05-May-2021 14:57:26)
 ------------------------------------------------------
 Symbolic Z-matrix:
 Charge =  0 Multiplicity = 1

                         Standard orientation:
 ---------------------------------------------------------------------
 Center     Atomic      Atomic             Coordinates (Angstroms)
 Number     Number       Type             X           Y           Z
 ---------------------------------------------------------------------
      1          6           0       -4.713693    1.480890   -0.316366
      2          6           0       -4.798081    0.664783    0.816492
      3          6           0       -3.863488   -0.352886    1.029646
      4          6           0       -2.853008   -0.527295    0.085293
      5          6           0       -2.742273    0.269367   -1.053284
      6          6           0       -3.687867    1.280930   -1.246000
      7          1           0       -5.443980    2.269068   -0.474011
      8          1           0       -5.593680    0.817779    1.540135
      9          1           0       -3.905297   -0.999201    1.897947
     10          1           0       -1.937900    0.092667   -1.756973
     11          1           0       -3.619866    1.913209   -2.126707
     12          7           0       -1.857773   -1.601424    0.300131
     13          8           0       -0.977063   -1.734659   -0.546766
     14          8           0       -1.977263   -2.289751    1.311350
     15          6           0        2.463545    2.764981    0.428364
     16          6           0        1.699463    2.040848   -0.492686
     17          6           0        1.997050    0.702352   -0.765488
     18          6           0        3.070544    0.116820   -0.096121
     19          6           0        3.850520    0.811822    0.826864
     20          6           0        3.534746    2.149242    1.084042
     21          1           0        2.225308    3.804339    0.634215
     22          1           0        0.866977    2.516454   -1.003383
     23          1           0        1.422025    0.118397   -1.473838
     24          1           0        4.674311    0.310481    1.320264
     25          1           0        4.129872    2.709165    1.799833
     26          7           0        3.395213   -1.299616   -0.376655
     27          8           0        4.346088   -1.792480    0.226304
     28          8           0        2.692666   -1.890134   -1.194183
 ---------------------------------------------------------------------

 SCF Done:  E(RHF) =  -868.336339009     A.U. after   16 cycles
 E2 =    -0.2600631615D+01 EUMP2 =    -0.87093697062477D+03

 The electronic state is 1-A.
 Alpha  occ. eigenvalues --  -20.60857 -20.60850 -20.59901 -20.59815 -15.85905
 Alpha  occ. eigenvalues --  -15.84921 -11.31475 -11.30552 -11.28116 -11.28023
 Alpha  occ. eigenvalues --  -11.27817 -11.27204 -11.27146 -11.27141 -11.27079
 Alpha  occ. eigenvalues --  -11.27051 -11.26316 -11.26277  -1.59920  -1.58928
 Alpha  occ. eigenvalues --   -1.39472  -1.38470  -1.19659  -1.18781  -1.09009
 Alpha  occ. eigenvalues --   -1.08136  -1.05097  -1.04238  -0.95812  -0.94917
 Alpha  occ. eigenvalues --   -0.86481  -0.85620  -0.82643  -0.81757  -0.77676
 Alpha  occ. eigenvalues --   -0.76731  -0.72105  -0.71260  -0.71138  -0.70762
 Alpha  occ. eigenvalues --   -0.70245  -0.69901  -0.65307  -0.65097  -0.64440
 Alpha  occ. eigenvalues --   -0.64267  -0.62451  -0.61570  -0.55573  -0.54762
 Alpha  occ. eigenvalues --   -0.53410  -0.53189  -0.52545  -0.52347  -0.48875
 Alpha  occ. eigenvalues --   -0.48863  -0.47935  -0.47867  -0.44834  -0.43804
 Alpha  occ. eigenvalues --   -0.37638  -0.36796  -0.36713  -0.35844
 Alpha virt. eigenvalues --    0.04840   0.05831   0.10927   0.11804   0.16320
 Alpha virt. eigenvalues --    0.17228   0.20488   0.21934   0.25818   0.27370
 Alpha virt. eigenvalues --    0.28225   0.29067   0.30571   0.31365   0.32006

 Mulliken charges:
               1
     1  C   -0.171390
     2  C   -0.218207
     3  C   -0.170715
     4  C    0.160371
     5  C   -0.173821
     6  C   -0.219268
     7  H    0.225877
     8  H    0.224511
     9  H    0.277339
    10  H    0.271227
    11  H    0.221995
    12  N    0.488369
    13  O   -0.457501
    14  O   -0.457257
    15  C   -0.171224
    16  C   -0.220258
    17  C   -0.167764
    18  C    0.158319
    19  C   -0.170419
    20  C   -0.219248
    21  H    0.221635
    22  H    0.215025
    23  H    0.283018
    24  H    0.275104
    25  H    0.221085
    26  N    0.488141
    27  O   -0.464921
    28  O   -0.450022
 Sum of Mulliken charges =  -0.00000

 Dipole moment (field-independent basis, Debye):
    X=             -4.7742    Y=              8.4499    Z=              0.2485  Tot=              9.7085
 Quadrupole moment (field-independent basis, Debye-Ang):
   XX=            -89.0065   YY=           -108.9145   ZZ=           -100.1139
   XY=              6.7333   XZ=              5.2757   YZ=             -0.6116

 Normal termination of Gaussian 16 at Thu May  6 03:34:30 2021.
