 Gaussian 16, Revision A.03,
 Gaussian 16:  EM64L-G16RevA.03 25-Dec-2016

 -------------
 #p 6-31g* mp2
 -------------

 ------------------------------------------------------
 Input file generated by CHIRIPA (05-May-2021 14:55:21)
 ------------------------------------------------------
 Symbolic Z-matrix:
 Charge =  0 Multiplicity = 1

                         Standard orientation:
 ---------------------------------------------------------------------
 Center     Atomic      Atomic             Coordinates (Angstroms)
 Number     Number       Type             X           Y           Z
 ---------------------------------------------------------------------
      1          6           0       -3.946391   -2.402801    0.068018
      2          6           0       -2.555859   -2.254058    0.039430
      3          6           0       -1.978584   -0.981341    0.000784
      4          6           0       -2.825527    0.125861   -0.008290
      5          6           0       -4.214470    0.010313    0.019536
      6          6           0       -4.769807   -1.272134    0.057998
      7          1           0       -4.386312   -3.395257    0.097968
      8          1           0       -1.913928   -3.130362    0.047127
      9          1           0       -0.905189   -0.837382   -0.021929
     10          1           0       -4.828502    0.902675    0.010975
     11          1           0       -5.850038   -1.384630    0.080139
     12          7           0       -2.226004    1.478379   -0.049105
     13          8           0       -2.994009    2.437938   -0.056350
     14          8           0       -0.999445    1.553315   -0.073078
     15          6           0        3.851389   -0.549238   -0.341751
     16          6           0        4.725000   -1.509140    0.466563
     17          6           0        4.932393   -2.852158   -0.234214
     18          1           0        2.877025   -1.020542   -0.529983
     19          1           0        4.313518   -0.383429   -1.324777
     20          1           0        4.262073   -1.672004    1.448291
     21          1           0        5.697330   -1.035420    0.653057
     22          1           0        5.415634   -2.708986   -1.206109
     23          1           0        3.972221   -3.349186   -0.406357
     24          1           0        5.559732   -3.522947    0.361058
     25          6           0        3.634910    0.797687    0.345753
     26          6           0        2.761298    1.757590   -0.462562
     27          6           0        2.553906    3.100607    0.238215
     28          1           0        3.172781    0.631878    1.328778
     29          1           0        4.609274    1.268991    0.533984
     30          1           0        1.788969    1.283870   -0.649055
     31          1           0        3.224226    1.920453   -1.444289
     32          1           0        3.514078    3.597635    0.410359
     33          1           0        2.070665    2.957435    1.210111
     34          1           0        1.926567    3.771397   -0.357056
 ---------------------------------------------------------------------

 SCF Done:  E(RHF) =  -669.535972745     A.U. after   15 cycles
 E2 =    -0.2091225910D+01 EUMP2 =    -0.67162719865491D+03

 The electronic state is 1-A.
 Alpha  occ. eigenvalues --  -20.60934 -20.60926 -15.85976 -11.31302 -11.27873
 Alpha  occ. eigenvalues --  -11.27861 -11.27602 -11.26875 -11.26865 -11.21404
 Alpha  occ. eigenvalues --  -11.21049 -11.21016 -11.20702 -11.20447 -11.19783
 Alpha  occ. eigenvalues --   -1.59998  -1.39554  -1.19471  -1.08873  -1.07881
 Alpha  occ. eigenvalues --   -1.04869  -1.02865  -0.95717  -0.95341  -0.86367
 Alpha  occ. eigenvalues --   -0.86269  -0.82552  -0.79009  -0.77678  -0.77536
 Alpha  occ. eigenvalues --   -0.72205  -0.71314  -0.70581  -0.65133  -0.64872
 Alpha  occ. eigenvalues --   -0.64514  -0.62219  -0.60244  -0.58783  -0.56913
 Alpha  occ. eigenvalues --   -0.55371  -0.54643  -0.53199  -0.52961  -0.52015
 Alpha  occ. eigenvalues --   -0.51771  -0.49333  -0.48955  -0.48936  -0.47296
 Alpha  occ. eigenvalues --   -0.46070  -0.45167  -0.45080  -0.44887  -0.43142
 Alpha  occ. eigenvalues --   -0.37449  -0.36471
 Alpha virt. eigenvalues --    0.04927   0.11184   0.16423   0.20761   0.22998
 Alpha virt. eigenvalues --    0.24759   0.25900   0.27450   0.27685   0.28516
 Alpha virt. eigenvalues --    0.29096   0.30912   0.31738   0.32129   0.32990

 Mulliken charges:
               1
     1  C   -0.170594
     2  C   -0.218597
     3  C   -0.170635
     4  C    0.157805
     5  C   -0.170823
     6  C   -0.218531
     7  H    0.226077
     8  H    0.223940
     9  H    0.275276
    10  H    0.275899
    11  H    0.223876
    12  N    0.495129
    13  O   -0.459045
    14  O   -0.467214
    15  C   -0.295679
    16  C   -0.299151
    17  C   -0.474616
    18  H    0.142123
    19  H    0.149546
    20  H    0.150184
    21  H    0.152841
    22  H    0.155669
    23  H    0.150743
    24  H    0.159316
    25  C   -0.298131
    26  C   -0.306141
    27  C   -0.470936
    28  H    0.148037
    29  H    0.147364
    30  H    0.169388
    31  H    0.145970
    32  H    0.146064
    33  H    0.157818
    34  H    0.167030
 Sum of Mulliken charges =  -0.00000

 Dipole moment (field-independent basis, Debye):
    X=             -2.3746    Y=             -4.6626    Z=              0.1364  Tot=              5.2342
 Quadrupole moment (field-independent basis, Debye-Ang):
   XX=            -78.7303   YY=            -96.6003   ZZ=            -95.7057
   XY=             11.8843   XZ=             -0.7588   YZ=             -0.5283

 Normal termination of Gaussian 16 at Thu May  6 04:36:48 2021.
