 Gaussian 16, Revision A.03,
 Gaussian 16:  EM64L-G16RevA.03 25-Dec-2016

 -------------
 #p 6-31g* mp2
 -------------

 ------------------------------------------------------
 Input file generated by CHIRIPA (05-May-2021 14:55:20)
 ------------------------------------------------------
 Symbolic Z-matrix:
 Charge =  0 Multiplicity = 1

                         Standard orientation:
 ---------------------------------------------------------------------
 Center     Atomic      Atomic             Coordinates (Angstroms)
 Number     Number       Type             X           Y           Z
 ---------------------------------------------------------------------
      1          6           0       -4.204271    2.341633    0.110903
      2          6           0       -2.821706    2.129697    0.099947
      3          6           0       -2.302106    0.841513   -0.058623
      4          6           0       -3.197971   -0.216549   -0.204298
      5          6           0       -4.580438   -0.037586   -0.197555
      6          6           0       -5.077684    1.259224   -0.037621
      7          1           0       -4.599226    3.345676    0.234614
      8          1           0       -2.141029    2.968426    0.215080
      9          1           0       -1.236169    0.649031   -0.070786
     10          1           0       -5.233963   -0.893525   -0.314570
     11          1           0       -6.151863    1.420839   -0.029499
     12          7           0       -2.659725   -1.584858   -0.372890
     13          8           0       -3.470098   -2.500252   -0.499334
     14          8           0       -1.437668   -1.716035   -0.375397
     15          6           0        4.682447    0.476052   -0.119974
     16          6           0        6.103732   -0.067229   -0.270896
     17          6           0        7.043224    0.919557   -0.964729
     18          1           0        4.285050    0.726441   -1.113113
     19          1           0        4.714905    1.415178    0.449573
     20          1           0        6.068454   -1.005769   -0.838799
     21          1           0        6.497722   -0.316533    0.722702
     22          1           0        7.108112    1.853622   -0.397356
     23          1           0        6.676404    1.160470   -1.967728
     24          1           0        8.053850    0.510902   -1.062181
     25          6           0        3.731453   -0.499001    0.571843
     26          6           0        2.310168    0.044279    0.722765
     27          6           0        1.370677   -0.942506    1.416598
     28          1           0        3.698995   -1.438128    0.002296
     29          1           0        4.128851   -0.749391    1.564982
     30          1           0        1.916178    0.293584   -0.270833
     31          1           0        2.345447    0.982819    1.290668
     32          1           0        1.737496   -1.183419    2.419597
     33          1           0        1.305789   -1.876571    0.849225
     34          1           0        0.360051   -0.533852    1.514050
 ---------------------------------------------------------------------

 SCF Done:  E(RHF) =  -669.535222771     A.U. after   15 cycles
 E2 =    -0.2091947072D+01 EUMP2 =    -0.67162716984303D+03

 The electronic state is 1-A.
 Alpha  occ. eigenvalues --  -20.60828 -20.60821 -15.85865 -11.31229 -11.27792
 Alpha  occ. eigenvalues --  -11.27779 -11.27535 -11.26812 -11.26800 -11.21396
 Alpha  occ. eigenvalues --  -11.21263 -11.21160 -11.21032 -11.20924 -11.20250
 Alpha  occ. eigenvalues --   -1.59899  -1.39454  -1.19399  -1.08797  -1.08134
 Alpha  occ. eigenvalues --   -1.04800  -1.03186  -0.95692  -0.95539  -0.86606
 Alpha  occ. eigenvalues --   -0.86198  -0.82466  -0.79264  -0.77962  -0.77512
 Alpha  occ. eigenvalues --   -0.72101  -0.71218  -0.70510  -0.65059  -0.64820
 Alpha  occ. eigenvalues --   -0.64746  -0.62175  -0.60559  -0.58990  -0.57242
 Alpha  occ. eigenvalues --   -0.55300  -0.54847  -0.53130  -0.52925  -0.52261
 Alpha  occ. eigenvalues --   -0.52010  -0.49522  -0.48855  -0.48813  -0.47565
 Alpha  occ. eigenvalues --   -0.46295  -0.45495  -0.45420  -0.44850  -0.43402
 Alpha  occ. eigenvalues --   -0.37380  -0.36400
 Alpha virt. eigenvalues --    0.04992   0.11191   0.16500   0.20712   0.23111
 Alpha virt. eigenvalues --    0.24011   0.26508   0.27078   0.27717   0.27981
 Alpha virt. eigenvalues --    0.29361   0.30791   0.31571   0.31829   0.32103

 Mulliken charges:
               1
     1  C   -0.170537
     2  C   -0.219960
     3  C   -0.175075
     4  C    0.157043
     5  C   -0.170536
     6  C   -0.218596
     7  H    0.225767
     8  H    0.224247
     9  H    0.282971
    10  H    0.275672
    11  H    0.223599
    12  N    0.490225
    13  O   -0.460085
    14  O   -0.461849
    15  C   -0.297979
    16  C   -0.299597
    17  C   -0.475525
    18  H    0.148868
    19  H    0.146992
    20  H    0.153195
    21  H    0.151739
    22  H    0.153974
    23  H    0.154795
    24  H    0.160041
    25  C   -0.298031
    26  C   -0.303772
    27  C   -0.471605
    28  H    0.153493
    29  H    0.149345
    30  H    0.149258
    31  H    0.144548
    32  H    0.149092
    33  H    0.172688
    34  H    0.155596
 Sum of Mulliken charges =  -0.00000

 Dipole moment (field-independent basis, Debye):
    X=             -2.0085    Y=              4.6620    Z=              0.5385  Tot=              5.1047
 Quadrupole moment (field-independent basis, Debye-Ang):
   XX=            -79.1733   YY=            -96.7537   ZZ=            -95.5251
   XY=            -14.0765   XZ=             -0.7205   YZ=             -0.3696

 Normal termination of Gaussian 16 at Thu May  6 12:28:18 2021.
