 Gaussian 16, Revision A.03,
 Gaussian 16:  EM64L-G16RevA.03 25-Dec-2016

 -------------
 #p 6-31g* mp2
 -------------

 ------------------------------------------------------
 Input file generated by CHIRIPA (05-May-2021 14:57:27)
 ------------------------------------------------------
 Symbolic Z-matrix:
 Charge =  0 Multiplicity = 1

                         Standard orientation:
 ---------------------------------------------------------------------
 Center     Atomic      Atomic             Coordinates (Angstroms)
 Number     Number       Type             X           Y           Z
 ---------------------------------------------------------------------
      1          6           0       -1.891221    0.770240   -0.849075
      2          6           0       -2.975951    1.651753   -0.796002
      3          6           0       -4.228422    1.210827   -0.358453
      4          6           0       -4.361162   -0.124193    0.020218
      5          6           0       -3.299547   -1.026704   -0.021462
      6          6           0       -2.056190   -0.563823   -0.462317
      7          1           0       -0.921811    1.121290   -1.190257
      8          1           0       -2.850758    2.688346   -1.095746
      9          1           0       -5.085061    1.871878   -0.307486
     10          1           0       -3.455164   -2.054321    0.283833
     11          1           0       -1.215544   -1.250660   -0.502498
     12          7           0       -5.682272   -0.602603    0.485182
     13          8           0       -5.773198   -1.783578    0.813309
     14          8           0       -6.601818    0.212453    0.512689
     15          6           0        3.181908    2.364388    0.308297
     16          6           0        4.378292    2.029064    0.950747
     17          6           0        4.920268    0.747170    0.818241
     18          6           0        4.236383   -0.178852    0.032062
     19          6           0        3.042600    0.124926   -0.620541
     20          6           0        2.519048    1.412926   -0.473918
     21          1           0        2.768044    3.362565    0.416715
     22          1           0        4.895247    2.765951    1.558858
     23          1           0        5.844886    0.460825    1.304562
     24          1           0        2.550139   -0.631026   -1.220072
     25          1           0        1.589754    1.670539   -0.974010
     26          7           0        4.800396   -1.539167   -0.115689
     27          8           0        4.178589   -2.336937   -0.813940
     28          8           0        5.853598   -1.781854    0.469552
 ---------------------------------------------------------------------

 SCF Done:  E(RHF) =  -868.336437897     A.U. after   16 cycles
 E2 =    -0.2599631658D+01 EUMP2 =    -0.87093606955538D+03

 The electronic state is 1-A.
 Alpha  occ. eigenvalues --  -20.61426 -20.61411 -20.61080 -20.61073 -15.86482
 Alpha  occ. eigenvalues --  -15.86136 -11.31969 -11.31623 -11.28645 -11.28514
 Alpha  occ. eigenvalues --  -11.28335 -11.28204 -11.28170 -11.28109 -11.27740
 Alpha  occ. eigenvalues --  -11.27529 -11.27310 -11.27263  -1.60494  -1.60151
 Alpha  occ. eigenvalues --   -1.40045  -1.39701  -1.20165  -1.19818  -1.09533
 Alpha  occ. eigenvalues --   -1.09220  -1.05606  -1.05227  -0.96344  -0.96032
 Alpha  occ. eigenvalues --   -0.86997  -0.86638  -0.83194  -0.82846  -0.78222
 Alpha  occ. eigenvalues --   -0.77846  -0.72697  -0.72353  -0.71820  -0.71475
 Alpha  occ. eigenvalues --   -0.71267  -0.71026  -0.65825  -0.65646  -0.65482
 Alpha  occ. eigenvalues --   -0.65240  -0.62969  -0.62562  -0.56118  -0.55832
 Alpha  occ. eigenvalues --   -0.53899  -0.53696  -0.53556  -0.53330  -0.49466
 Alpha  occ. eigenvalues --   -0.49445  -0.49123  -0.49099  -0.45424  -0.45078
 Alpha  occ. eigenvalues --   -0.38133  -0.37848  -0.37205  -0.36815
 Alpha virt. eigenvalues --    0.04344   0.04673   0.10432   0.10827   0.15745
 Alpha virt. eigenvalues --    0.16115   0.17648   0.22018   0.24498   0.26144
 Alpha virt. eigenvalues --    0.27756   0.28788   0.29804   0.31399   0.32465

 Mulliken charges:
               1
     1  C   -0.172357
     2  C   -0.219463
     3  C   -0.170315
     4  C    0.159261
     5  C   -0.169986
     6  C   -0.219375
     7  H    0.218338
     8  H    0.222338
     9  H    0.276806
    10  H    0.278654
    11  H    0.225706
    12  N    0.487844
    13  O   -0.458268
    14  O   -0.459599
    15  C   -0.170331
    16  C   -0.218049
    17  C   -0.169326
    18  C    0.159436
    19  C   -0.172330
    20  C   -0.220409
    21  H    0.227143
    22  H    0.226585
    23  H    0.278447
    24  H    0.272356
    25  H    0.216867
    26  N    0.488180
    27  O   -0.460752
    28  O   -0.457400
 Sum of Mulliken charges =  -0.00000

 Dipole moment (field-independent basis, Debye):
    X=              2.7478    Y=              6.4124    Z=             -0.9638  Tot=              7.0426
 Quadrupole moment (field-independent basis, Debye-Ang):
   XX=           -157.5494   YY=           -102.9294   ZZ=           -104.4969
   XY=             12.2666   XZ=             12.6189   YZ=              0.6045

 Normal termination of Gaussian 16 at Fri May  7 06:38:04 2021.
