 Gaussian 16, Revision A.03,
 Gaussian 16:  EM64L-G16RevA.03 25-Dec-2016

 -------------
 #p 6-31g* mp2
 -------------

 ------------------------------------------------------
 Input file generated by CHIRIPA (05-May-2021 14:55:24)
 ------------------------------------------------------
 Symbolic Z-matrix:
 Charge =  0 Multiplicity = 1

                         Standard orientation:
 ---------------------------------------------------------------------
 Center     Atomic      Atomic             Coordinates (Angstroms)
 Number     Number       Type             X           Y           Z
 ---------------------------------------------------------------------
      1          6           0        1.468481    0.254213    2.413159
      2          6           0        0.693251   -0.199793    1.341050
      3          6           0        1.286001   -0.487809    0.108069
      4          6           0        2.662817   -0.309739   -0.018262
      5          6           0        3.462104    0.141034    1.031135
      6          6           0        2.848001    0.422880    2.255058
      7          1           0        0.999724    0.475554    3.367450
      8          1           0       -0.378322   -0.331709    1.460948
      9          1           0        0.709585   -0.840665   -0.738485
     10          1           0        4.527996    0.262766    0.881220
     11          1           0        3.452544    0.775322    3.085936
     12          7           0        3.301638   -0.611383   -1.318769
     13          8           0        4.516561   -0.446256   -1.404407
     14          8           0        2.575328   -1.007227   -2.227845
     15          6           0       -3.021510    0.868117   -0.734022
     16          6           0       -2.379691    2.065004   -0.031515
     17          6           0       -1.880214    3.127368   -1.011157
     18          1           0       -2.291519    0.420192   -1.422078
     19          1           0       -3.858635    1.220457   -1.352465
     20          1           0       -1.544894    1.710342    0.586501
     21          1           0       -3.111233    2.510016    0.655091
     22          1           0       -2.706394    3.509100   -1.619686
     23          1           0       -1.131155    2.704882   -1.688666
     24          1           0       -1.425088    3.973929   -0.487653
     25          6           0       -3.525772   -0.202455    0.232065
     26          6           0       -4.167590   -1.399342   -0.470442
     27          6           0       -4.667067   -2.461706    0.509200
     28          1           0       -2.688646   -0.554794    0.850509
     29          1           0       -4.255762    0.245471    0.920121
     30          1           0       -3.436048   -1.844354   -1.157048
     31          1           0       -5.002388   -1.044680   -1.088458
     32          1           0       -5.416126   -2.039220    1.186709
     33          1           0       -3.840888   -2.843438    1.117730
     34          1           0       -5.122193   -3.308267   -0.014304
 ---------------------------------------------------------------------

 SCF Done:  E(RHF) =  -669.535066675     A.U. after   15 cycles
 E2 =    -0.2092805169D+01 EUMP2 =    -0.67162787184355D+03

 The electronic state is 1-A.
 Alpha  occ. eigenvalues --  -20.60797 -20.60791 -15.85850 -11.31226 -11.27803
 Alpha  occ. eigenvalues --  -11.27795 -11.27535 -11.26807 -11.26776 -11.22265
 Alpha  occ. eigenvalues --  -11.22190 -11.22171 -11.22022 -11.21611 -11.21428
 Alpha  occ. eigenvalues --   -1.59872  -1.39425  -1.19402  -1.09117  -1.08789
 Alpha  occ. eigenvalues --   -1.04809  -1.04091  -0.96544  -0.95624  -0.87551
 Alpha  occ. eigenvalues --   -0.86208  -0.82463  -0.80167  -0.78957  -0.77503
 Alpha  occ. eigenvalues --   -0.72068  -0.71195  -0.70504  -0.65887  -0.65048
 Alpha  occ. eigenvalues --   -0.64740  -0.62154  -0.61476  -0.59907  -0.58157
 Alpha  occ. eigenvalues --   -0.55847  -0.55295  -0.53221  -0.53130  -0.52962
 Alpha  occ. eigenvalues --   -0.52892  -0.50485  -0.48834  -0.48823  -0.48475
 Alpha  occ. eigenvalues --   -0.47219  -0.46436  -0.46376  -0.44828  -0.44387
 Alpha  occ. eigenvalues --   -0.37370  -0.36382
 Alpha virt. eigenvalues --    0.05022   0.11145   0.16416   0.18918   0.23013
 Alpha virt. eigenvalues --    0.23757   0.24826   0.25675   0.27216   0.28561
 Alpha virt. eigenvalues --    0.29934   0.30976   0.31281   0.31457   0.31747

 Mulliken charges:
               1
     1  C   -0.173896
     2  C   -0.223408
     3  C   -0.175229
     4  C    0.158867
     5  C   -0.170548
     6  C   -0.218405
     7  H    0.226878
     8  H    0.235055
     9  H    0.275774
    10  H    0.275815
    11  H    0.223657
    12  N    0.488170
    13  O   -0.460281
    14  O   -0.460529
    15  C   -0.300647
    16  C   -0.304257
    17  C   -0.475762
    18  H    0.150203
    19  H    0.154580
    20  H    0.148396
    21  H    0.152154
    22  H    0.156937
    23  H    0.159219
    24  H    0.161196
    25  C   -0.302934
    26  C   -0.299941
    27  C   -0.475985
    28  H    0.139787
    29  H    0.152916
    30  H    0.153687
    31  H    0.155778
    32  H    0.155922
    33  H    0.153018
    34  H    0.163813
 Sum of Mulliken charges =  -0.00000

 Dipole moment (field-independent basis, Debye):
    X=             -2.3502    Y=              1.0960    Z=              4.5029  Tot=              5.1962
 Quadrupole moment (field-independent basis, Debye-Ang):
   XX=           -101.4830   YY=            -96.1800   ZZ=            -94.9971
   XY=              4.1753   XZ=             14.8302   YZ=             -0.3985

 Normal termination of Gaussian 16 at Wed May  5 16:07:59 2021.
