 Gaussian 16, Revision A.03,
 Gaussian 16:  EM64L-G16RevA.03 25-Dec-2016

 -------------
 #p 6-31g* mp2
 -------------

 ------------------------------------------------------
 Input file generated by CHIRIPA (05-May-2021 14:51:11)
 ------------------------------------------------------
 Symbolic Z-matrix:
 Charge =  0 Multiplicity = 1

                         Standard orientation:
 ---------------------------------------------------------------------
 Center     Atomic      Atomic             Coordinates (Angstroms)
 Number     Number       Type             X           Y           Z
 ---------------------------------------------------------------------
      1          6           0        3.239392   -0.175068   -0.143245
      2          6           0        4.690464   -0.261584    0.330980
      3          6           0        5.456988    1.046044    0.130121
      4          1           0        3.223631    0.101261   -1.206419
      5          1           0        2.731804    0.635420    0.397920
      6          1           0        5.194784   -1.072572   -0.209923
      7          1           0        4.702777   -0.537927    1.393100
      8          1           0        4.979623    1.861303    0.683362
      9          1           0        5.474426    1.323620   -0.928770
     10          1           0        6.491993    0.961864    0.475865
     11          6           0        2.460075   -1.474557    0.050973
     12          6           0        1.009002   -1.388041   -0.423252
     13          6           0        0.242478   -2.695669   -0.222393
     14          1           0        2.967662   -2.285045   -0.490192
     15          1           0        2.475835   -1.750886    1.114147
     16          1           0        0.996690   -1.111698   -1.485372
     17          1           0        0.504683   -0.577053    0.117651
     18          1           0        0.225041   -2.973245    0.836497
     19          1           0        0.719844   -3.510928   -0.775634
     20          1           0       -0.792526   -2.611489   -0.568137
     21          6           0       -3.399057    0.399012   -0.270676
     22          6           0       -3.943337   -0.681893    0.663879
     23          6           0       -5.041604   -1.525450    0.015793
     24          1           0       -4.224891    1.050535   -0.587630
     25          1           0       -3.008561   -0.076069   -1.181283
     26          1           0       -4.331432   -0.205026    1.573052
     27          1           0       -3.116078   -1.330803    0.978797
     28          1           0       -4.663351   -2.027528   -0.880555
     29          1           0       -5.885611   -0.895355   -0.282924
     30          1           0       -5.416359   -2.291898    0.701340
     31          6           0       -2.300409    1.250613    0.362947
     32          6           0       -1.756130    2.331517   -0.571606
     33          6           0       -0.657863    3.175075    0.076478
     34          1           0       -2.690906    1.725695    1.273555
     35          1           0       -1.474575    0.599090    0.679902
     36          1           0       -2.583389    2.980427   -0.886525
     37          1           0       -1.368034    1.854651   -1.480780
     38          1           0        0.186145    2.544980    0.375197
     39          1           0       -1.036116    3.677153    0.972828
     40          1           0       -0.283107    3.941524   -0.609068
 ---------------------------------------------------------------------

 SCF Done:  E(RHF) =  -470.733349392     A.U. after   11 cycles
 E2 =    -0.1583781039D+01 EUMP2 =    -0.47231713043124D+03

 The electronic state is 1-A.
 Alpha  occ. eigenvalues --  -11.21681 -11.21635 -11.21584 -11.21578 -11.21465
 Alpha  occ. eigenvalues --  -11.21405 -11.21385 -11.21322 -11.21168 -11.21086
 Alpha  occ. eigenvalues --  -11.21067 -11.21063  -1.08500  -1.08407  -1.03591
 Alpha  occ. eigenvalues --   -1.03515  -0.96040  -0.95963  -0.87058  -0.86978
 Alpha  occ. eigenvalues --   -0.79672  -0.79565  -0.78346  -0.78193  -0.65254
 Alpha  occ. eigenvalues --   -0.64946  -0.61021  -0.60882  -0.59402  -0.59334
 Alpha  occ. eigenvalues --   -0.57661  -0.57566  -0.55364  -0.55212  -0.52735
 Alpha  occ. eigenvalues --   -0.52657  -0.52469  -0.52388  -0.50046  -0.49855
 Alpha  occ. eigenvalues --   -0.48037  -0.47851  -0.46855  -0.46549  -0.46044
 Alpha  occ. eigenvalues --   -0.45817  -0.45728  -0.45308  -0.43840  -0.43769
 Alpha virt. eigenvalues --    0.19461   0.22004   0.23530   0.24736   0.25644
 Alpha virt. eigenvalues --    0.26474   0.26842   0.27496   0.28624   0.29517
 Alpha virt. eigenvalues --    0.30521   0.31328   0.31736   0.31901   0.32487

 Mulliken charges:
               1
     1  C   -0.299906
     2  C   -0.299719
     3  C   -0.475813
     4  H    0.149974
     5  H    0.150521
     6  H    0.152097
     7  H    0.152080
     8  H    0.155540
     9  H    0.155272
    10  H    0.160361
    11  C   -0.297659
    12  C   -0.307671
    13  C   -0.477456
    14  H    0.149903
    15  H    0.149821
    16  H    0.152050
    17  H    0.158484
    18  H    0.155475
    19  H    0.155947
    20  H    0.161344
    21  C   -0.298154
    22  C   -0.301783
    23  C   -0.475603
    24  H    0.149679
    25  H    0.149601
    26  H    0.151867
    27  H    0.153874
    28  H    0.154869
    29  H    0.155187
    30  H    0.160360
    31  C   -0.304762
    32  C   -0.299482
    33  C   -0.477588
    34  H    0.149375
    35  H    0.155823
    36  H    0.151894
    37  H    0.152783
    38  H    0.155930
    39  H    0.154967
    40  H    0.160521
 Sum of Mulliken charges =  -0.00000

 Dipole moment (field-independent basis, Debye):
    X=              0.0284    Y=             -0.0139    Z=             -0.0032  Tot=              0.0318
 Quadrupole moment (field-independent basis, Debye-Ang):
   XX=            -85.2944   YY=            -85.5019   ZZ=            -83.8929
   XY=             -1.7269   XZ=             -0.7297   YZ=              0.3484

 Normal termination of Gaussian 16 at Thu May  6 00:40:51 2021.
