 Gaussian 16, Revision A.03,
 Gaussian 16:  EM64L-G16RevA.03 25-Dec-2016

 -------------
 #p 6-31g* mp2
 -------------

 ------------------------------------------------------
 Input file generated by CHIRIPA (05-May-2021 14:51:07)
 ------------------------------------------------------
 Symbolic Z-matrix:
 Charge =  0 Multiplicity = 1

                         Standard orientation:
 ---------------------------------------------------------------------
 Center     Atomic      Atomic             Coordinates (Angstroms)
 Number     Number       Type             X           Y           Z
 ---------------------------------------------------------------------
      1          6           0        2.527306   -0.234295    0.601295
      2          6           0        2.069808    0.602757    1.796295
      3          6           0        0.624240    0.313539    2.201856
      4          1           0        1.860479   -0.041342   -0.250207
      5          1           0        2.420568   -1.300033    0.846661
      6          1           0        2.178681    1.666587    1.549254
      7          1           0        2.737918    0.407934    2.644993
      8          1           0        0.504066   -0.739913    2.474618
      9          1           0       -0.058349    0.525892    1.372652
     10          1           0        0.317911    0.922726    3.057959
     11          6           0        3.970346    0.043558    0.183968
     12          6           0        4.427844   -0.793494   -1.011031
     13          6           0        5.873412   -0.504275   -1.416593
     14          1           0        4.077085    1.109296   -0.061398
     15          1           0        4.637174   -0.149395    1.035470
     16          1           0        3.759735   -0.598670   -1.859730
     17          1           0        4.318972   -1.857324   -0.763990
     18          1           0        6.556002   -0.716629   -0.587389
     19          1           0        5.993587    0.549176   -1.689354
     20          1           0        6.179742   -1.113463   -2.272696
     21          6           0       -2.773697    0.628552   -0.663556
     22          6           0       -3.199032    2.054659   -0.312424
     23          6           0       -2.238566    3.110100   -0.861371
     24          1           0       -1.763766    0.446817   -0.271185
     25          1           0       -2.706664    0.531847   -1.756053
     26          1           0       -3.266584    2.148256    0.779040
     27          1           0       -4.208145    2.232958   -0.705511
     28          1           0       -2.178109    3.045600   -1.952602
     29          1           0       -1.231199    2.960417   -0.459617
     30          1           0       -2.561623    4.122282   -0.598725
     31          6           0       -3.723955   -0.437815   -0.121707
     32          6           0       -3.298620   -1.863923   -0.472839
     33          6           0       -4.259087   -2.919363    0.076108
     34          1           0       -3.790988   -0.341111    0.970790
     35          1           0       -4.733887   -0.256079   -0.514078
     36          1           0       -2.289508   -2.042220   -0.079753
     37          1           0       -3.231068   -1.957518   -1.564303
     38          1           0       -5.266455   -2.769680   -0.325646
     39          1           0       -4.319544   -2.854863    1.167339
     40          1           0       -3.936031   -3.931545   -0.186539
 ---------------------------------------------------------------------

 SCF Done:  E(RHF) =  -470.733372989     A.U. after   11 cycles
 E2 =    -0.1582868420D+01 EUMP2 =    -0.47231624140838D+03

 The electronic state is 1-A.
 Alpha  occ. eigenvalues --  -11.21655 -11.21611 -11.21599 -11.21569 -11.21435
 Alpha  occ. eigenvalues --  -11.21388 -11.21373 -11.21327 -11.21145 -11.21092
 Alpha  occ. eigenvalues --  -11.21077 -11.21045  -1.08465  -1.08416  -1.03569
 Alpha  occ. eigenvalues --   -1.03516  -0.96023  -0.95966  -0.87044  -0.86980
 Alpha  occ. eigenvalues --   -0.79640  -0.79571  -0.78296  -0.78210  -0.65165
 Alpha  occ. eigenvalues --   -0.64995  -0.61035  -0.60848  -0.59386  -0.59336
 Alpha  occ. eigenvalues --   -0.57649  -0.57563  -0.55376  -0.55201  -0.52711
 Alpha  occ. eigenvalues --   -0.52665  -0.52483  -0.52365  -0.50054  -0.49841
 Alpha  occ. eigenvalues --   -0.47998  -0.47876  -0.46761  -0.46556  -0.45942
 Alpha  occ. eigenvalues --   -0.45760  -0.45731  -0.45454  -0.43819  -0.43772
 Alpha virt. eigenvalues --    0.20235   0.23093   0.23917   0.24743   0.25746
 Alpha virt. eigenvalues --    0.26819   0.27183   0.27766   0.27969   0.29360
 Alpha virt. eigenvalues --    0.30664   0.31649   0.31724   0.31942   0.32026

 Mulliken charges:
               1
     1  C   -0.298682
     2  C   -0.299205
     3  C   -0.484009
     4  H    0.149787
     5  H    0.149559
     6  H    0.152023
     7  H    0.152315
     8  H    0.155335
     9  H    0.161850
    10  H    0.160718
    11  C   -0.298348
    12  C   -0.299738
    13  C   -0.475743
    14  H    0.149704
    15  H    0.149726
    16  H    0.152219
    17  H    0.151937
    18  H    0.155158
    19  H    0.155263
    20  H    0.160329
    21  C   -0.306036
    22  C   -0.299435
    23  C   -0.476231
    24  H    0.156154
    25  H    0.149531
    26  H    0.152555
    27  H    0.152089
    28  H    0.155118
    29  H    0.154693
    30  H    0.160478
    31  C   -0.297870
    32  C   -0.300040
    33  C   -0.475743
    34  H    0.150133
    35  H    0.149535
    36  H    0.152714
    37  H    0.151673
    38  H    0.155034
    39  H    0.155321
    40  H    0.160128
 Sum of Mulliken charges =  -0.00000

 Dipole moment (field-independent basis, Debye):
    X=              0.0097    Y=             -0.0028    Z=              0.0081  Tot=              0.0130
 Quadrupole moment (field-independent basis, Debye-Ang):
   XX=            -85.7645   YY=            -85.0457   ZZ=            -83.9061
   XY=             -0.9139   XZ=              1.2855   YZ=             -0.1873

 Normal termination of Gaussian 16 at Wed May  5 19:39:17 2021.
