 Gaussian 16, Revision A.03,
 Gaussian 16:  EM64L-G16RevA.03 25-Dec-2016

 -------------
 #p 6-31g* mp2
 -------------

 ------------------------------------------------------
 Input file generated by CHIRIPA (05-May-2021 14:57:22)
 ------------------------------------------------------
 Symbolic Z-matrix:
 Charge =  0 Multiplicity = 1

                         Standard orientation:
 ---------------------------------------------------------------------
 Center     Atomic      Atomic             Coordinates (Angstroms)
 Number     Number       Type             X           Y           Z
 ---------------------------------------------------------------------
      1          6           0       -3.725445    2.148085   -1.117679
      2          6           0       -4.627447    1.434341   -0.321764
      3          6           0       -4.253089    0.220139    0.261432
      4          6           0       -2.963019   -0.253046    0.026683
      5          6           0       -2.041626    0.434851   -0.761430
      6          6           0       -2.437683    1.646946   -1.334589
      7          1           0       -4.024684    3.090488   -1.566822
      8          1           0       -5.628191    1.821117   -0.151585
      9          1           0       -4.931353   -0.352911    0.881907
     10          1           0       -1.050896    0.023845   -0.912910
     11          1           0       -1.735076    2.199101   -1.952257
     12          7           0       -2.555217   -1.537352    0.638774
     13          8           0       -1.412871   -1.932743    0.416626
     14          8           0       -3.385648   -2.124281    1.329089
     15          6           0        3.224781    2.245313    1.286937
     16          6           0        2.228638    1.332596    1.649106
     17          6           0        2.111504    0.108442    0.984068
     18          6           0        3.011421   -0.171692   -0.043046
     19          6           0        4.014510    0.716933   -0.427039
     20          6           0        4.112972    1.935116    0.251845
     21          1           0        3.308520    3.193946    1.808933
     22          1           0        1.537471    1.570824    2.452586
     23          1           0        1.349683   -0.616453    1.244017
     24          1           0        4.688890    0.451267   -1.232055
     25          1           0        4.887571    2.642026   -0.031562
     26          7           0        2.897301   -1.464488   -0.754421
     27          8           0        3.702464   -1.687487   -1.655877
     28          8           0        2.004852   -2.230302   -0.397073
 ---------------------------------------------------------------------

 SCF Done:  E(RHF) =  -868.337254962     A.U. after   16 cycles
 E2 =    -0.2600626076D+01 EUMP2 =    -0.87093788103726D+03

 The electronic state is 1-A.
 Alpha  occ. eigenvalues --  -20.60706 -20.60685 -20.60375 -20.60287 -15.85728
 Alpha  occ. eigenvalues --  -15.85378 -11.31209 -11.30975 -11.27795 -11.27768
 Alpha  occ. eigenvalues --  -11.27605 -11.27558 -11.27451 -11.27381 -11.26832
 Alpha  occ. eigenvalues --  -11.26819 -11.26666 -11.26609  -1.59771  -1.59419
 Alpha  occ. eigenvalues --   -1.39316  -1.38952  -1.19396  -1.19179  -1.08773
 Alpha  occ. eigenvalues --   -1.08540  -1.04808  -1.04596  -0.95584  -0.95320
 Alpha  occ. eigenvalues --   -0.86202  -0.85979  -0.82403  -0.82126  -0.77459
 Alpha  occ. eigenvalues --   -0.77107  -0.71948  -0.71541  -0.71108  -0.70767
 Alpha  occ. eigenvalues --   -0.70495  -0.70252  -0.65040  -0.64811  -0.64805
 Alpha  occ. eigenvalues --   -0.64581  -0.62155  -0.61890  -0.55309  -0.55099
 Alpha  occ. eigenvalues --   -0.53147  -0.52976  -0.52867  -0.52663  -0.48728
 Alpha  occ. eigenvalues --   -0.48693  -0.48388  -0.48300  -0.44689  -0.44299
 Alpha  occ. eigenvalues --   -0.37394  -0.37203  -0.36441  -0.36207
 Alpha virt. eigenvalues --    0.05036   0.05368   0.11172   0.11410   0.16498
 Alpha virt. eigenvalues --    0.16803   0.21262   0.21697   0.27052   0.27512
 Alpha virt. eigenvalues --    0.27995   0.28749   0.30530   0.31311   0.32002

 Mulliken charges:
               1
     1  C   -0.171395
     2  C   -0.218766
     3  C   -0.171394
     4  C    0.157044
     5  C   -0.174114
     6  C   -0.219022
     7  H    0.225077
     8  H    0.223244
     9  H    0.275745
    10  H    0.278865
    11  H    0.223652
    12  N    0.487138
    13  O   -0.454205
    14  O   -0.460777
    15  C   -0.172161
    16  C   -0.220843
    17  C   -0.181860
    18  C    0.154329
    19  C   -0.172198
    20  C   -0.219462
    21  H    0.223905
    22  H    0.223882
    23  H    0.293180
    24  H    0.274908
    25  H    0.221984
    26  N    0.485173
    27  O   -0.464992
    28  O   -0.446938
 Sum of Mulliken charges =  -0.00000

 Dipole moment (field-independent basis, Debye):
    X=             -1.1430    Y=              8.8399    Z=              0.3831  Tot=              8.9217
 Quadrupole moment (field-independent basis, Debye-Ang):
   XX=            -87.9313   YY=           -109.4954   ZZ=           -103.8971
   XY=              1.9499   XZ=              9.4627   YZ=             -1.1219

 Normal termination of Gaussian 16 at Wed May  5 20:59:52 2021.
