 Gaussian 16, Revision A.03,
 Gaussian 16:  EM64L-G16RevA.03 25-Dec-2016

 -------------
 #p 6-31g* mp2
 -------------

 ------------------------------------------------------
 Input file generated by CHIRIPA (05-May-2021 14:55:20)
 ------------------------------------------------------
 Symbolic Z-matrix:
 Charge =  0 Multiplicity = 1

                         Standard orientation:
 ---------------------------------------------------------------------
 Center     Atomic      Atomic             Coordinates (Angstroms)
 Number     Number       Type             X           Y           Z
 ---------------------------------------------------------------------
      1          6           0       -3.422119   -2.160892    0.668319
      2          6           0       -3.016173   -1.824222   -0.627205
      3          6           0       -2.744270   -0.494631   -0.963069
      4          6           0       -2.889271    0.477195    0.025778
      5          6           0       -3.291934    0.173357    1.325330
      6          6           0       -3.558464   -1.162788    1.638740
      7          1           0       -3.631253   -3.196296    0.920505
      8          1           0       -2.909439   -2.597272   -1.382882
      9          1           0       -2.428420   -0.206113   -1.958265
     10          1           0       -3.389407    0.966007    2.057193
     11          1           0       -3.873561   -1.421329    2.645674
     12          7           0       -2.604264    1.888242   -0.317901
     13          8           0       -2.739545    2.725818    0.571370
     14          8           0       -2.250991    2.129927   -1.470040
     15          6           0        3.294893   -0.654433   -0.607610
     16          6           0        1.837041   -0.705847   -0.149343
     17          6           0        0.922107   -1.391578   -1.164459
     18          1           0        3.351809   -0.126977   -1.569638
     19          1           0        3.650722   -1.677790   -0.790695
     20          1           0        1.484490    0.317213    0.034153
     21          1           0        1.783613   -1.233074    0.811799
     22          1           0        1.246549   -2.422210   -1.340918
     23          1           0        0.945725   -0.863114   -2.122983
     24          1           0       -0.115328   -1.417316   -0.816716
     25          6           0        4.221891    0.028162    0.396614
     26          6           0        5.679743    0.079577   -0.061654
     27          6           0        6.594677    0.765307    0.953463
     28          1           0        3.866061    1.051519    0.579699
     29          1           0        4.164975   -0.499294    1.358641
     30          1           0        5.733170    0.606803   -1.022796
     31          1           0        6.032294   -0.943484   -0.245149
     32          1           0        6.571058    0.236843    1.911986
     33          1           0        6.270235    1.795939    1.129922
     34          1           0        7.632112    0.791045    0.605720
 ---------------------------------------------------------------------

 SCF Done:  E(RHF) =  -669.534786648     A.U. after   15 cycles
 E2 =    -0.2092453368D+01 EUMP2 =    -0.67162724001639D+03

 The electronic state is 1-A.
 Alpha  occ. eigenvalues --  -20.60809 -20.60804 -15.85864 -11.31238 -11.27817
 Alpha  occ. eigenvalues --  -11.27803 -11.27565 -11.26825 -11.26810 -11.21528
 Alpha  occ. eigenvalues --  -11.21478 -11.21288 -11.21221 -11.21019 -11.20945
 Alpha  occ. eigenvalues --   -1.59885  -1.39437  -1.19434  -1.08814  -1.08322
 Alpha  occ. eigenvalues --   -1.04845  -1.03441  -0.95912  -0.95641  -0.86933
 Alpha  occ. eigenvalues --   -0.86221  -0.82479  -0.79515  -0.78132  -0.77519
 Alpha  occ. eigenvalues --   -0.72082  -0.71211  -0.70528  -0.65078  -0.64950
 Alpha  occ. eigenvalues --   -0.64820  -0.62179  -0.60835  -0.59327  -0.57550
 Alpha  occ. eigenvalues --   -0.55329  -0.55184  -0.53474  -0.52911  -0.52446
 Alpha  occ. eigenvalues --   -0.52163  -0.49842  -0.48842  -0.48835  -0.47825
 Alpha  occ. eigenvalues --   -0.46535  -0.45679  -0.45592  -0.44841  -0.43717
 Alpha  occ. eigenvalues --   -0.37413  -0.36327
 Alpha virt. eigenvalues --    0.05003   0.11184   0.16448   0.21290   0.22992
 Alpha virt. eigenvalues --    0.24416   0.26692   0.26984   0.27626   0.28027
 Alpha virt. eigenvalues --    0.28678   0.30775   0.31487   0.31943   0.32335

 Mulliken charges:
               1
     1  C   -0.170563
     2  C   -0.218487
     3  C   -0.173123
     4  C    0.160551
     5  C   -0.170815
     6  C   -0.218592
     7  H    0.226121
     8  H    0.225328
     9  H    0.277648
    10  H    0.275914
    11  H    0.223743
    12  N    0.488107
    13  O   -0.460373
    14  O   -0.460392
    15  C   -0.298401
    16  C   -0.298413
    17  C   -0.486561
    18  H    0.151572
    19  H    0.147519
    20  H    0.156371
    21  H    0.149558
    22  H    0.150787
    23  H    0.156167
    24  H    0.165652
    25  C   -0.298712
    26  C   -0.299653
    27  C   -0.475769
    28  H    0.152340
    29  H    0.148203
    30  H    0.152850
    31  H    0.150706
    32  H    0.154352
    33  H    0.156449
    34  H    0.159918
 Sum of Mulliken charges =  -0.00000

 Dipole moment (field-independent basis, Debye):
    X=             -1.0958    Y=             -4.9116    Z=              1.2260  Tot=              5.1796
 Quadrupole moment (field-independent basis, Debye-Ang):
   XX=            -90.0324   YY=            -99.2629   ZZ=            -90.6120
   XY=             13.5024   XZ=             -5.2053   YZ=              1.1203

 Normal termination of Gaussian 16 at Thu May  6 06:10:49 2021.
