 Gaussian 16, Revision A.03,
 Gaussian 16:  EM64L-G16RevA.03 25-Dec-2016

 -------------
 #p 6-31g* mp2
 -------------

 ------------------------------------------------------
 Input file generated by CHIRIPA (05-May-2021 14:55:22)
 ------------------------------------------------------
 Symbolic Z-matrix:
 Charge =  0 Multiplicity = 1

                         Standard orientation:
 ---------------------------------------------------------------------
 Center     Atomic      Atomic             Coordinates (Angstroms)
 Number     Number       Type             X           Y           Z
 ---------------------------------------------------------------------
      1          6           0       -3.794754    1.092633    1.309197
      2          6           0       -3.492864   -0.173490    1.821365
      3          6           0       -2.722255   -1.074052    1.079949
      4          6           0       -2.267866   -0.673742   -0.175668
      5          6           0       -2.551813    0.580710   -0.713269
      6          6           0       -3.324095    1.465036    0.045742
      7          1           0       -4.394031    1.785905    1.891980
      8          1           0       -3.857039   -0.465410    2.802285
      9          1           0       -2.473689   -2.060434    1.452350
     10          1           0       -2.174615    0.843179   -1.694212
     11          1           0       -3.556989    2.447674   -0.354541
     12          7           0       -1.451172   -1.618532   -0.969885
     13          8           0       -1.062818   -1.241770   -2.073456
     14          8           0       -1.214864   -2.717931   -0.473783
     15          6           0        3.793988    0.551530    0.290271
     16          6           0        4.155413   -0.924889    0.456239
     17          6           0        5.596700   -1.131845    0.922770
     18          1           0        4.483771    1.012613   -0.429829
     19          1           0        3.948655    1.069477    1.246934
     20          1           0        3.998791   -1.440179   -0.500089
     21          1           0        3.464568   -1.382558    1.175884
     22          1           0        5.762972   -0.643358    1.888345
     23          1           0        6.300230   -0.701307    0.202850
     24          1           0        5.833733   -2.194442    1.034858
     25          6           0        2.356328    0.774625   -0.175658
     26          6           0        1.994904    2.251043   -0.341625
     27          6           0        0.553615    2.457998   -0.808156
     28          1           0        2.201662    0.256676   -1.132321
     29          1           0        1.666545    0.313541    0.544444
     30          1           0        2.685748    2.708710   -1.061271
     31          1           0        2.151525    2.766333    0.614703
     32          1           0       -0.149913    2.027461   -0.088236
     33          1           0        0.387345    1.969511   -1.773732
     34          1           0        0.316583    3.520595   -0.920244
 ---------------------------------------------------------------------

 SCF Done:  E(RHF) =  -669.535154827     A.U. after   15 cycles
 E2 =    -0.2092803218D+01 EUMP2 =    -0.67162795804530D+03

 The electronic state is 1-A.
 Alpha  occ. eigenvalues --  -20.60790 -20.60781 -15.85835 -11.31174 -11.27776
 Alpha  occ. eigenvalues --  -11.27738 -11.27517 -11.26767 -11.26745 -11.21410
 Alpha  occ. eigenvalues --  -11.21106 -11.21006 -11.20989 -11.20942 -11.20671
 Alpha  occ. eigenvalues --   -1.59854  -1.39410  -1.19374  -1.08763  -1.08071
 Alpha  occ. eigenvalues --   -1.04777  -1.03225  -0.95723  -0.95578  -0.86742
 Alpha  occ. eigenvalues --   -0.86156  -0.82431  -0.79304  -0.77864  -0.77465
 Alpha  occ. eigenvalues --   -0.72055  -0.71170  -0.70479  -0.65021  -0.64768
 Alpha  occ. eigenvalues --   -0.64699  -0.62121  -0.60631  -0.59069  -0.57313
 Alpha  occ. eigenvalues --   -0.55276  -0.55019  -0.53214  -0.52871  -0.52408
 Alpha  occ. eigenvalues --   -0.52007  -0.49631  -0.48810  -0.48808  -0.47604
 Alpha  occ. eigenvalues --   -0.46304  -0.45436  -0.45318  -0.44771  -0.43471
 Alpha  occ. eigenvalues --   -0.37354  -0.36295
 Alpha virt. eigenvalues --    0.05040   0.11275   0.16501   0.21239   0.23174
 Alpha virt. eigenvalues --    0.24499   0.26302   0.27126   0.27694   0.28142
 Alpha virt. eigenvalues --    0.28915   0.30429   0.31516   0.31977   0.32194

 Mulliken charges:
               1
     1  C   -0.170683
     2  C   -0.219181
     3  C   -0.171272
     4  C    0.158076
     5  C   -0.168604
     6  C   -0.219215
     7  H    0.225720
     8  H    0.223305
     9  H    0.275534
    10  H    0.278212
    11  H    0.224372
    12  N    0.489055
    13  O   -0.461314
    14  O   -0.460386
    15  C   -0.298319
    16  C   -0.300003
    17  C   -0.475716
    18  H    0.148957
    19  H    0.146541
    20  H    0.157324
    21  H    0.152738
    22  H    0.152892
    23  H    0.154323
    24  H    0.160711
    25  C   -0.300730
    26  C   -0.298020
    27  C   -0.486036
    28  H    0.160999
    29  H    0.146501
    30  H    0.152055
    31  H    0.149371
    32  H    0.157636
    33  H    0.160491
    34  H    0.154664
 Sum of Mulliken charges =  -0.00000

 Dipole moment (field-independent basis, Debye):
    X=             -2.9172    Y=              3.2173    Z=              2.7149  Tot=              5.1217
 Quadrupole moment (field-independent basis, Debye-Ang):
   XX=            -83.4669   YY=            -97.8303   ZZ=            -92.5430
   XY=             -5.4502   XZ=             -7.1482   YZ=             -5.1839

 Normal termination of Gaussian 16 at Thu May  6 17:32:13 2021.
