 Gaussian 16, Revision A.03,
 Gaussian 16:  EM64L-G16RevA.03 25-Dec-2016

 -------------
 #p 6-31g* mp2
 -------------

 ------------------------------------------------------
 Input file generated by CHIRIPA (05-May-2021 14:57:26)
 ------------------------------------------------------
 Symbolic Z-matrix:
 Charge =  0 Multiplicity = 1

                         Standard orientation:
 ---------------------------------------------------------------------
 Center     Atomic      Atomic             Coordinates (Angstroms)
 Number     Number       Type             X           Y           Z
 ---------------------------------------------------------------------
      1          6           0       -2.300540    2.402457    0.846587
      2          6           0       -3.070036    2.337398   -0.319673
      3          6           0       -3.622747    1.123577   -0.738837
      4          6           0       -3.384784   -0.010703    0.035807
      5          6           0       -2.622528    0.021915    1.202509
      6          6           0       -2.079631    1.246546    1.602623
      7          1           0       -1.874993    3.349580    1.164805
      8          1           0       -3.243249    3.233486   -0.908799
      9          1           0       -4.222358    1.044797   -1.637546
     10          1           0       -2.467273   -0.888290    1.768935
     11          1           0       -1.482439    1.294093    2.508794
     12          7           0       -3.964719   -1.301442   -0.397859
     13          8           0       -3.740373   -2.286442    0.302199
     14          8           0       -4.632637   -1.303684   -1.429614
     15          6           0        0.814150   -0.680050    0.000075
     16          6           0        1.728907   -1.607079    0.510328
     17          6           0        3.102558   -1.352713    0.456194
     18          6           0        3.528482   -0.155813   -0.117659
     19          6           0        2.641875    0.787589   -0.634581
     20          6           0        1.272744    0.512223   -0.569745
     21          1           0       -0.251180   -0.885804    0.046285
     22          1           0        1.375622   -2.533847    0.953425
     23          1           0        3.832605   -2.052934    0.843674
     24          1           0        3.024243    1.702659   -1.070313
     25          1           0        0.564624    1.233995   -0.966804
     26          7           0        4.980312    0.124588   -0.180633
     27          8           0        5.330059    1.186471   -0.691239
     28          8           0        5.741020   -0.722825    0.281807
 ---------------------------------------------------------------------

 SCF Done:  E(RHF) =  -868.337403985     A.U. after   16 cycles
 E2 =    -0.2602002359D+01 EUMP2 =    -0.87093940634389D+03

 The electronic state is 1-A.
 Alpha  occ. eigenvalues --  -20.61865 -20.61841 -20.60887 -20.60880 -15.86912
 Alpha  occ. eigenvalues --  -15.85940 -11.32431 -11.31290 -11.28961 -11.28917
 Alpha  occ. eigenvalues --  -11.28649 -11.27968 -11.27957 -11.27878 -11.27847
 Alpha  occ. eigenvalues --  -11.27473 -11.26845 -11.26814  -1.60932  -1.59963
 Alpha  occ. eigenvalues --   -1.40479  -1.39517  -1.20600  -1.19457  -1.09937
 Alpha  occ. eigenvalues --   -1.08841  -1.05989  -1.04860  -0.96753  -0.95680
 Alpha  occ. eigenvalues --   -0.87358  -0.86244  -0.83558  -0.82519  -0.78606
 Alpha  occ. eigenvalues --   -0.77578  -0.73109  -0.72287  -0.72155  -0.71637
 Alpha  occ. eigenvalues --   -0.71289  -0.70543  -0.66201  -0.65918  -0.65096
 Alpha  occ. eigenvalues --   -0.64858  -0.63294  -0.62210  -0.56412  -0.55573
 Alpha  occ. eigenvalues --   -0.54128  -0.54006  -0.53176  -0.52926  -0.49886
 Alpha  occ. eigenvalues --   -0.49865  -0.48916  -0.48912  -0.45846  -0.44926
 Alpha  occ. eigenvalues --   -0.38590  -0.37871  -0.37108  -0.36466
 Alpha virt. eigenvalues --    0.03845   0.04994   0.09856   0.11221   0.15284
 Alpha virt. eigenvalues --    0.16552   0.20302   0.21519   0.26130   0.26934
 Alpha virt. eigenvalues --    0.27387   0.28333   0.30111   0.30853   0.31757

 Mulliken charges:
               1
     1  C   -0.175444
     2  C   -0.220302
     3  C   -0.171818
     4  C    0.160319
     5  C   -0.190791
     6  C   -0.212746
     7  H    0.231157
     8  H    0.228413
     9  H    0.279588
    10  H    0.276592
    11  H    0.230332
    12  N    0.487892
    13  O   -0.460920
    14  O   -0.455276
    15  C   -0.174616
    16  C   -0.222252
    17  C   -0.170795
    18  C    0.158043
    19  C   -0.172171
    20  C   -0.223502
    21  H    0.233153
    22  H    0.226104
    23  H    0.276023
    24  H    0.273876
    25  H    0.222352
    26  N    0.488048
    27  O   -0.461384
    28  O   -0.459878
 Sum of Mulliken charges =  -0.00000

 Dipole moment (field-independent basis, Debye):
    X=             -3.3721    Y=              3.6562    Z=              1.7798  Tot=              5.2826
 Quadrupole moment (field-independent basis, Debye-Ang):
   XX=           -154.5288   YY=            -99.9594   ZZ=           -101.3396
   XY=            -20.6726   XZ=             -1.2331   YZ=             -3.9414

 Normal termination of Gaussian 16 at Thu May  6 05:10:16 2021.
