 Gaussian 16, Revision A.03,
 Gaussian 16:  EM64L-G16RevA.03 25-Dec-2016

 -------------
 #p 6-31g* mp2
 -------------

 ------------------------------------------------------
 Input file generated by CHIRIPA (05-May-2021 14:53:13)
 ------------------------------------------------------
 Symbolic Z-matrix:
 Charge =  0 Multiplicity = 1

                         Standard orientation:
 ---------------------------------------------------------------------
 Center     Atomic      Atomic             Coordinates (Angstroms)
 Number     Number       Type             X           Y           Z
 ---------------------------------------------------------------------
      1          6           0        3.433132    0.949545    0.518116
      2          6           0        2.249014    1.016821    1.483168
      3          6           0        2.024864    2.420289    2.046930
      4          1           0        4.340664    1.286976    1.037222
      5          1           0        3.264806    1.654784   -0.307535
      6          1           0        2.418877    0.310659    2.306028
      7          1           0        1.344231    0.679008    0.961761
      8          1           0        1.830130    3.133302    1.239284
      9          1           0        2.910882    2.762860    2.591190
     10          1           0        1.173606    2.445561    2.734376
     11          6           0        3.669909   -0.447061   -0.053860
     12          6           0        4.854026   -0.514336   -1.018912
     13          6           0        5.078176   -1.917805   -1.582674
     14          1           0        3.838235   -1.152300    0.771791
     15          1           0        2.762377   -0.784492   -0.572965
     16          1           0        5.758809   -0.176524   -0.497504
     17          1           0        4.684163    0.191825   -1.841772
     18          1           0        4.192158   -2.260376   -2.126933
     19          1           0        5.272910   -2.630817   -0.775028
     20          1           0        5.929434   -1.943077   -2.270119
     21          6           0       -2.851371    1.912244   -1.564878
     22          6           0       -1.620450    1.382358   -1.164156
     23          6           0       -1.565940    0.214602   -0.397397
     24          6           0       -2.767206   -0.400128   -0.047596
     25          6           0       -4.009169    0.103305   -0.431485
     26          6           0       -4.039707    1.272154   -1.197910
     27          1           0       -2.884405    2.819809   -2.160385
     28          1           0       -0.695974    1.877332   -1.447685
     29          1           0       -0.626739   -0.217241   -0.073620
     30          1           0       -4.913877   -0.412532   -0.133435
     31          1           0       -4.997096    1.681404   -1.507696
     32          7           0       -2.722187   -1.636958    0.763960
     33          8           0       -3.794736   -2.159603    1.059122
     34          8           0       -1.615208   -2.060320    1.089531
 ---------------------------------------------------------------------

 SCF Done:  E(RHF) =  -669.535362372     A.U. after   15 cycles
 E2 =    -0.2091510244D+01 EUMP2 =    -0.67162687261585D+03

 The electronic state is 1-A.
 Alpha  occ. eigenvalues --  -20.60760 -20.60754 -15.85812 -11.31188 -11.27763
 Alpha  occ. eigenvalues --  -11.27749 -11.27510 -11.26787 -11.26777 -11.21997
 Alpha  occ. eigenvalues --  -11.21780 -11.21730 -11.21590 -11.21430 -11.21143
 Alpha  occ. eigenvalues --   -1.59835  -1.39387  -1.19366  -1.08759  -1.08716
 Alpha  occ. eigenvalues --   -1.04775  -1.03789  -0.96225  -0.95592  -0.87241
 Alpha  occ. eigenvalues --   -0.86171  -0.82425  -0.79858  -0.78517  -0.77466
 Alpha  occ. eigenvalues --   -0.72031  -0.71158  -0.70485  -0.65385  -0.65016
 Alpha  occ. eigenvalues --   -0.64775  -0.62167  -0.61162  -0.59587  -0.57827
 Alpha  occ. eigenvalues --   -0.55524  -0.55274  -0.53098  -0.52935  -0.52860
 Alpha  occ. eigenvalues --   -0.52633  -0.50173  -0.48792  -0.48786  -0.48155
 Alpha  occ. eigenvalues --   -0.46904  -0.46048  -0.45981  -0.44790  -0.44043
 Alpha  occ. eigenvalues --   -0.37348  -0.36371
 Alpha virt. eigenvalues --    0.05047   0.11260   0.16526   0.19454   0.22944
 Alpha virt. eigenvalues --    0.23985   0.24771   0.26589   0.27731   0.27978
 Alpha virt. eigenvalues --    0.29469   0.30674   0.31429   0.31617   0.32165

 Mulliken charges:
               1
     1  C   -0.298455
     2  C   -0.302882
     3  C   -0.475451
     4  H    0.152240
     5  H    0.144251
     6  H    0.160406
     7  H    0.144783
     8  H    0.149728
     9  H    0.157775
    10  H    0.163804
    11  C   -0.298184
    12  C   -0.299760
    13  C   -0.475908
    14  H    0.154790
    15  H    0.146660
    16  H    0.152761
    17  H    0.149582
    18  H    0.155902
    19  H    0.157572
    20  H    0.160285
    21  C   -0.170770
    22  C   -0.220221
    23  C   -0.178753
    24  C    0.159925
    25  C   -0.170531
    26  C   -0.218662
    27  H    0.225637
    28  H    0.223216
    29  H    0.284114
    30  H    0.275661
    31  H    0.223538
    32  N    0.487358
    33  O   -0.460503
    34  O   -0.459906
 Sum of Mulliken charges =  -0.00000

 Dipole moment (field-independent basis, Debye):
    X=             -0.0691    Y=              4.2999    Z=             -2.7599  Tot=              5.1099
 Quadrupole moment (field-independent basis, Debye-Ang):
   XX=            -88.0283   YY=            -99.8575   ZZ=            -94.6823
   XY=            -11.9889   XZ=              9.0893   YZ=              0.2599

 Normal termination of Gaussian 16 at Thu May  6 20:17:42 2021.
