 Gaussian 16, Revision A.03,
 Gaussian 16:  EM64L-G16RevA.03 25-Dec-2016

 -------------
 #p 6-31g* mp2
 -------------

 ------------------------------------------------------
 Input file generated by CHIRIPA (05-May-2021 14:55:22)
 ------------------------------------------------------
 Symbolic Z-matrix:
 Charge =  0 Multiplicity = 1

                         Standard orientation:
 ---------------------------------------------------------------------
 Center     Atomic      Atomic             Coordinates (Angstroms)
 Number     Number       Type             X           Y           Z
 ---------------------------------------------------------------------
      1          6           0       -3.926293    1.307362   -0.254827
      2          6           0       -3.423252    1.027137    1.019906
      3          6           0       -2.442682    0.046390    1.196440
      4          6           0       -1.985732   -0.637945    0.071196
      5          6           0       -2.467152   -0.381613   -1.211698
      6          6           0       -3.447482    0.603334   -1.364604
      7          1           0       -4.687930    2.070862   -0.382786
      8          1           0       -3.793244    1.572313    1.883581
      9          1           0       -2.035797   -0.190726    2.171960
     10          1           0       -2.078736   -0.941743   -2.053604
     11          1           0       -3.836322    0.818846   -2.355767
     12          7           0       -0.947773   -1.678441    0.245579
     13          8           0       -0.561739   -2.267265   -0.761845
     14          8           0       -0.539910   -1.885457    1.386380
     15          6           0        2.537069   -0.125545    0.051728
     16          6           0        3.612407   -1.151870   -0.306448
     17          6           0        3.150040   -2.592945   -0.088930
     18          1           0        2.242822   -0.263271    1.101202
     19          1           0        1.639829   -0.318871   -0.552408
     20          1           0        4.507836   -0.955810    0.297193
     21          1           0        3.904265   -1.011560   -1.355137
     22          1           0        2.270523   -2.812167   -0.702927
     23          1           0        2.877525   -2.756101    0.958790
     24          1           0        3.934154   -3.310065   -0.351159
     25          6           0        2.984340    1.319678   -0.160416
     26          6           0        1.909001    2.346003    0.197761
     27          6           0        2.371368    3.787077   -0.019758
     28          1           0        3.881579    1.513005    0.443721
     29          1           0        3.278585    1.457404   -1.209890
     30          1           0        1.617143    2.205693    1.246450
     31          1           0        1.013571    2.149942   -0.405880
     32          1           0        2.643883    3.950233   -1.067478
     33          1           0        3.250884    4.006300    0.594240
     34          1           0        1.587253    4.504197    0.242471
 ---------------------------------------------------------------------

 SCF Done:  E(RHF) =  -669.536488428     A.U. after   15 cycles
 E2 =    -0.2093454413D+01 EUMP2 =    -0.67162994284128D+03

 The electronic state is 1-A.
 Alpha  occ. eigenvalues --  -20.61037 -20.61020 -15.86013 -11.31322 -11.27880
 Alpha  occ. eigenvalues --  -11.27871 -11.27605 -11.26874 -11.26863 -11.21251
 Alpha  occ. eigenvalues --  -11.20857 -11.20729 -11.20406 -11.20306 -11.19252
 Alpha  occ. eigenvalues --   -1.60057  -1.39620  -1.19479  -1.08889  -1.07622
 Alpha  occ. eigenvalues --   -1.04871  -1.02642  -0.95739  -0.95063  -0.86274
 Alpha  occ. eigenvalues --   -0.86077  -0.82578  -0.78795  -0.77634  -0.77365
 Alpha  occ. eigenvalues --   -0.72257  -0.71344  -0.70590  -0.65139  -0.64876
 Alpha  occ. eigenvalues --   -0.64263  -0.62221  -0.60045  -0.58556  -0.56659
 Alpha  occ. eigenvalues --   -0.55377  -0.54340  -0.53202  -0.52964  -0.51801
 Alpha  occ. eigenvalues --   -0.51466  -0.49191  -0.49022  -0.48846  -0.47016
 Alpha  occ. eigenvalues --   -0.45851  -0.45364  -0.44818  -0.44381  -0.42908
 Alpha  occ. eigenvalues --   -0.37450  -0.36467
 Alpha virt. eigenvalues --    0.04859   0.11180   0.16322   0.21304   0.23546
 Alpha virt. eigenvalues --    0.25379   0.27175   0.27362   0.27818   0.28391
 Alpha virt. eigenvalues --    0.29080   0.30951   0.32206   0.32325   0.32545

 Mulliken charges:
               1
     1  C   -0.170376
     2  C   -0.218449
     3  C   -0.169794
     4  C    0.158304
     5  C   -0.171587
     6  C   -0.218560
     7  H    0.226141
     8  H    0.223961
     9  H    0.275784
    10  H    0.275638
    11  H    0.223894
    12  N    0.489606
    13  O   -0.459287
    14  O   -0.456564
    15  C   -0.302343
    16  C   -0.298580
    17  C   -0.483084
    18  H    0.156449
    19  H    0.149507
    20  H    0.146003
    21  H    0.146362
    22  H    0.178475
    23  H    0.160161
    24  H    0.149800
    25  C   -0.297250
    26  C   -0.298843
    27  C   -0.474721
    28  H    0.147980
    29  H    0.147165
    30  H    0.150360
    31  H    0.147945
    32  H    0.154403
    33  H    0.155441
    34  H    0.156058
 Sum of Mulliken charges =  -0.00000

 Dipole moment (field-independent basis, Debye):
    X=             -3.9449    Y=              3.4747    Z=             -0.5489  Tot=              5.2855
 Quadrupole moment (field-independent basis, Debye-Ang):
   XX=            -81.7324   YY=           -101.4847   ZZ=            -89.0295
   XY=             -5.4345   XZ=              1.5410   YZ=              1.7714

 Normal termination of Gaussian 16 at Thu May  6 19:13:15 2021.
