 Gaussian 16, Revision A.03,
 Gaussian 16:  EM64L-G16RevA.03 25-Dec-2016

 -------------
 #p 6-31g* mp2
 -------------

 ------------------------------------------------------
 Input file generated by CHIRIPA (05-May-2021 14:55:20)
 ------------------------------------------------------
 Symbolic Z-matrix:
 Charge =  0 Multiplicity = 1

                         Standard orientation:
 ---------------------------------------------------------------------
 Center     Atomic      Atomic             Coordinates (Angstroms)
 Number     Number       Type             X           Y           Z
 ---------------------------------------------------------------------
      1          6           0       -4.245069    1.729971    0.294527
      2          6           0       -2.906159    1.841148    0.683732
      3          6           0       -2.033996    0.757387    0.544659
      4          6           0       -2.536618   -0.427957    0.010222
      5          6           0       -3.865372   -0.569820   -0.386737
      6          6           0       -4.719566    0.526963   -0.238526
      7          1           0       -4.915607    2.576921    0.406111
      8          1           0       -2.534897    2.774195    1.098017
      9          1           0       -0.992838    0.816017    0.837865
     10          1           0       -4.206356   -1.512835   -0.796459
     11          1           0       -5.758897    0.437746   -0.541638
     12          7           0       -1.622809   -1.582179   -0.141845
     13          8           0       -2.090196   -2.615571   -0.615435
     14          8           0       -0.456483   -1.431611    0.215435
     15          6           0        3.157272   -0.403292   -0.100154
     16          6           0        4.122903   -1.481518    0.392765
     17          6           0        3.543703   -2.891758    0.276389
     18          1           0        2.223124   -0.466142    0.474618
     19          1           0        2.894288   -0.607408   -1.147327
     20          1           0        4.385070   -1.274651    1.438275
     21          1           0        5.054933   -1.415970   -0.183117
     22          1           0        3.298730   -3.122853   -0.765333
     23          1           0        2.625061   -2.980731    0.865271
     24          1           0        4.250544   -3.646865    0.634228
     25          6           0        3.722022    1.011872    0.009824
     26          6           0        2.756392    2.090099   -0.483094
     27          6           0        3.335592    3.500339   -0.366719
     28          1           0        3.985007    1.215989    1.056997
     29          1           0        4.656170    1.074722   -0.564947
     30          1           0        1.824362    2.024551    0.092787
     31          1           0        2.494225    1.883232   -1.528605
     32          1           0        4.254235    3.589312   -0.955601
     33          1           0        3.580565    3.731434    0.675003
     34          1           0        2.628751    4.255445   -0.724557
 ---------------------------------------------------------------------

 SCF Done:  E(RHF) =  -669.535952740     A.U. after   15 cycles
 E2 =    -0.2091597513D+01 EUMP2 =    -0.67162755025240D+03

 The electronic state is 1-A.
 Alpha  occ. eigenvalues --  -20.60899 -20.60893 -15.85940 -11.31268 -11.27837
 Alpha  occ. eigenvalues --  -11.27830 -11.27571 -11.26843 -11.26833 -11.21386
 Alpha  occ. eigenvalues --  -11.20970 -11.20818 -11.20628 -11.20288 -11.19813
 Alpha  occ. eigenvalues --   -1.59963  -1.39519  -1.19438  -1.08840  -1.07733
 Alpha  occ. eigenvalues --   -1.04836  -1.02856  -0.95682  -0.95277  -0.86293
 Alpha  occ. eigenvalues --   -0.86235  -0.82520  -0.78989  -0.77642  -0.77355
 Alpha  occ. eigenvalues --   -0.72163  -0.71278  -0.70548  -0.65097  -0.64841
 Alpha  occ. eigenvalues --   -0.64374  -0.62185  -0.60263  -0.58721  -0.56868
 Alpha  occ. eigenvalues --   -0.55340  -0.54557  -0.53166  -0.52930  -0.52037
 Alpha  occ. eigenvalues --   -0.51668  -0.49234  -0.48920  -0.48893  -0.47269
 Alpha  occ. eigenvalues --   -0.46052  -0.45088  -0.44892  -0.44758  -0.43083
 Alpha  occ. eigenvalues --   -0.37417  -0.36436
 Alpha virt. eigenvalues --    0.04961   0.11211   0.16460   0.20365   0.23080
 Alpha virt. eigenvalues --    0.24862   0.25263   0.27532   0.27694   0.28671
 Alpha virt. eigenvalues --    0.29422   0.31264   0.31757   0.32163   0.32373

 Mulliken charges:
               1
     1  C   -0.170574
     2  C   -0.218988
     3  C   -0.171944
     4  C    0.157606
     5  C   -0.170688
     6  C   -0.218627
     7  H    0.225926
     8  H    0.223925
     9  H    0.277488
    10  H    0.275770
    11  H    0.223726
    12  N    0.494631
    13  O   -0.459355
    14  O   -0.466763
    15  C   -0.303873
    16  C   -0.299642
    17  C   -0.475976
    18  H    0.168637
    19  H    0.150043
    20  H    0.147240
    21  H    0.146760
    22  H    0.156259
    23  H    0.168326
    24  H    0.153455
    25  C   -0.298157
    26  C   -0.297058
    27  C   -0.475205
    28  H    0.146361
    29  H    0.147802
    30  H    0.143129
    31  H    0.153355
    32  H    0.156501
    33  H    0.153854
    34  H    0.156056
 Sum of Mulliken charges =  -0.00000

 Dipole moment (field-independent basis, Debye):
    X=             -3.4452    Y=              3.9159    Z=              0.5178  Tot=              5.2414
 Quadrupole moment (field-independent basis, Debye-Ang):
   XX=            -76.6741   YY=            -98.7256   ZZ=            -93.9374
   XY=             -7.2431   XZ=             -0.2128   YZ=              1.1177

 Normal termination of Gaussian 16 at Thu May  6 04:31:42 2021.
