 Gaussian 16, Revision A.03,
 Gaussian 16:  EM64L-G16RevA.03 25-Dec-2016

 -------------
 #p 6-31g* mp2
 -------------

 ------------------------------------------------------
 Input file generated by CHIRIPA (05-May-2021 14:57:23)
 ------------------------------------------------------
 Symbolic Z-matrix:
 Charge =  0 Multiplicity = 1

                         Standard orientation:
 ---------------------------------------------------------------------
 Center     Atomic      Atomic             Coordinates (Angstroms)
 Number     Number       Type             X           Y           Z
 ---------------------------------------------------------------------
      1          6           0        1.054953   -2.452736   -0.556965
      2          6           0        2.290935   -2.562656    0.088624
      3          6           0        3.095475   -1.435198    0.278629
      4          6           0        2.630921   -0.207913   -0.191747
      5          6           0        1.404298   -0.066127   -0.838726
      6          6           0        0.616352   -1.207019   -1.017768
      7          1           0        0.436412   -3.333790   -0.700307
      8          1           0        2.634108   -3.528815    0.447532
      9          1           0        4.056581   -1.491819    0.775103
     10          1           0        1.089071    0.910491   -1.185523
     11          1           0       -0.343082   -1.118669   -1.519489
     12          7           0        3.473868    0.992787    0.003600
     13          8           0        3.041915    2.062626   -0.420072
     14          8           0        4.550561    0.841321    0.576686
     15          6           0       -1.579902    2.757932    0.185146
     16          6           0       -2.562542    2.372956   -0.732860
     17          6           0       -3.075148    1.072328   -0.720567
     18          6           0       -2.580171    0.178408    0.227692
     19          6           0       -1.601508    0.531832    1.155378
     20          6           0       -1.103362    1.837764    1.124679
     21          1           0       -1.187314    3.770350    0.168447
     22          1           0       -2.934496    3.085455   -1.463640
     23          1           0       -3.836197    0.747701   -1.419737
     24          1           0       -1.250400   -0.200707    1.871985
     25          1           0       -0.340265    2.133953    1.838821
     26          7           0       -3.115190   -1.201315    0.250450
     27          8           0       -2.662505   -1.970046    1.095889
     28          8           0       -3.977093   -1.487887   -0.577583
 ---------------------------------------------------------------------

 SCF Done:  E(RHF) =  -868.338647347     A.U. after   16 cycles
 E2 =    -0.2603179276D+01 EUMP2 =    -0.87094182662269D+03

 The electronic state is 1-A.
 Alpha  occ. eigenvalues --  -20.61524 -20.61515 -20.61057 -20.61023 -15.86554
 Alpha  occ. eigenvalues --  -15.86090 -11.31717 -11.31214 -11.28325 -11.28229
 Alpha  occ. eigenvalues --  -11.27915 -11.27771 -11.27764 -11.27359 -11.27238
 Alpha  occ. eigenvalues --  -11.27120 -11.26671 -11.26653  -1.60611  -1.60126
 Alpha  occ. eigenvalues --   -1.40159  -1.39686  -1.19919  -1.19371  -1.09314
 Alpha  occ. eigenvalues --   -1.08782  -1.05267  -1.04729  -0.96169  -0.95654
 Alpha  occ. eigenvalues --   -0.86643  -0.86133  -0.82989  -0.82504  -0.78079
 Alpha  occ. eigenvalues --   -0.77612  -0.72765  -0.72311  -0.71976  -0.71458
 Alpha  occ. eigenvalues --   -0.70926  -0.70395  -0.65518  -0.65194  -0.65004
 Alpha  occ. eigenvalues --   -0.64724  -0.62575  -0.62115  -0.55683  -0.55172
 Alpha  occ. eigenvalues --   -0.53864  -0.53294  -0.52862  -0.52799  -0.49538
 Alpha  occ. eigenvalues --   -0.49513  -0.49077  -0.49040  -0.45598  -0.45144
 Alpha  occ. eigenvalues --   -0.37980  -0.37385  -0.37211  -0.35737
 Alpha virt. eigenvalues --    0.04341   0.04966   0.10300   0.11696   0.15956
 Alpha virt. eigenvalues --    0.16500   0.21131   0.21536   0.27033   0.27115
 Alpha virt. eigenvalues --    0.27999   0.28507   0.30647   0.31183   0.32123

 Mulliken charges:
               1
     1  C   -0.166644
     2  C   -0.220228
     3  C   -0.172177
     4  C    0.152997
     5  C   -0.170566
     6  C   -0.222727
     7  H    0.235491
     8  H    0.225098
     9  H    0.274721
    10  H    0.273207
    11  H    0.224578
    12  N    0.487952
    13  O   -0.466204
    14  O   -0.459684
    15  C   -0.172099
    16  C   -0.220814
    17  C   -0.176221
    18  C    0.149014
    19  C   -0.165889
    20  C   -0.220717
    21  H    0.234184
    22  H    0.226411
    23  H    0.275949
    24  H    0.277401
    25  H    0.231915
    26  N    0.486639
    27  O   -0.460916
    28  O   -0.460672
 Sum of Mulliken charges =  -0.00000

 Dipole moment (field-independent basis, Debye):
    X=             -1.1701    Y=              0.6423    Z=             -0.6592  Tot=              1.4887
 Quadrupole moment (field-independent basis, Debye-Ang):
   XX=           -127.5589   YY=            -99.5338   ZZ=           -101.5057
   XY=            -26.3368   XZ=              3.8022   YZ=             -0.1641

 Normal termination of Gaussian 16 at Wed May  5 21:01:31 2021.
