 Gaussian 16, Revision A.03,
 Gaussian 16:  EM64L-G16RevA.03 25-Dec-2016

 -------------
 #p 6-31g* mp2
 -------------

 ------------------------------------------------------
 Input file generated by CHIRIPA (05-May-2021 14:57:24)
 ------------------------------------------------------
 Symbolic Z-matrix:
 Charge =  0 Multiplicity = 1

                         Standard orientation:
 ---------------------------------------------------------------------
 Center     Atomic      Atomic             Coordinates (Angstroms)
 Number     Number       Type             X           Y           Z
 ---------------------------------------------------------------------
      1          6           0       -1.461063   -0.016925    1.343656
      2          6           0       -1.835708   -1.200833    0.699820
      3          6           0       -3.056178   -1.285510    0.023189
      4          6           0       -3.881348   -0.162023    0.010442
      5          6           0       -3.536173    1.031627    0.642380
      6          6           0       -2.310993    1.093568    1.312935
      7          1           0       -0.511143    0.040023    1.866919
      8          1           0       -1.177642   -2.064836    0.722026
      9          1           0       -3.371005   -2.189616   -0.483659
     10          1           0       -4.213253    1.876268    0.602836
     11          1           0       -2.022637    2.014310    1.812065
     12          7           0       -5.175898   -0.239632   -0.702660
     13          8           0       -5.885071    0.764210   -0.699194
     14          8           0       -5.456882   -1.302835   -1.251554
     15          6           0        4.896245   -2.053370   -0.051428
     16          6           0        5.483388   -0.945663   -0.671726
     17          6           0        4.812025    0.279687   -0.720073
     18          6           0        3.549247    0.362171   -0.135370
     19          6           0        2.937818   -0.723394    0.489923
     20          6           0        3.627570   -1.938901    0.526398
     21          1           0        5.424918   -3.001429   -0.018482
     22          1           0        6.468543   -1.031641   -1.121306
     23          1           0        5.243239    1.153181   -1.193867
     24          1           0        1.954564   -0.606926    0.929316
     25          1           0        3.169141   -2.797490    1.008802
     26          7           0        2.828771    1.654185   -0.180269
     27          8           0        1.717277    1.700885    0.342260
     28          8           0        3.389199    2.595702   -0.737139
 ---------------------------------------------------------------------

 SCF Done:  E(RHF) =  -868.338015025     A.U. after   16 cycles
 E2 =    -0.2599773585D+01 EUMP2 =    -0.87093778861033D+03

 The electronic state is 1-A.
 Alpha  occ. eigenvalues --  -20.61646 -20.61604 -20.60416 -20.60402 -15.86675
 Alpha  occ. eigenvalues --  -15.85464 -11.31994 -11.30749 -11.28655 -11.28489
 Alpha  occ. eigenvalues --  -11.28234 -11.27584 -11.27485 -11.27384 -11.27266
 Alpha  occ. eigenvalues --  -11.27040 -11.26427 -11.26195  -1.60688  -1.59489
 Alpha  occ. eigenvalues --   -1.40251  -1.39045  -1.20147  -1.18918  -1.09538
 Alpha  occ. eigenvalues --   -1.08321  -1.05555  -1.04318  -0.96394  -0.95170
 Alpha  occ. eigenvalues --   -0.86951  -0.85720  -0.83238  -0.82013  -0.78309
 Alpha  occ. eigenvalues --   -0.77075  -0.72913  -0.71998  -0.71686  -0.71261
 Alpha  occ. eigenvalues --   -0.70810  -0.70018  -0.65805  -0.65557  -0.64578
 Alpha  occ. eigenvalues --   -0.64336  -0.62921  -0.61677  -0.56028  -0.54820
 Alpha  occ. eigenvalues --   -0.53864  -0.53638  -0.52627  -0.52420  -0.49665
 Alpha  occ. eigenvalues --   -0.49629  -0.48443  -0.48436  -0.45663  -0.44469
 Alpha  occ. eigenvalues --   -0.38094  -0.37151  -0.36852  -0.35912
 Alpha virt. eigenvalues --    0.04245   0.05466   0.10506   0.11726   0.15764
 Alpha virt. eigenvalues --    0.16910   0.19019   0.22001   0.25443   0.26936
 Alpha virt. eigenvalues --    0.27751   0.29070   0.30568   0.31083   0.32650

 Mulliken charges:
               1
     1  C   -0.164203
     2  C   -0.220328
     3  C   -0.170937
     4  C    0.157954
     5  C   -0.171107
     6  C   -0.215467
     7  H    0.227690
     8  H    0.212908
     9  H    0.272973
    10  H    0.275572
    11  H    0.229799
    12  N    0.488201
    13  O   -0.460407
    14  O   -0.462701
    15  C   -0.169776
    16  C   -0.218145
    17  C   -0.169371
    18  C    0.158430
    19  C   -0.170491
    20  C   -0.219537
    21  H    0.228341
    22  H    0.226535
    23  H    0.277973
    24  H    0.268349
    25  H    0.222676
    26  N    0.489748
    27  O   -0.469509
    28  O   -0.455170
 Sum of Mulliken charges =  -0.00000

 Dipole moment (field-independent basis, Debye):
    X=              7.4279    Y=             -4.0702    Z=              2.6171  Tot=              8.8651
 Quadrupole moment (field-independent basis, Debye-Ang):
   XX=           -119.0207   YY=           -103.3146   ZZ=           -104.6695
   XY=            -17.0305   XZ=            -12.5148   YZ=              0.6201

 Normal termination of Gaussian 16 at Thu May  6 11:21:26 2021.
