 Gaussian 16, Revision A.03,
 Gaussian 16:  EM64L-G16RevA.03 25-Dec-2016

 -------------
 #p 6-31g* mp2
 -------------

 ------------------------------------------------------
 Input file generated by CHIRIPA (05-May-2021 14:51:14)
 ------------------------------------------------------
 Symbolic Z-matrix:
 Charge =  0 Multiplicity = 1

                         Standard orientation:
 ---------------------------------------------------------------------
 Center     Atomic      Atomic             Coordinates (Angstroms)
 Number     Number       Type             X           Y           Z
 ---------------------------------------------------------------------
      1          6           0       -3.448658   -0.389479    0.107793
      2          6           0       -3.621369    0.869145   -0.743101
      3          6           0       -5.012386    1.488938   -0.606266
      4          1           0       -4.210195   -1.126845   -0.180821
      5          1           0       -3.638110   -0.140396    1.161103
      6          1           0       -3.430294    0.618063   -1.794321
      7          1           0       -2.859212    1.603528   -0.452559
      8          1           0       -5.209480    1.767264    0.434065
      9          1           0       -5.783807    0.776200   -0.915320
     10          1           0       -5.113993    2.387424   -1.222918
     11          6           0       -2.063203   -1.020614   -0.018345
     12          6           0       -1.890492   -2.279238    0.832550
     13          6           0       -0.499475   -2.899032    0.695715
     14          1           0       -1.873751   -1.269697   -1.071654
     15          1           0       -1.301666   -0.283248    0.270270
     16          1           0       -2.652649   -3.013621    0.542008
     17          1           0       -2.081567   -2.028156    1.883770
     18          1           0        0.271946   -2.186294    1.004769
     19          1           0       -0.302381   -3.177357   -0.344617
     20          1           0       -0.397867   -3.797517    1.312366
     21          6           0        2.257828    1.154690    0.320169
     22          6           0        2.482630    2.644634    0.060336
     23          6           0        1.478322    3.531329    0.797176
     24          1           0        1.236959    0.885889    0.016005
     25          1           0        2.322518    0.964149    1.400402
     26          1           0        2.418908    2.832078   -1.019211
     27          1           0        3.503147    2.909879    0.364976
     28          1           0        1.545830    3.373544    1.878447
     29          1           0        0.455429    3.295301    0.486396
     30          1           0        1.657314    4.592405    0.597331
     31          6           0        3.254033    0.255404   -0.409617
     32          6           0        3.029232   -1.234542   -0.149785
     33          6           0        4.033539   -2.121235   -0.886625
     34          1           0        3.189343    0.445944   -1.489851
     35          1           0        4.274903    0.524204   -0.105453
     36          1           0        2.008714   -1.499786   -0.454424
     37          1           0        3.092953   -1.421985    0.929762
     38          1           0        5.056431   -1.885208   -0.575845
     39          1           0        3.966032   -1.963451   -1.967896
     40          1           0        3.854548   -3.182312   -0.686780
 ---------------------------------------------------------------------

 SCF Done:  E(RHF) =  -470.732850395     A.U. after   11 cycles
 E2 =    -0.1583766764D+01 EUMP2 =    -0.47231661715830D+03

 The electronic state is 1-A.
 Alpha  occ. eigenvalues --  -11.21633 -11.21619 -11.21592 -11.21496 -11.21430
 Alpha  occ. eigenvalues --  -11.21407 -11.21370 -11.21331 -11.21103 -11.21088
 Alpha  occ. eigenvalues --  -11.21017 -11.20997  -1.08459  -1.08409  -1.03558
 Alpha  occ. eigenvalues --   -1.03491  -0.96000  -0.95953  -0.87040  -0.86950
 Alpha  occ. eigenvalues --   -0.79715  -0.79488  -0.78375  -0.78125  -0.65130
 Alpha  occ. eigenvalues --   -0.64999  -0.60952  -0.60902  -0.59393  -0.59311
 Alpha  occ. eigenvalues --   -0.57691  -0.57490  -0.55298  -0.55232  -0.52679
 Alpha  occ. eigenvalues --   -0.52670  -0.52508  -0.52305  -0.49980  -0.49866
 Alpha  occ. eigenvalues --   -0.48180  -0.47689  -0.46686  -0.46577  -0.46168
 Alpha  occ. eigenvalues --   -0.45747  -0.45710  -0.45193  -0.43793  -0.43764
 Alpha virt. eigenvalues --    0.20790   0.23065   0.23579   0.24181   0.25419
 Alpha virt. eigenvalues --    0.26378   0.26875   0.27603   0.27852   0.30137
 Alpha virt. eigenvalues --    0.30877   0.31434   0.31510   0.31808   0.31898

 Mulliken charges:
               1
     1  C   -0.297963
     2  C   -0.299629
     3  C   -0.475721
     4  H    0.149910
     5  H    0.149844
     6  H    0.151807
     7  H    0.151317
     8  H    0.155414
     9  H    0.155269
    10  H    0.160332
    11  C   -0.303313
    12  C   -0.299250
    13  C   -0.481227
    14  H    0.148888
    15  H    0.153629
    16  H    0.151708
    17  H    0.151916
    18  H    0.163256
    19  H    0.154165
    20  H    0.159835
    21  C   -0.303878
    22  C   -0.299280
    23  C   -0.475749
    24  H    0.153930
    25  H    0.148899
    26  H    0.152226
    27  H    0.152225
    28  H    0.155069
    29  H    0.154512
    30  H    0.160534
    31  C   -0.297491
    32  C   -0.305915
    33  C   -0.475491
    34  H    0.149350
    35  H    0.149360
    36  H    0.160588
    37  H    0.150902
    38  H    0.154704
    39  H    0.154709
    40  H    0.160609
 Sum of Mulliken charges =  -0.00000

 Dipole moment (field-independent basis, Debye):
    X=             -0.0052    Y=             -0.0096    Z=              0.0037  Tot=              0.0115
 Quadrupole moment (field-independent basis, Debye-Ang):
   XX=            -85.6985   YY=            -85.3977   ZZ=            -83.7362
   XY=              1.2460   XZ=              1.0658   YZ=              0.1174

 Normal termination of Gaussian 16 at Thu May  6 07:12:14 2021.
