 Gaussian 16, Revision A.03,
 Gaussian 16:  EM64L-G16RevA.03 25-Dec-2016

 -------------
 #p 6-31g* mp2
 -------------

 ------------------------------------------------------
 Input file generated by CHIRIPA (05-May-2021 14:55:20)
 ------------------------------------------------------
 Symbolic Z-matrix:
 Charge =  0 Multiplicity = 1

                         Standard orientation:
 ---------------------------------------------------------------------
 Center     Atomic      Atomic             Coordinates (Angstroms)
 Number     Number       Type             X           Y           Z
 ---------------------------------------------------------------------
      1          6           0        2.712537    1.904655   -1.405780
      2          6           0        1.470946    1.517528   -0.890897
      3          6           0        1.338720    0.320417   -0.180974
      4          6           0        2.473995   -0.468917   -0.003802
      5          6           0        3.724620   -0.110496   -0.504565
      6          6           0        3.833435    1.090842   -1.211314
      7          1           0        2.806161    2.836241   -1.956032
      8          1           0        0.598731    2.147558   -1.040389
      9          1           0        0.389518   -0.003358    0.228420
     10          1           0        4.576060   -0.759482   -0.339386
     11          1           0        4.798929    1.388967   -1.610047
     12          7           0        2.346405   -1.738482    0.746081
     13          8           0        3.361804   -2.416207    0.888528
     14          8           0        1.233418   -2.031803    1.177194
     15          6           0       -3.629837   -0.294392    0.145642
     16          6           0       -4.039966   -0.708627   -1.267931
     17          6           0       -4.912337   -1.964184   -1.286337
     18          1           0       -3.090426   -1.124414    0.622134
     19          1           0       -4.533560   -0.122931    0.746709
     20          1           0       -3.135741   -0.877913   -1.866543
     21          1           0       -4.578296    0.122547   -1.741181
     22          1           0       -5.830825   -1.803552   -0.712597
     23          1           0       -4.380075   -2.809698   -0.838671
     24          1           0       -5.193982   -2.242431   -2.306688
     25          6           0       -2.757424    0.959167    0.180481
     26          6           0       -2.347295    1.373402    1.594054
     27          6           0       -1.474924    2.628958    1.612461
     28          1           0       -1.853700    0.787706   -0.420585
     29          1           0       -3.296835    1.789189   -0.296011
     30          1           0       -1.808965    0.542227    2.067305
     31          1           0       -3.251519    1.542688    2.192666
     32          1           0       -2.007186    3.474472    1.164794
     33          1           0       -0.556436    2.468327    1.038720
     34          1           0       -1.193280    2.907205    2.632811
 ---------------------------------------------------------------------

 SCF Done:  E(RHF) =  -669.534770412     A.U. after   15 cycles
 E2 =    -0.2093457269D+01 EUMP2 =    -0.67162822768166D+03

 The electronic state is 1-A.
 Alpha  occ. eigenvalues --  -20.60811 -20.60805 -15.85862 -11.31209 -11.27789
 Alpha  occ. eigenvalues --  -11.27760 -11.27517 -11.26796 -11.26755 -11.22043
 Alpha  occ. eigenvalues --  -11.21965 -11.21757 -11.21654 -11.21581 -11.21085
 Alpha  occ. eigenvalues --   -1.59883  -1.39438  -1.19389  -1.08812  -1.08778
 Alpha  occ. eigenvalues --   -1.04803  -1.03851  -0.96323  -0.95621  -0.87339
 Alpha  occ. eigenvalues --   -0.86184  -0.82472  -0.79930  -0.78613  -0.77502
 Alpha  occ. eigenvalues --   -0.72083  -0.71205  -0.70513  -0.65529  -0.65020
 Alpha  occ. eigenvalues --   -0.64793  -0.62267  -0.61090  -0.59679  -0.57925
 Alpha  occ. eigenvalues --   -0.55667  -0.55281  -0.53160  -0.52977  -0.52958
 Alpha  occ. eigenvalues --   -0.52626  -0.50248  -0.48839  -0.48839  -0.48223
 Alpha  occ. eigenvalues --   -0.46957  -0.46132  -0.46028  -0.44846  -0.44114
 Alpha  occ. eigenvalues --   -0.37362  -0.36364
 Alpha virt. eigenvalues --    0.04985   0.11240   0.16347   0.19288   0.22769
 Alpha virt. eigenvalues --    0.24025   0.25612   0.26163   0.27426   0.28316
 Alpha virt. eigenvalues --    0.29915   0.30436   0.31498   0.31541   0.32359

 Mulliken charges:
               1
     1  C   -0.171274
     2  C   -0.222836
     3  C   -0.176301
     4  C    0.158576
     5  C   -0.170202
     6  C   -0.218917
     7  H    0.226131
     8  H    0.227531
     9  H    0.283417
    10  H    0.275721
    11  H    0.223688
    12  N    0.488186
    13  O   -0.460038
    14  O   -0.461463
    15  C   -0.300663
    16  C   -0.299790
    17  C   -0.476573
    18  H    0.158675
    19  H    0.151602
    20  H    0.151593
    21  H    0.150354
    22  H    0.155282
    23  H    0.159599
    24  H    0.160414
    25  C   -0.302504
    26  C   -0.305959
    27  C   -0.481045
    28  H    0.138769
    29  H    0.150707
    30  H    0.160810
    31  H    0.156785
    32  H    0.154710
    33  H    0.148896
    34  H    0.166121
 Sum of Mulliken charges =  -0.00000

 Dipole moment (field-independent basis, Debye):
    X=              0.3584    Y=              4.3781    Z=             -2.5559  Tot=              5.0822
 Quadrupole moment (field-independent basis, Debye-Ang):
   XX=            -86.8159   YY=            -99.9169   ZZ=            -95.2542
   XY=              9.2122   XZ=             -7.9082   YZ=              1.2246

 Normal termination of Gaussian 16 at Wed May  5 23:46:47 2021.
