 Gaussian 16, Revision A.03,
 Gaussian 16:  EM64L-G16RevA.03 25-Dec-2016

 -------------
 #p 6-31g* mp2
 -------------

 ------------------------------------------------------
 Input file generated by CHIRIPA (05-May-2021 14:51:13)
 ------------------------------------------------------
 Symbolic Z-matrix:
 Charge =  0 Multiplicity = 1

                         Standard orientation:
 ---------------------------------------------------------------------
 Center     Atomic      Atomic             Coordinates (Angstroms)
 Number     Number       Type             X           Y           Z
 ---------------------------------------------------------------------
      1          6           0        5.180366    0.084534   -0.087590
      2          6           0        5.580466   -1.390424   -0.136614
      3          6           0        7.078747   -1.604056    0.080890
      4          1           0        5.745539    0.636756   -0.850856
      5          1           0        5.474362    0.504901    0.884136
      6          1           0        5.284558   -1.808238   -1.107431
      7          1           0        5.014133   -1.939233    0.626729
      8          1           0        7.385930   -1.213577    1.056475
      9          1           0        7.657890   -1.081838   -0.687538
     10          1           0        7.342758   -2.665488    0.041882
     11          6           0        3.685571    0.314252   -0.303335
     12          6           0        3.285470    1.789210   -0.254312
     13          6           0        1.787189    2.002843   -0.471816
     14          1           0        3.391574   -0.106115   -1.275062
     15          1           0        3.120397   -0.237970    0.459930
     16          1           0        3.851803    2.338019   -1.017655
     17          1           0        3.581379    2.207024    0.716505
     18          1           0        1.208046    1.480624    0.296613
     19          1           0        1.480007    1.612363   -1.447401
     20          1           0        1.523178    3.064274   -0.432807
     21          6           0       -4.947310   -0.545985   -0.250360
     22          6           0       -6.378409   -0.061919   -0.014520
     23          6           0       -7.395902   -0.764594   -0.913826
     24          1           0       -4.681151   -0.384023   -1.303866
     25          1           0       -4.901658   -1.630491   -0.079603
     26          1           0       -6.421049    1.021577   -0.184325
     27          1           0       -6.641126   -0.224876    1.038591
     28          1           0       -7.382707   -1.845318   -0.739301
     29          1           0       -7.161380   -0.591784   -1.969164
     30          1           0       -8.412318   -0.403411   -0.728608
     31          6           0       -3.918626    0.147198    0.641286
     32          6           0       -2.487527   -0.336867    0.405445
     33          6           0       -1.470034    0.365807    1.304752
     34          1           0       -3.964279    1.231704    0.470529
     35          1           0       -4.184786   -0.014763    1.694791
     36          1           0       -2.224811   -0.173910   -0.647665
     37          1           0       -2.444887   -1.420364    0.575251
     38          1           0       -1.704556    0.192997    2.360090
     39          1           0       -1.483229    1.446533    1.130226
     40          1           0       -0.453619    0.004626    1.119534
 ---------------------------------------------------------------------

 SCF Done:  E(RHF) =  -470.732997274     A.U. after   11 cycles
 E2 =    -0.1582408286D+01 EUMP2 =    -0.47231540555964D+03

 The electronic state is 1-A.
 Alpha  occ. eigenvalues --  -11.21593 -11.21590 -11.21587 -11.21553 -11.21394
 Alpha  occ. eigenvalues --  -11.21389 -11.21335 -11.21330 -11.21064 -11.21062
 Alpha  occ. eigenvalues --  -11.21055 -11.20950  -1.08422  -1.08404  -1.03536
 Alpha  occ. eigenvalues --   -1.03481  -0.96015  -0.95907  -0.87061  -0.86899
 Alpha  occ. eigenvalues --   -0.79640  -0.79508  -0.78236  -0.78216  -0.65061
 Alpha  occ. eigenvalues --   -0.65028  -0.60980  -0.60855  -0.59412  -0.59274
 Alpha  occ. eigenvalues --   -0.57671  -0.57474  -0.55371  -0.55138  -0.52806
 Alpha  occ. eigenvalues --   -0.52634  -0.52413  -0.52235  -0.50020  -0.49753
 Alpha  occ. eigenvalues --   -0.47948  -0.47818  -0.46675  -0.46519  -0.45775
 Alpha  occ. eigenvalues --   -0.45760  -0.45704  -0.45674  -0.43758  -0.43735
 Alpha virt. eigenvalues --    0.22128   0.22983   0.23570   0.24842   0.26281
 Alpha virt. eigenvalues --    0.26608   0.27159   0.27475   0.27723   0.29039
 Alpha virt. eigenvalues --    0.30459   0.31317   0.31734   0.31921   0.32020

 Mulliken charges:
               1
     1  C   -0.298232
     2  C   -0.299650
     3  C   -0.475698
     4  H    0.149709
     5  H    0.149567
     6  H    0.151880
     7  H    0.151891
     8  H    0.155189
     9  H    0.155165
    10  H    0.160203
    11  C   -0.298300
    12  C   -0.299359
    13  C   -0.482570
    14  H    0.149431
    15  H    0.148864
    16  H    0.151519
    17  H    0.151754
    18  H    0.164296
    19  H    0.154088
    20  H    0.159342
    21  C   -0.298303
    22  C   -0.299645
    23  C   -0.475698
    24  H    0.149724
    25  H    0.149480
    26  H    0.151962
    27  H    0.151898
    28  H    0.155155
    29  H    0.155187
    30  H    0.160226
    31  C   -0.298675
    32  C   -0.299451
    33  C   -0.479141
    34  H    0.149762
    35  H    0.149545
    36  H    0.152744
    37  H    0.151703
    38  H    0.154758
    39  H    0.157099
    40  H    0.162578
 Sum of Mulliken charges =  -0.00000

 Dipole moment (field-independent basis, Debye):
    X=             -0.0274    Y=             -0.0020    Z=              0.0113  Tot=              0.0297
 Quadrupole moment (field-independent basis, Debye-Ang):
   XX=            -86.7186   YY=            -84.5802   ZZ=            -83.6196
   XY=              0.0330   XZ=             -0.8620   YZ=             -0.7722

 Normal termination of Gaussian 16 at Wed May  5 15:20:04 2021.
