 Gaussian 16, Revision A.03,
 Gaussian 16:  EM64L-G16RevA.03 25-Dec-2016

 -------------
 #p 6-31g* mp2
 -------------

 ------------------------------------------------------
 Input file generated by CHIRIPA (05-May-2021 14:57:23)
 ------------------------------------------------------
 Symbolic Z-matrix:
 Charge =  0 Multiplicity = 1

                         Standard orientation:
 ---------------------------------------------------------------------
 Center     Atomic      Atomic             Coordinates (Angstroms)
 Number     Number       Type             X           Y           Z
 ---------------------------------------------------------------------
      1          6           0        5.111745    0.764316   -0.724704
      2          6           0        4.405792    1.477470    0.249751
      3          6           0        3.265674    0.928839    0.844463
      4          6           0        2.857821   -0.341036    0.439046
      5          6           0        3.539868   -1.076411   -0.529110
      6          6           0        4.677296   -0.508105   -1.110345
      7          1           0        5.996372    1.198148   -1.181455
      8          1           0        4.740879    2.465846    0.551206
      9          1           0        2.700343    1.459019    1.601252
     10          1           0        3.181472   -2.059597   -0.808960
     11          1           0        5.223577   -1.064247   -1.866868
     12          7           0        1.652253   -0.932261    1.061506
     13          8           0        1.313504   -2.052776    0.686894
     14          8           0        1.068905   -0.263955    1.912216
     15          6           0       -0.682234    0.770521   -1.008072
     16          6           0       -1.471827    1.751870   -0.399782
     17          6           0       -2.788678    1.471082   -0.023469
     18          6           0       -3.286050    0.192653   -0.271527
     19          6           0       -2.524331   -0.806343   -0.875747
     20          6           0       -1.210075   -0.503207   -1.243698
     21          1           0        0.339719    0.997326   -1.297153
     22          1           0       -1.064538    2.741932   -0.215562
     23          1           0       -3.421990    2.212055    0.449069
     24          1           0       -2.958141   -1.784144   -1.046425
     25          1           0       -0.599176   -1.267301   -1.715934
     26          7           0       -4.678767   -0.116434    0.122432
     27          8           0       -5.093479   -1.250449   -0.107050
     28          8           0       -5.329295    0.781170    0.653241
 ---------------------------------------------------------------------

 SCF Done:  E(RHF) =  -868.337498630     A.U. after   16 cycles
 E2 =    -0.2602410874D+01 EUMP2 =    -0.87093990950420D+03

 The electronic state is 1-A.
 Alpha  occ. eigenvalues --  -20.61646 -20.61594 -20.60027 -20.60019 -15.86629
 Alpha  occ. eigenvalues --  -15.85073 -11.32132 -11.30342 -11.28682 -11.28675
 Alpha  occ. eigenvalues --  -11.28373 -11.27678 -11.27667 -11.26908 -11.26843
 Alpha  occ. eigenvalues --  -11.26701 -11.26001 -11.25882  -1.60669  -1.59099
 Alpha  occ. eigenvalues --   -1.40227  -1.38656  -1.20294  -1.18497  -1.09651
 Alpha  occ. eigenvalues --   -1.07952  -1.05687  -1.03889  -0.96469  -0.94808
 Alpha  occ. eigenvalues --   -0.87073  -0.85328  -0.83291  -0.81637  -0.78342
 Alpha  occ. eigenvalues --   -0.76670  -0.72861  -0.72075  -0.71347  -0.71302
 Alpha  occ. eigenvalues --   -0.70409  -0.69685  -0.65918  -0.65654  -0.64187
 Alpha  occ. eigenvalues --   -0.63931  -0.63019  -0.61257  -0.56139  -0.54617
 Alpha  occ. eigenvalues --   -0.53944  -0.53752  -0.52190  -0.52023  -0.49626
 Alpha  occ. eigenvalues --   -0.49615  -0.48059  -0.48053  -0.45594  -0.44083
 Alpha  occ. eigenvalues --   -0.38263  -0.37310  -0.36482  -0.35413
 Alpha virt. eigenvalues --    0.04150   0.05858   0.10323   0.12193   0.15631
 Alpha virt. eigenvalues --    0.17354   0.20580   0.21995   0.26447   0.27432
 Alpha virt. eigenvalues --    0.28018   0.28556   0.30255   0.31335   0.31916

 Mulliken charges:
               1
     1  C   -0.171026
     2  C   -0.218588
     3  C   -0.175769
     4  C    0.153570
     5  C   -0.175167
     6  C   -0.218116
     7  H    0.228778
     8  H    0.226148
     9  H    0.277108
    10  H    0.275894
    11  H    0.226386
    12  N    0.488977
    13  O   -0.461314
    14  O   -0.452592
    15  C   -0.177800
    16  C   -0.211639
    17  C   -0.170635
    18  C    0.159948
    19  C   -0.167719
    20  C   -0.208070
    21  H    0.218148
    22  H    0.217229
    23  H    0.272656
    24  H    0.275043
    25  H    0.224344
    26  N    0.488197
    27  O   -0.461090
    28  O   -0.462899
 Sum of Mulliken charges =  -0.00000

 Dipole moment (field-independent basis, Debye):
    X=              9.3633    Y=              3.0498    Z=             -3.4493  Tot=             10.4341
 Quadrupole moment (field-independent basis, Debye-Ang):
   XX=           -113.5664   YY=            -98.5188   ZZ=           -105.0409
   XY=              1.2159   XZ=             -1.9675   YZ=              5.8079

 Normal termination of Gaussian 16 at Fri May  7 11:01:59 2021.
