 Gaussian 16, Revision A.03,
 Gaussian 16:  EM64L-G16RevA.03 25-Dec-2016

 -------------
 #p 6-31g* mp2
 -------------

 ------------------------------------------------------
 Input file generated by CHIRIPA (05-May-2021 14:55:20)
 ------------------------------------------------------
 Symbolic Z-matrix:
 Charge =  0 Multiplicity = 1

                         Standard orientation:
 ---------------------------------------------------------------------
 Center     Atomic      Atomic             Coordinates (Angstroms)
 Number     Number       Type             X           Y           Z
 ---------------------------------------------------------------------
      1          6           0       -3.148290    2.525418   -0.763388
      2          6           0       -3.269923    2.282866    0.608798
      3          6           0       -3.126321    0.988172    1.116432
      4          6           0       -2.860249   -0.045111    0.219313
      5          6           0       -2.733462    0.164601   -1.152997
      6          6           0       -2.880919    1.467377   -1.638364
      7          1           0       -3.261341    3.534306   -1.149082
      8          1           0       -3.477538    3.102625    1.290661
      9          1           0       -3.215542    0.772207    2.174173
     10          1           0       -2.526193   -0.672914   -1.807998
     11          1           0       -2.785939    1.652791   -2.704500
     12          7           0       -2.706183   -1.420024    0.744936
     13          8           0       -2.472035   -2.313175   -0.066292
     14          8           0       -2.822492   -1.578494    1.958195
     15          6           0        4.007160    0.339968    0.227184
     16          6           0        5.531426    0.390368    0.117360
     17          6           0        6.144016    1.540600    0.917042
     18          1           0        3.589036    1.294249   -0.121333
     19          1           0        3.725723    0.243112    1.284920
     20          1           0        5.809942    0.485707   -0.939974
     21          1           0        5.945959   -0.564215    0.466000
     22          1           0        5.895037    1.446951    1.979040
     23          1           0        5.758247    2.502840    0.565079
     24          1           0        7.234425    1.557893    0.824467
     25          6           0        3.380081   -0.804585   -0.566855
     26          6           0        1.855816   -0.854986   -0.457032
     27          6           0        1.243225   -2.005218   -1.256713
     28          1           0        3.661520   -0.707730   -1.624591
     29          1           0        3.798205   -1.758866   -0.218338
     30          1           0        1.441283    0.099597   -0.805671
     31          1           0        1.577300   -0.950325    0.600302
     32          1           0        1.628995   -2.967457   -0.904750
     33          1           0        1.492205   -1.911568   -2.318712
     34          1           0        0.152817   -2.022511   -1.164138
 ---------------------------------------------------------------------

 SCF Done:  E(RHF) =  -669.536345832     A.U. after   15 cycles
 E2 =    -0.2091491758D+01 EUMP2 =    -0.67162783758969D+03

 The electronic state is 1-A.
 Alpha  occ. eigenvalues --  -20.60945 -20.60939 -15.85959 -11.31268 -11.27831
 Alpha  occ. eigenvalues --  -11.27825 -11.27566 -11.26838 -11.26828 -11.21471
 Alpha  occ. eigenvalues --  -11.21233 -11.21207 -11.21089 -11.20993 -11.20405
 Alpha  occ. eigenvalues --   -1.59995  -1.39553  -1.19435  -1.08843  -1.08186
 Alpha  occ. eigenvalues --   -1.04830  -1.03244  -0.95708  -0.95656  -0.86690
 Alpha  occ. eigenvalues --   -0.86232  -0.82522  -0.79317  -0.78003  -0.77578
 Alpha  occ. eigenvalues --   -0.72186  -0.71304  -0.70546  -0.65093  -0.64838
 Alpha  occ. eigenvalues --   -0.64819  -0.62182  -0.60646  -0.59048  -0.57287
 Alpha  occ. eigenvalues --   -0.55337  -0.54971  -0.53157  -0.52927  -0.52340
 Alpha  occ. eigenvalues --   -0.52105  -0.49629  -0.48949  -0.48939  -0.47631
 Alpha  occ. eigenvalues --   -0.46367  -0.45542  -0.45471  -0.44953  -0.43441
 Alpha  occ. eigenvalues --   -0.37410  -0.36426
 Alpha virt. eigenvalues --    0.04916   0.11179   0.16393   0.21241   0.23076
 Alpha virt. eigenvalues --    0.24444   0.26868   0.26980   0.27652   0.27803
 Alpha virt. eigenvalues --    0.28704   0.30448   0.31663   0.31710   0.32052

 Mulliken charges:
               1
     1  C   -0.170553
     2  C   -0.218435
     3  C   -0.170671
     4  C    0.159141
     5  C   -0.171124
     6  C   -0.218787
     7  H    0.225895
     8  H    0.223762
     9  H    0.275709
    10  H    0.276460
    11  H    0.223884
    12  N    0.488307
    13  O   -0.459360
    14  O   -0.458449
    15  C   -0.297838
    16  C   -0.299416
    17  C   -0.475475
    18  H    0.146932
    19  H    0.150193
    20  H    0.151050
    21  H    0.152775
    22  H    0.155387
    23  H    0.153659
    24  H    0.159872
    25  C   -0.297514
    26  C   -0.300623
    27  C   -0.484570
    28  H    0.147542
    29  H    0.151111
    30  H    0.145993
    31  H    0.154324
    32  H    0.158145
    33  H    0.148129
    34  H    0.174546
 Sum of Mulliken charges =  -0.00000

 Dipole moment (field-independent basis, Debye):
    X=             -0.7088    Y=              4.7954    Z=             -1.7788  Tot=              5.1636
 Quadrupole moment (field-independent basis, Debye-Ang):
   XX=            -92.9401   YY=            -95.2344   ZZ=            -91.0313
   XY=            -14.9755   XZ=              4.2304   YZ=              1.8913

 Normal termination of Gaussian 16 at Thu May  6 02:56:58 2021.
