 Gaussian 16, Revision A.03,
 Gaussian 16:  EM64L-G16RevA.03 25-Dec-2016

 -------------
 #p 6-31g* mp2
 -------------

 ------------------------------------------------------
 Input file generated by CHIRIPA (05-May-2021 14:53:18)
 ------------------------------------------------------
 Symbolic Z-matrix:
 Charge =  0 Multiplicity = 1

                         Standard orientation:
 ---------------------------------------------------------------------
 Center     Atomic      Atomic             Coordinates (Angstroms)
 Number     Number       Type             X           Y           Z
 ---------------------------------------------------------------------
      1          6           0        3.917678    0.555274   -0.410718
      2          6           0        3.538657    1.742461    0.475237
      3          6           0        2.413599    2.589267   -0.120547
      4          1           0        4.220084    0.925815   -1.399756
      5          1           0        3.030029   -0.072474   -0.570112
      6          1           0        4.427082    2.367038    0.634048
      7          1           0        3.237301    1.369064    1.462341
      8          1           0        1.511352    1.985772   -0.263187
      9          1           0        2.707893    2.989416   -1.096186
     10          1           0        2.158612    3.432402    0.529041
     11          6           0        5.041037   -0.300800    0.171456
     12          6           0        5.420058   -1.487987   -0.714499
     13          6           0        6.545116   -2.334792   -0.118715
     14          1           0        5.928686    0.326948    0.330850
     15          1           0        4.738631   -0.671341    1.160494
     16          1           0        5.721414   -1.114590   -1.701603
     17          1           0        4.531633   -2.112564   -0.873310
     18          1           0        6.250822   -2.734942    0.856924
     19          1           0        7.447363   -1.731298    0.023925
     20          1           0        6.800103   -3.177928   -0.768303
     21          6           0       -1.292602    0.895944    0.803965
     22          6           0       -1.871488   -0.131689    1.555883
     23          6           0       -3.093966   -0.690644    1.171608
     24          6           0       -3.712852   -0.195631    0.024773
     25          6           0       -3.161413    0.827221   -0.745278
     26          6           0       -1.938274    1.371282   -0.342195
     27          1           0       -0.342696    1.324369    1.109785
     28          1           0       -1.372309   -0.502824    2.446459
     29          1           0       -3.564460   -1.487092    1.735278
     30          1           0       -3.682810    1.176308   -1.628286
     31          1           0       -1.491045    2.169264   -0.928076
     32          7           0       -5.007385   -0.779488   -0.391998
     33          8           0       -5.532539   -0.325753   -1.406382
     34          8           0       -5.472372   -1.679792    0.303612
 ---------------------------------------------------------------------

 SCF Done:  E(RHF) =  -669.535511101     A.U. after   15 cycles
 E2 =    -0.2091074437D+01 EUMP2 =    -0.67162658553764D+03

 The electronic state is 1-A.
 Alpha  occ. eigenvalues --  -20.60747 -20.60742 -15.85801 -11.31167 -11.27736
 Alpha  occ. eigenvalues --  -11.27730 -11.27437 -11.26747 -11.26732 -11.22600
 Alpha  occ. eigenvalues --  -11.22316 -11.22170 -11.22111 -11.22003 -11.21495
 Alpha  occ. eigenvalues --   -1.59823  -1.39376  -1.19337  -1.09182  -1.08730
 Alpha  occ. eigenvalues --   -1.04740  -1.04312  -0.96776  -0.95565  -0.87796
 Alpha  occ. eigenvalues --   -0.86135  -0.82400  -0.80384  -0.78947  -0.77447
 Alpha  occ. eigenvalues --   -0.72019  -0.71146  -0.70467  -0.65819  -0.64988
 Alpha  occ. eigenvalues --   -0.64745  -0.62091  -0.61717  -0.60157  -0.58355
 Alpha  occ. eigenvalues --   -0.56183  -0.55141  -0.53470  -0.53198  -0.53054
 Alpha  occ. eigenvalues --   -0.52826  -0.50708  -0.48777  -0.48775  -0.48687
 Alpha  occ. eigenvalues --   -0.47410  -0.46498  -0.46398  -0.44782  -0.44542
 Alpha  occ. eigenvalues --   -0.37311  -0.36346
 Alpha virt. eigenvalues --    0.05071   0.11276   0.16517   0.19767   0.22475
 Alpha virt. eigenvalues --    0.23722   0.25686   0.26157   0.26941   0.27529
 Alpha virt. eigenvalues --    0.29124   0.30403   0.30832   0.31203   0.31786

 Mulliken charges:
               1
     1  C   -0.299101
     2  C   -0.300037
     3  C   -0.482820
     4  H    0.152056
     5  H    0.149469
     6  H    0.156733
     7  H    0.149123
     8  H    0.147856
     9  H    0.161413
    10  H    0.161228
    11  C   -0.298652
    12  C   -0.300295
    13  C   -0.476075
    14  H    0.150998
    15  H    0.149092
    16  H    0.153127
    17  H    0.152738
    18  H    0.155310
    19  H    0.155867
    20  H    0.162145
    21  C   -0.175286
    22  C   -0.219167
    23  C   -0.170893
    24  C    0.158375
    25  C   -0.170942
    26  C   -0.220437
    27  H    0.231941
    28  H    0.223271
    29  H    0.275442
    30  H    0.275616
    31  H    0.224771
    32  N    0.488075
    33  O   -0.460430
    34  O   -0.460509
 Sum of Mulliken charges =  -0.00000

 Dipole moment (field-independent basis, Debye):
    X=              4.7759    Y=              2.0524    Z=              1.4264  Tot=              5.3904
 Quadrupole moment (field-independent basis, Debye-Ang):
   XX=           -128.6736   YY=            -94.1670   ZZ=            -91.7698
   XY=             -7.6584   XZ=             -5.9414   YZ=             -3.2178

 Normal termination of Gaussian 16 at Thu May  6 06:02:26 2021.
