 Gaussian 16, Revision A.03,
 Gaussian 16:  EM64L-G16RevA.03 25-Dec-2016

 -------------
 #p 6-31g* mp2
 -------------

 ------------------------------------------------------
 Input file generated by CHIRIPA (05-May-2021 14:53:17)
 ------------------------------------------------------
 Symbolic Z-matrix:
 Charge =  0 Multiplicity = 1

                         Standard orientation:
 ---------------------------------------------------------------------
 Center     Atomic      Atomic             Coordinates (Angstroms)
 Number     Number       Type             X           Y           Z
 ---------------------------------------------------------------------
      1          6           0        4.144901    0.010052   -0.080744
      2          6           0        3.197046   -1.111198   -0.507773
      3          6           0        1.727988   -0.772565   -0.252844
      4          1           0        3.995696    0.220884    0.987073
      5          1           0        3.880589    0.929741   -0.620844
      6          1           0        3.463948   -2.028850    0.031944
      7          1           0        3.348660   -1.319516   -1.574653
      8          1           0        1.439060    0.128250   -0.803892
      9          1           0        1.555003   -0.585113    0.811834
     10          1           0        1.067992   -1.587775   -0.565409
     11          6           0        5.617038   -0.313622   -0.329289
     12          6           0        6.564893    0.807629    0.097740
     13          6           0        8.033951    0.468995   -0.157189
     14          1           0        5.881351   -1.233310    0.210810
     15          1           0        5.766243   -0.524454   -1.397106
     16          1           0        6.413279    1.015947    1.164620
     17          1           0        6.297991    1.725280   -0.441978
     18          1           0        8.206937    0.281544   -1.221867
     19          1           0        8.322879   -0.431820    0.393859
     20          1           0        8.693948    1.284206    0.155376
     21          6           0       -1.528603    0.157552    1.230104
     22          6           0       -2.101652    1.343714    0.759831
     23          6           0       -3.366942    1.333982    0.165277
     24          6           0       -4.034130    0.114814    0.056732
     25          6           0       -3.489754   -1.083687    0.515578
     26          6           0       -2.223259   -1.050233    1.106694
     27          1           0       -0.545228    0.174325    1.690631
     28          1           0       -1.564478    2.283158    0.854340
     29          1           0       -3.834020    2.237533   -0.207350
     30          1           0       -4.049517   -2.004754    0.407322
     31          1           0       -1.780679   -1.972967    1.471017
     32          7           0       -5.374273    0.091955   -0.570875
     33          8           0       -5.941566   -0.995151   -0.654647
     34          8           0       -5.832010    1.161576   -0.967139
 ---------------------------------------------------------------------

 SCF Done:  E(RHF) =  -669.535221938     A.U. after   15 cycles
 E2 =    -0.2091305994D+01 EUMP2 =    -0.67162652793167D+03

 The electronic state is 1-A.
 Alpha  occ. eigenvalues --  -20.60708 -20.60703 -15.85763 -11.31106 -11.27689
 Alpha  occ. eigenvalues --  -11.27685 -11.27380 -11.26682 -11.26672 -11.22360
 Alpha  occ. eigenvalues --  -11.22095 -11.22087 -11.22075 -11.21920 -11.21470
 Alpha  occ. eigenvalues --   -1.59785  -1.39339  -1.19283  -1.09069  -1.08674
 Alpha  occ. eigenvalues --   -1.04687  -1.04188  -0.96663  -0.95510  -0.87682
 Alpha  occ. eigenvalues --   -0.86081  -0.82353  -0.80262  -0.78863  -0.77402
 Alpha  occ. eigenvalues --   -0.71980  -0.71109  -0.70397  -0.65697  -0.64933
 Alpha  occ. eigenvalues --   -0.64691  -0.62039  -0.61587  -0.60022  -0.58267
 Alpha  occ. eigenvalues --   -0.56027  -0.55167  -0.53410  -0.53094  -0.52875
 Alpha  occ. eigenvalues --   -0.52777  -0.50594  -0.48744  -0.48736  -0.48555
 Alpha  occ. eigenvalues --   -0.47280  -0.46410  -0.46316  -0.44749  -0.44429
 Alpha  occ. eigenvalues --   -0.37219  -0.36296
 Alpha virt. eigenvalues --    0.05124   0.11325   0.16583   0.20462   0.22392
 Alpha virt. eigenvalues --    0.23842   0.25574   0.26367   0.26949   0.27409
 Alpha virt. eigenvalues --    0.28772   0.30122   0.30956   0.31460   0.32268

 Mulliken charges:
               1
     1  C   -0.298623
     2  C   -0.300686
     3  C   -0.476575
     4  H    0.147331
     5  H    0.149976
     6  H    0.152835
     7  H    0.155889
     8  H    0.158524
     9  H    0.142962
    10  H    0.163706
    11  C   -0.298668
    12  C   -0.299999
    13  C   -0.476030
    14  H    0.150268
    15  H    0.151373
    16  H    0.151546
    17  H    0.152350
    18  H    0.156159
    19  H    0.155686
    20  H    0.161386
    21  C   -0.166140
    22  C   -0.221207
    23  C   -0.170820
    24  C    0.158161
    25  C   -0.171046
    26  C   -0.220904
    27  H    0.229135
    28  H    0.223195
    29  H    0.275228
    30  H    0.275235
    31  H    0.223158
    32  N    0.488101
    33  O   -0.460759
    34  O   -0.460749
 Sum of Mulliken charges =  -0.00000

 Dipole moment (field-independent basis, Debye):
    X=              4.9031    Y=              0.0644    Z=              2.1424  Tot=              5.3511
 Quadrupole moment (field-independent basis, Debye-Ang):
   XX=           -134.3949   YY=            -89.6892   ZZ=            -94.3586
   XY=              0.5554   XZ=             -8.7460   YZ=             -0.9261

 Normal termination of Gaussian 16 at Wed May  5 23:38:15 2021.
