 Gaussian 16, Revision A.03,
 Gaussian 16:  EM64L-G16RevA.03 25-Dec-2016

 -------------
 #p 6-31g* mp2
 -------------

 ------------------------------------------------------
 Input file generated by CHIRIPA (05-May-2021 14:53:14)
 ------------------------------------------------------
 Symbolic Z-matrix:
 Charge =  0 Multiplicity = 1

                         Standard orientation:
 ---------------------------------------------------------------------
 Center     Atomic      Atomic             Coordinates (Angstroms)
 Number     Number       Type             X           Y           Z
 ---------------------------------------------------------------------
      1          6           0       -3.500242    0.216015    0.608086
      2          6           0       -2.760276   -0.810050    1.466936
      3          6           0       -1.457377   -0.262777    2.050665
      4          1           0       -2.841579    0.545712   -0.207026
      5          1           0       -3.714950    1.105931    1.215823
      6          1           0       -2.548250   -1.698326    0.858143
      7          1           0       -3.420846   -1.137486    2.279986
      8          1           0       -1.654429    0.610620    2.680705
      9          1           0       -0.776876    0.046593    1.250784
     10          1           0       -0.944725   -1.012724    2.661097
     11          6           0       -4.804695   -0.316276    0.017494
     12          6           0       -5.544661    0.709790   -0.841356
     13          6           0       -6.847561    0.162516   -1.425085
     14          1           0       -4.589988   -1.206192   -0.590243
     15          1           0       -5.463359   -0.645973    0.832606
     16          1           0       -4.884092    1.037225   -1.654406
     17          1           0       -5.756687    1.598065   -0.232563
     18          1           0       -7.528061   -0.146854   -0.625204
     19          1           0       -6.650508   -0.710880   -2.055125
     20          1           0       -7.360212    0.912463   -2.035517
     21          6           0        3.346046    2.547045    0.012675
     22          6           0        2.107756    1.899990   -0.054242
     23          6           0        2.039287    0.510894   -0.196622
     24          6           0        3.234262   -0.203288   -0.269217
     25          6           0        4.483290    0.412470   -0.205502
     26          6           0        4.527778    1.802532   -0.063035
     27          1           0        3.389919    3.626503    0.123312
     28          1           0        1.188381    2.475636    0.004294
     29          1           0        1.094134   -0.015551   -0.251034
     30          1           0        5.382630   -0.188255   -0.266617
     31          1           0        5.490865    2.302369   -0.011341
     32          7           0        3.174471   -1.674374   -0.419995
     33          8           0        4.241715   -2.280864   -0.481617
     34          8           0        2.061496   -2.193063   -0.473695
 ---------------------------------------------------------------------

 SCF Done:  E(RHF) =  -669.535385618     A.U. after   15 cycles
 E2 =    -0.2091106757D+01 EUMP2 =    -0.67162649237478D+03

 The electronic state is 1-A.
 Alpha  occ. eigenvalues --  -20.60755 -20.60750 -15.85808 -11.31167 -11.27741
 Alpha  occ. eigenvalues --  -11.27725 -11.27483 -11.26759 -11.26745 -11.21732
 Alpha  occ. eigenvalues --  -11.21719 -11.21606 -11.21483 -11.21378 -11.21148
 Alpha  occ. eigenvalues --   -1.59830  -1.39383  -1.19343  -1.08739  -1.08587
 Alpha  occ. eigenvalues --   -1.04749  -1.03684  -0.96151  -0.95574  -0.87171
 Alpha  occ. eigenvalues --   -0.86144  -0.82408  -0.79747  -0.78405  -0.77455
 Alpha  occ. eigenvalues --   -0.72028  -0.71152  -0.70465  -0.65225  -0.64997
 Alpha  occ. eigenvalues --   -0.64752  -0.62149  -0.61052  -0.59500  -0.57751
 Alpha  occ. eigenvalues --   -0.55506  -0.55207  -0.53083  -0.52882  -0.52807
 Alpha  occ. eigenvalues --   -0.52543  -0.50091  -0.48785  -0.48782  -0.48065
 Alpha  occ. eigenvalues --   -0.46771  -0.45954  -0.45858  -0.44789  -0.43932
 Alpha  occ. eigenvalues --   -0.37324  -0.36340
 Alpha virt. eigenvalues --    0.05061   0.11291   0.16545   0.20148   0.22818
 Alpha virt. eigenvalues --    0.23891   0.25721   0.26909   0.27550   0.27928
 Alpha virt. eigenvalues --    0.29155   0.30786   0.31471   0.31665   0.31937

 Mulliken charges:
               1
     1  C   -0.297538
     2  C   -0.301215
     3  C   -0.475353
     4  H    0.144538
     5  H    0.147919
     6  H    0.159302
     7  H    0.153644
     8  H    0.153299
     9  H    0.143754
    10  H    0.168172
    11  C   -0.298729
    12  C   -0.299649
    13  C   -0.475886
    14  H    0.152405
    15  H    0.150628
    16  H    0.151055
    17  H    0.150917
    18  H    0.155622
    19  H    0.156519
    20  H    0.160105
    21  C   -0.170854
    22  C   -0.219550
    23  C   -0.174934
    24  C    0.159259
    25  C   -0.170793
    26  C   -0.218609
    27  H    0.225601
    28  H    0.223933
    29  H    0.280762
    30  H    0.275534
    31  H    0.223408
    32  N    0.487709
    33  O   -0.460502
    34  O   -0.460474
 Sum of Mulliken charges =  -0.00000

 Dipole moment (field-independent basis, Debye):
    X=              0.1474    Y=              5.0934    Z=              0.5737  Tot=              5.1277
 Quadrupole moment (field-independent basis, Debye-Ang):
   XX=            -88.7170   YY=            -97.3668   ZZ=            -95.4015
   XY=             16.6197   XZ=              0.7147   YZ=             -1.4762

 Normal termination of Gaussian 16 at Thu May  6 08:59:03 2021.
