 Gaussian 16, Revision A.03,
 Gaussian 16:  EM64L-G16RevA.03 25-Dec-2016

 -------------
 #p 6-31g* mp2
 -------------

 ------------------------------------------------------
 Input file generated by CHIRIPA (05-May-2021 14:57:21)
 ------------------------------------------------------
 Symbolic Z-matrix:
 Charge =  0 Multiplicity = 1

                         Standard orientation:
 ---------------------------------------------------------------------
 Center     Atomic      Atomic             Coordinates (Angstroms)
 Number     Number       Type             X           Y           Z
 ---------------------------------------------------------------------
      1          6           0        5.474168    1.242247    0.822281
      2          6           0        5.044364    1.397591   -0.499710
      3          6           0        3.958383    0.662468   -0.984259
      4          6           0        3.322488   -0.223066   -0.115492
      5          6           0        3.727051   -0.400039    1.206741
      6          6           0        4.815301    0.345509    1.669792
      7          1           0        6.318666    1.817358    1.190340
      8          1           0        5.554148    2.093278   -1.160152
      9          1           0        3.604765    0.763141   -2.003198
     10          1           0        3.198845   -1.101242    1.841352
     11          1           0        5.146904    0.222814    2.696939
     12          7           0        2.171607   -1.006826   -0.617084
     13          8           0        1.628291   -1.780476    0.168352
     14          8           0        1.834656   -0.832647   -1.786170
     15          6           0       -2.752533   -2.312058    0.016218
     16          6           0       -3.866790   -1.935011    0.773045
     17          6           0       -4.296645   -0.604787    0.789700
     18          6           0       -3.585605    0.326492    0.034429
     19          6           0       -2.471729   -0.018117   -0.729648
     20          6           0       -2.059780   -1.354097   -0.731395
     21          1           0       -2.425566   -3.347644    0.009069
     22          1           0       -4.406717   -2.676834    1.354613
     23          1           0       -5.155988   -0.285489    1.366758
     24          1           0       -1.953805    0.743942   -1.299243
     25          1           0       -1.194090   -1.644045   -1.320085
     26          7           0       -4.031195    1.737787    0.044170
     27          8           0       -3.387628    2.539187   -0.629785
     28          8           0       -5.015579    2.015838    0.725577
 ---------------------------------------------------------------------

 SCF Done:  E(RHF) =  -868.341350005     A.U. after   16 cycles
 E2 =    -0.2598796566D+01 EUMP2 =    -0.87094014657161D+03

 The electronic state is 1-A.
 Alpha  occ. eigenvalues --  -20.61767 -20.61760 -20.59971 -20.59964 -15.86743
 Alpha  occ. eigenvalues --  -15.85008 -11.31745 -11.30103 -11.28269 -11.28261
 Alpha  occ. eigenvalues --  -11.27943 -11.27200 -11.27187 -11.26665 -11.26501
 Alpha  occ. eigenvalues --  -11.26215 -11.25663 -11.25279  -1.60810  -1.59051
 Alpha  occ. eigenvalues --   -1.40369  -1.38611  -1.19881  -1.18210  -1.09349
 Alpha  occ. eigenvalues --   -1.07646  -1.05227  -1.03542  -0.96244  -0.94541
 Alpha  occ. eigenvalues --   -0.86643  -0.84945  -0.83089  -0.81368  -0.78176
 Alpha  occ. eigenvalues --   -0.76458  -0.72977  -0.72089  -0.71235  -0.70986
 Alpha  occ. eigenvalues --   -0.70370  -0.69310  -0.65537  -0.65231  -0.63841
 Alpha  occ. eigenvalues --   -0.63489  -0.62578  -0.60877  -0.55747  -0.54041
 Alpha  occ. eigenvalues --   -0.53573  -0.53315  -0.51926  -0.51617  -0.49754
 Alpha  occ. eigenvalues --   -0.49687  -0.48005  -0.47956  -0.45847  -0.44078
 Alpha  occ. eigenvalues --   -0.37837  -0.36809  -0.36171  -0.35135
 Alpha virt. eigenvalues --    0.04322   0.06015   0.10851   0.12513   0.15901
 Alpha virt. eigenvalues --    0.17611   0.21018   0.22785   0.26956   0.27871
 Alpha virt. eigenvalues --    0.28824   0.29480   0.30626   0.32080   0.32432

 Mulliken charges:
               1
     1  C   -0.169232
     2  C   -0.218329
     3  C   -0.169860
     4  C    0.158658
     5  C   -0.169868
     6  C   -0.218440
     7  H    0.228109
     8  H    0.225926
     9  H    0.276215
    10  H    0.275637
    11  H    0.225389
    12  N    0.489412
    13  O   -0.462500
    14  O   -0.465983
    15  C   -0.171586
    16  C   -0.219090
    17  C   -0.174373
    18  C    0.157985
    19  C   -0.177008
    20  C   -0.219201
    21  H    0.226302
    22  H    0.218676
    23  H    0.270835
    24  H    0.274155
    25  H    0.247631
    26  N    0.488085
    27  O   -0.463319
    28  O   -0.464226
 Sum of Mulliken charges =  -0.00000

 Dipole moment (field-independent basis, Debye):
    X=              6.2465    Y=             -2.2937    Z=              1.6825  Tot=              6.8638
 Quadrupole moment (field-independent basis, Debye-Ang):
   XX=            -87.7994   YY=           -109.3293   ZZ=            -99.8825
   XY=             28.8259   XZ=              3.0620   YZ=             -3.8930

 Normal termination of Gaussian 16 at Thu May  6 19:29:11 2021.
