 Gaussian 16, Revision A.03,
 Gaussian 16:  EM64L-G16RevA.03 25-Dec-2016

 -------------
 #p 6-31g* mp2
 -------------

 ------------------------------------------------------
 Input file generated by CHIRIPA (05-May-2021 14:57:21)
 ------------------------------------------------------
 Symbolic Z-matrix:
 Charge =  0 Multiplicity = 1

                         Standard orientation:
 ---------------------------------------------------------------------
 Center     Atomic      Atomic             Coordinates (Angstroms)
 Number     Number       Type             X           Y           Z
 ---------------------------------------------------------------------
      1          6           0        4.354056    1.414658    0.629457
      2          6           0        4.779067    0.188574    0.107341
      3          6           0        3.847445   -0.766494   -0.310359
      4          6           0        2.492566   -0.460926   -0.191108
      5          6           0        2.037822    0.751592    0.324933
      6          6           0        2.987200    1.691765    0.736399
      7          1           0        5.084659    2.150792    0.951515
      8          1           0        5.839942   -0.029357    0.023114
      9          1           0        4.148860   -1.723680   -0.718233
     10          1           0        0.973512    0.940108    0.396514
     11          1           0        2.654237    2.643120    1.141497
     12          7           0        1.496900   -1.464130   -0.630008
     13          8           0        0.308972   -1.170669   -0.514496
     14          8           0        1.923280   -2.524906   -1.081219
     15          6           0       -3.040624   -1.963468    1.174789
     16          6           0       -3.441818   -1.730302   -0.144756
     17          6           0       -3.234101   -0.482494   -0.740052
     18          6           0       -2.619544    0.513983    0.016680
     19          6           0       -2.208602    0.312473    1.333422
     20          6           0       -2.426380   -0.943135    1.908373
     21          1           0       -3.205891   -2.935825    1.629327
     22          1           0       -3.919086   -2.520846   -0.716857
     23          1           0       -3.534789   -0.274809   -1.759792
     24          1           0       -1.735343    1.120122    1.878535
     25          1           0       -2.113770   -1.121366    2.933339
     26          7           0       -2.394318    1.839110   -0.602764
     27          8           0       -1.850776    2.700464    0.085181
     28          8           0       -2.765592    1.991300   -1.764500
 ---------------------------------------------------------------------

 SCF Done:  E(RHF) =  -868.339056474     A.U. after   16 cycles
 E2 =    -0.2601592872D+01 EUMP2 =    -0.87094064934580D+03

 The electronic state is 1-A.
 Alpha  occ. eigenvalues --  -20.60828 -20.60817 -20.60435 -20.60372 -15.85856
 Alpha  occ. eigenvalues --  -15.85416 -11.31070 -11.30317 -11.27648 -11.27564
 Alpha  occ. eigenvalues --  -11.27341 -11.26964 -11.26827 -11.26637 -11.26568
 Alpha  occ. eigenvalues --  -11.26545 -11.25893 -11.25788  -1.59901  -1.59466
 Alpha  occ. eigenvalues --   -1.39460  -1.39041  -1.19230  -1.18452  -1.08659
 Alpha  occ. eigenvalues --   -1.07956  -1.04599  -1.03847  -0.95522  -0.94875
 Alpha  occ. eigenvalues --   -0.86012  -0.85300  -0.82354  -0.81759  -0.77424
 Alpha  occ. eigenvalues --   -0.76850  -0.72128  -0.71669  -0.71217  -0.70737
 Alpha  occ. eigenvalues --   -0.70338  -0.69672  -0.64884  -0.64597  -0.64176
 Alpha  occ. eigenvalues --   -0.63927  -0.61946  -0.61265  -0.55121  -0.54414
 Alpha  occ. eigenvalues --   -0.52952  -0.52687  -0.52055  -0.52010  -0.48869
 Alpha  occ. eigenvalues --   -0.48813  -0.48446  -0.48370  -0.44909  -0.44541
 Alpha  occ. eigenvalues --   -0.37220  -0.36337  -0.36195  -0.35341
 Alpha virt. eigenvalues --    0.05068   0.05704   0.11442   0.12149   0.16611
 Alpha virt. eigenvalues --    0.17308   0.21409   0.22245   0.26801   0.27980
 Alpha virt. eigenvalues --    0.28377   0.29305   0.30863   0.31602   0.32423

 Mulliken charges:
               1
     1  C   -0.170563
     2  C   -0.218938
     3  C   -0.171203
     4  C    0.157219
     5  C   -0.172960
     6  C   -0.220279
     7  H    0.225852
     8  H    0.222706
     9  H    0.274152
    10  H    0.278796
    11  H    0.228885
    12  N    0.491277
    13  O   -0.465291
    14  O   -0.462489
    15  C   -0.164200
    16  C   -0.210713
    17  C   -0.162745
    18  C    0.169699
    19  C   -0.171630
    20  C   -0.213086
    21  H    0.223174
    22  H    0.221778
    23  H    0.272919
    24  H    0.263959
    25  H    0.217806
    26  N    0.487663
    27  O   -0.473671
    28  O   -0.458117
 Sum of Mulliken charges =  -0.00000

 Dipole moment (field-independent basis, Debye):
    X=              2.6715    Y=             -1.3260    Z=              3.5926  Tot=              4.6693
 Quadrupole moment (field-independent basis, Debye-Ang):
   XX=            -80.4176   YY=           -111.6119   ZZ=           -102.6012
   XY=             18.3162   XZ=             -1.1511   YZ=              2.0980

 Normal termination of Gaussian 16 at Wed May  5 16:14:11 2021.
