 Gaussian 16, Revision A.03,
 Gaussian 16:  EM64L-G16RevA.03 25-Dec-2016

 -------------
 #p 6-31g* mp2
 -------------

 ------------------------------------------------------
 Input file generated by CHIRIPA (05-May-2021 14:57:21)
 ------------------------------------------------------
 Symbolic Z-matrix:
 Charge =  0 Multiplicity = 1

                         Standard orientation:
 ---------------------------------------------------------------------
 Center     Atomic      Atomic             Coordinates (Angstroms)
 Number     Number       Type             X           Y           Z
 ---------------------------------------------------------------------
      1          6           0        2.147734    2.776433    0.246918
      2          6           0        1.197987    2.167007   -0.579582
      3          6           0        1.299870    0.809324   -0.897171
      4          6           0        2.369112    0.087842   -0.368516
      5          6           0        3.331305    0.666445    0.457736
      6          6           0        3.209490    2.025531    0.762031
      7          1           0        2.060847    3.831659    0.488465
      8          1           0        0.372360    2.747702   -0.981053
      9          1           0        0.578670    0.312306   -1.534558
     10          1           0        4.143232    0.061597    0.842899
     11          1           0        3.948550    2.496175    1.404159
     12          7           0        2.487521   -1.350219   -0.697696
     13          8           0        3.438894   -1.963909   -0.219251
     14          8           0        1.626715   -1.836452   -1.427921
     15          6           0       -3.899770    1.099800   -1.076151
     16          6           0       -3.605883    1.465841    0.241484
     17          6           0       -2.748305    0.684007    1.021127
     18          6           0       -2.199731   -0.462582    0.448683
     19          6           0       -2.473222   -0.853671   -0.861104
     20          6           0       -3.333500   -0.056749   -1.622277
     21          1           0       -4.567006    1.713007   -1.674623
     22          1           0       -4.044211    2.363504    0.668233
     23          1           0       -2.503743    0.944096    2.043849
     24          1           0       -2.021056   -1.754071   -1.258904
     25          1           0       -3.559951   -0.343463   -2.645293
     26          7           0       -1.290422   -1.298262    1.264280
     27          8           0       -0.819977   -2.303710    0.736651
     28          8           0       -1.065370   -0.931994    2.415729
 ---------------------------------------------------------------------

 SCF Done:  E(RHF) =  -868.336949180     A.U. after   16 cycles
 E2 =    -0.2603018960D+01 EUMP2 =    -0.87093996813967D+03

 The electronic state is 1-A.
 Alpha  occ. eigenvalues --  -20.60652 -20.60545 -20.60103 -20.60061 -15.85644
 Alpha  occ. eigenvalues --  -15.85139 -11.31306 -11.30751 -11.27933 -11.27820
 Alpha  occ. eigenvalues --  -11.27713 -11.27373 -11.27302 -11.27148 -11.27013
 Alpha  occ. eigenvalues --  -11.26954 -11.26469 -11.26399  -1.59681  -1.59124
 Alpha  occ. eigenvalues --   -1.39215  -1.38682  -1.19520  -1.18939  -1.08858
 Alpha  occ. eigenvalues --   -1.08292  -1.04945  -1.04389  -0.95634  -0.95091
 Alpha  occ. eigenvalues --   -0.86317  -0.85780  -0.82447  -0.81931  -0.77447
 Alpha  occ. eigenvalues --   -0.76932  -0.71868  -0.71386  -0.71107  -0.70586
 Alpha  occ. eigenvalues --   -0.70315  -0.70067  -0.65141  -0.64924  -0.64600
 Alpha  occ. eigenvalues --   -0.64410  -0.62251  -0.61747  -0.55429  -0.54906
 Alpha  occ. eigenvalues --   -0.53328  -0.53007  -0.52660  -0.52484  -0.48659
 Alpha  occ. eigenvalues --   -0.48603  -0.48143  -0.48104  -0.44742  -0.43806
 Alpha  occ. eigenvalues --   -0.37579  -0.36934  -0.36574  -0.35947
 Alpha virt. eigenvalues --    0.05041   0.05629   0.10937   0.11710   0.16496
 Alpha virt. eigenvalues --    0.17073   0.21239   0.21720   0.27077   0.27514
 Alpha virt. eigenvalues --    0.28117   0.28657   0.30675   0.31170   0.32292

 Mulliken charges:
               1
     1  C   -0.171477
     2  C   -0.218274
     3  C   -0.177510
     4  C    0.163749
     5  C   -0.168056
     6  C   -0.217180
     7  H    0.222513
     8  H    0.219438
     9  H    0.271864
    10  H    0.276752
    11  H    0.222673
    12  N    0.491778
    13  O   -0.459307
    14  O   -0.459042
    15  C   -0.173444
    16  C   -0.221258
    17  C   -0.171959
    18  C    0.157609
    19  C   -0.178075
    20  C   -0.221740
    21  H    0.225210
    22  H    0.222278
    23  H    0.275569
    24  H    0.287806
    25  H    0.225676
    26  N    0.485116
    27  O   -0.446833
    28  O   -0.463875
 Sum of Mulliken charges =  -0.00000

 Dipole moment (field-independent basis, Debye):
    X=             -3.5303    Y=              7.6430    Z=             -1.6637  Tot=              8.5817
 Quadrupole moment (field-independent basis, Debye-Ang):
   XX=            -90.1002   YY=           -105.5903   ZZ=           -104.8276
   XY=              6.3514   XZ=             10.3541   YZ=              3.6798

 Normal termination of Gaussian 16 at Thu May  6 03:18:42 2021.
