 Gaussian 16, Revision A.03,
 Gaussian 16:  EM64L-G16RevA.03 25-Dec-2016

 -------------
 #p 6-31g* mp2
 -------------

 ------------------------------------------------------
 Input file generated by CHIRIPA (05-May-2021 14:53:11)
 ------------------------------------------------------
 Symbolic Z-matrix:
 Charge =  0 Multiplicity = 1

                         Standard orientation:
 ---------------------------------------------------------------------
 Center     Atomic      Atomic             Coordinates (Angstroms)
 Number     Number       Type             X           Y           Z
 ---------------------------------------------------------------------
      1          6           0       -3.899388   -0.624432   -0.027723
      2          6           0       -4.699270    0.671591   -0.163736
      3          6           0       -6.037791    0.468353   -0.874265
      4          1           0       -3.725366   -1.046992   -1.026775
      5          1           0       -4.499802   -1.361580    0.523195
      6          1           0       -4.096983    1.406535   -0.713031
      7          1           0       -4.871242    1.091215    0.835742
      8          1           0       -6.660912   -0.245079   -0.325325
      9          1           0       -5.882254    0.072032   -1.882897
     10          1           0       -6.593112    1.407508   -0.960674
     11          6           0       -2.558808   -0.437460    0.680523
     12          6           0       -1.758926   -1.733482    0.816537
     13          6           0       -0.420405   -1.530245    1.527065
     14          1           0       -1.958394    0.299689    0.129605
     15          1           0       -2.732829   -0.014899    1.679575
     16          1           0       -1.586953   -2.153107   -0.182941
     17          1           0       -2.361212   -2.468426    1.365831
     18          1           0       -0.575942   -1.133924    2.535698
     19          1           0        0.202716   -0.816812    0.978125
     20          1           0        0.134916   -2.469399    1.613475
     21          6           0        1.368423    2.601372    0.247395
     22          6           0        2.489815    2.215253    0.988956
     23          6           0        3.137339    1.005892    0.719316
     24          6           0        2.634327    0.203412   -0.303570
     25          6           0        1.519179    0.560481   -1.060033
     26          6           0        0.887532    1.774212   -0.772934
     27          1           0        0.871578    3.542531    0.463640
     28          1           0        2.865490    2.855634    1.781940
     29          1           0        4.007356    0.682589    1.277853
     30          1           0        1.167968   -0.098974   -1.844373
     31          1           0        0.016840    2.071523   -1.350470
     32          7           0        3.311428   -1.079198   -0.598267
     33          8           0        2.848618   -1.768378   -1.504620
     34          8           0        4.292128   -1.371042    0.082681
 ---------------------------------------------------------------------

 SCF Done:  E(RHF) =  -669.534624002     A.U. after   15 cycles
 E2 =    -0.2093804952D+01 EUMP2 =    -0.67162842895425D+03

 The electronic state is 1-A.
 Alpha  occ. eigenvalues --  -20.60807 -20.60801 -15.85861 -11.31246 -11.27848
 Alpha  occ. eigenvalues --  -11.27834 -11.27603 -11.26879 -11.26859 -11.21982
 Alpha  occ. eigenvalues --  -11.21672 -11.21632 -11.21583 -11.21380 -11.20858
 Alpha  occ. eigenvalues --   -1.59880  -1.39433  -1.19469  -1.08837  -1.08657
 Alpha  occ. eigenvalues --   -1.04875  -1.03690  -0.96136  -0.95664  -0.87156
 Alpha  occ. eigenvalues --   -0.86255  -0.82496  -0.79775  -0.78476  -0.77537
 Alpha  occ. eigenvalues --   -0.72081  -0.71209  -0.70553  -0.65314  -0.65105
 Alpha  occ. eigenvalues --   -0.64857  -0.62211  -0.61125  -0.59509  -0.57756
 Alpha  occ. eigenvalues --   -0.55531  -0.55353  -0.53342  -0.52952  -0.52801
 Alpha  occ. eigenvalues --   -0.52422  -0.50048  -0.48843  -0.48833  -0.48050
 Alpha  occ. eigenvalues --   -0.46805  -0.45991  -0.45937  -0.44826  -0.43959
 Alpha  occ. eigenvalues --   -0.37402  -0.36416
 Alpha virt. eigenvalues --    0.04979   0.11097   0.16383   0.20725   0.22807
 Alpha virt. eigenvalues --    0.24173   0.25625   0.26857   0.27761   0.28308
 Alpha virt. eigenvalues --    0.28404   0.30774   0.31330   0.31613   0.31974

 Mulliken charges:
               1
     1  C   -0.298488
     2  C   -0.298348
     3  C   -0.475710
     4  H    0.149613
     5  H    0.151726
     6  H    0.145830
     7  H    0.152081
     8  H    0.156914
     9  H    0.155651
    10  H    0.159943
    11  C   -0.298657
    12  C   -0.299723
    13  C   -0.484113
    14  H    0.142602
    15  H    0.149165
    16  H    0.153145
    17  H    0.152954
    18  H    0.152113
    19  H    0.162200
    20  H    0.165350
    21  C   -0.171123
    22  C   -0.217291
    23  C   -0.170885
    24  C    0.163340
    25  C   -0.179994
    26  C   -0.213388
    27  H    0.226549
    28  H    0.224112
    29  H    0.276299
    30  H    0.275947
    31  H    0.224148
    32  N    0.488917
    33  O   -0.460536
    34  O   -0.460345
 Sum of Mulliken charges =  -0.00000

 Dipole moment (field-independent basis, Debye):
    X=             -2.2891    Y=              4.5088    Z=              1.0584  Tot=              5.1662
 Quadrupole moment (field-independent basis, Debye-Ang):
   XX=           -106.2368   YY=            -93.1888   ZZ=            -92.6198
   XY=             12.4942   XZ=              5.4246   YZ=             -0.4641

 Normal termination of Gaussian 16 at Wed May  5 21:43:43 2021.
