 Gaussian 16, Revision A.03,
 Gaussian 16:  EM64L-G16RevA.03 25-Dec-2016

 -------------
 #p 6-31g* mp2
 -------------

 ------------------------------------------------------
 Input file generated by CHIRIPA (05-May-2021 14:55:23)
 ------------------------------------------------------
 Symbolic Z-matrix:
 Charge =  0 Multiplicity = 1

                         Standard orientation:
 ---------------------------------------------------------------------
 Center     Atomic      Atomic             Coordinates (Angstroms)
 Number     Number       Type             X           Y           Z
 ---------------------------------------------------------------------
      1          6           0        4.491467    2.408172    0.224058
      2          6           0        5.286418    1.303153   -0.097667
      3          6           0        4.713823    0.036893   -0.250206
      4          6           0        3.336834   -0.088797   -0.073019
      5          6           0        2.518176    0.992937    0.247820
      6          6           0        3.112315    2.249817    0.395472
      7          1           0        4.944640    3.388190    0.340655
      8          1           0        6.357754    1.423167   -0.231382
      9          1           0        5.305750   -0.835538   -0.499012
     10          1           0        1.453045    0.842035    0.374875
     11          1           0        2.492482    3.106211    0.645356
     12          7           0        2.719250   -1.424365   -0.231918
     13          8           0        1.503732   -1.508700   -0.070550
     14          8           0        3.462399   -2.361558   -0.514823
     15          6           0       -5.109965    0.045548   -0.129194
     16          6           0       -5.318350    1.559741   -0.087008
     17          6           0       -6.740730    1.971553   -0.467852
     18          1           0       -5.341953   -0.322133   -1.138122
     19          1           0       -5.826469   -0.435263    0.551128
     20          1           0       -4.600740    2.037651   -0.766164
     21          1           0       -5.085655    1.923887    0.921886
     22          1           0       -7.468097    1.521632    0.215602
     23          1           0       -6.980428    1.636042   -1.482040
     24          1           0       -6.867574    3.058023   -0.431068
     25          6           0       -3.692901   -0.381728    0.249081
     26          6           0       -3.484516   -1.895922    0.206894
     27          6           0       -2.062137   -2.307734    0.587738
     28          1           0       -2.976398    0.099084   -0.431241
     29          1           0       -3.460913   -0.014047    1.258010
     30          1           0       -3.717211   -2.260067   -0.801999
     31          1           0       -4.202126   -2.373831    0.886052
     32          1           0       -1.822440   -1.972222    1.601927
     33          1           0       -1.334769   -1.857811   -0.095716
     34          1           0       -1.935292   -3.394203    0.550955
 ---------------------------------------------------------------------

 SCF Done:  E(RHF) =  -669.535768833     A.U. after   15 cycles
 E2 =    -0.2090693860D+01 EUMP2 =    -0.67162646269301D+03

 The electronic state is 1-A.
 Alpha  occ. eigenvalues --  -20.60845 -20.60837 -15.85892 -11.31240 -11.27808
 Alpha  occ. eigenvalues --  -11.27804 -11.27551 -11.26823 -11.26813 -11.21386
 Alpha  occ. eigenvalues --  -11.21013 -11.20901 -11.20871 -11.20765 -11.19755
 Alpha  occ. eigenvalues --   -1.59914  -1.39469  -1.19413  -1.08811  -1.07947
 Alpha  occ. eigenvalues --   -1.04813  -1.02945  -0.95653  -0.95357  -0.86370
 Alpha  occ. eigenvalues --   -0.86211  -0.82483  -0.79035  -0.77745  -0.77520
 Alpha  occ. eigenvalues --   -0.72116  -0.71233  -0.70522  -0.65069  -0.64816
 Alpha  occ. eigenvalues --   -0.64585  -0.62160  -0.60341  -0.58803  -0.56972
 Alpha  occ. eigenvalues --   -0.55317  -0.54639  -0.53144  -0.52905  -0.52034
 Alpha  occ. eigenvalues --   -0.51775  -0.49322  -0.48867  -0.48847  -0.47316
 Alpha  occ. eigenvalues --   -0.46086  -0.45265  -0.45184  -0.44870  -0.43211
 Alpha  occ. eigenvalues --   -0.37394  -0.36417
 Alpha virt. eigenvalues --    0.04998   0.11237   0.16488   0.21307   0.23289
 Alpha virt. eigenvalues --    0.24854   0.26952   0.27295   0.27730   0.28145
 Alpha virt. eigenvalues --    0.28947   0.30886   0.31903   0.32154   0.32618

 Mulliken charges:
               1
     1  C   -0.170742
     2  C   -0.218574
     3  C   -0.170808
     4  C    0.157613
     5  C   -0.170896
     6  C   -0.218577
     7  H    0.225791
     8  H    0.223614
     9  H    0.275749
    10  H    0.275936
    11  H    0.223779
    12  N    0.494799
    13  O   -0.465964
    14  O   -0.459642
    15  C   -0.297578
    16  C   -0.298966
    17  C   -0.475320
    18  H    0.149646
    19  H    0.149127
    20  H    0.149893
    21  H    0.150194
    22  H    0.155230
    23  H    0.155294
    24  H    0.158437
    25  C   -0.296987
    26  C   -0.300618
    27  C   -0.477740
    28  H    0.147311
    29  H    0.146602
    30  H    0.150363
    31  H    0.148087
    32  H    0.149708
    33  H    0.174732
    34  H    0.160506
 Sum of Mulliken charges =  -0.00000

 Dipole moment (field-independent basis, Debye):
    X=              2.4090    Y=              4.6439    Z=              0.5219  Tot=              5.2575
 Quadrupole moment (field-independent basis, Debye-Ang):
   XX=            -78.0314   YY=            -95.5573   ZZ=            -94.7113
   XY=             14.2690   XZ=              0.2496   YZ=              0.2435

 Normal termination of Gaussian 16 at Wed May  5 23:55:53 2021.
