 Gaussian 16, Revision A.03,
 Gaussian 16:  EM64L-G16RevA.03 25-Dec-2016

 -------------
 #p 6-31g* mp2
 -------------

 ------------------------------------------------------
 Input file generated by CHIRIPA (05-May-2021 14:55:21)
 ------------------------------------------------------
 Symbolic Z-matrix:
 Charge =  0 Multiplicity = 1

                         Standard orientation:
 ---------------------------------------------------------------------
 Center     Atomic      Atomic             Coordinates (Angstroms)
 Number     Number       Type             X           Y           Z
 ---------------------------------------------------------------------
      1          6           0        3.251391    1.151809    0.757044
      2          6           0        2.944387    1.003557   -0.599529
      3          6           0        2.156652   -0.065590   -1.036505
      4          6           0        1.690539   -0.971935   -0.085418
      5          6           0        1.979187   -0.851330    1.273047
      6          6           0        2.768663    0.225526    1.687362
      7          1           0        3.863999    1.985342    1.087696
      8          1           0        3.317908    1.721391   -1.324264
      9          1           0        1.903776   -0.204277   -2.080650
     10          1           0        1.592378   -1.583017    1.971926
     11          1           0        3.005493    0.338154    2.741531
     12          7           0        0.855678   -2.107873   -0.536030
     13          8           0        0.457244   -2.892760    0.321782
     14          8           0        0.615556   -2.191825   -1.738498
     15          6           0       -2.550367    0.284149   -0.128433
     16          6           0       -3.765007   -0.165188    0.684420
     17          6           0       -4.173737   -1.608378    0.387885
     18          1           0       -2.773563    0.177324   -1.198814
     19          1           0       -1.707107   -0.387680    0.083592
     20          1           0       -4.605327    0.508123    0.471976
     21          1           0       -3.538962   -0.057099    1.752989
     22          1           0       -3.353356   -2.296031    0.617467
     23          1           0       -4.425779   -1.727598   -0.670823
     24          1           0       -5.043970   -1.908854    0.979721
     25          6           0       -2.129657    1.724730    0.156980
     26          6           0       -0.915018    2.174066   -0.655873
     27          6           0       -0.506287    3.617257   -0.359337
     28          1           0       -2.972917    2.396560   -0.055044
     29          1           0       -1.906462    1.831555    1.227362
     30          1           0       -1.141062    2.065978   -1.724441
     31          1           0       -0.074697    1.500757   -0.443429
     32          1           0       -0.254245    3.736477    0.699371
     33          1           0       -1.326669    4.304910   -0.588920
     34          1           0        0.363945    3.917733   -0.951173
 ---------------------------------------------------------------------

 SCF Done:  E(RHF) =  -669.534735569     A.U. after   15 cycles
 E2 =    -0.2094759949D+01 EUMP2 =    -0.67162949551812D+03

 The electronic state is 1-A.
 Alpha  occ. eigenvalues --  -20.60884 -20.60874 -15.85926 -11.31285 -11.27888
 Alpha  occ. eigenvalues --  -11.27845 -11.27621 -11.26887 -11.26863 -11.21428
 Alpha  occ. eigenvalues --  -11.21220 -11.21172 -11.21117 -11.20955 -11.20312
 Alpha  occ. eigenvalues --   -1.59955  -1.39507  -1.19495  -1.08873  -1.08134
 Alpha  occ. eigenvalues --   -1.04891  -1.03223  -0.95711  -0.95675  -0.86693
 Alpha  occ. eigenvalues --   -0.86275  -0.82533  -0.79322  -0.77932  -0.77579
 Alpha  occ. eigenvalues --   -0.72146  -0.71289  -0.70579  -0.65130  -0.64874
 Alpha  occ. eigenvalues --   -0.64780  -0.62225  -0.60653  -0.59114  -0.57288
 Alpha  occ. eigenvalues --   -0.55375  -0.54970  -0.53301  -0.52965  -0.52376
 Alpha  occ. eigenvalues --   -0.52080  -0.49592  -0.48908  -0.48900  -0.47601
 Alpha  occ. eigenvalues --   -0.46322  -0.45450  -0.45368  -0.44886  -0.43485
 Alpha  occ. eigenvalues --   -0.37448  -0.36413
 Alpha virt. eigenvalues --    0.04937   0.11120   0.16389   0.21231   0.23043
 Alpha virt. eigenvalues --    0.24552   0.26598   0.27042   0.27437   0.28318
 Alpha virt. eigenvalues --    0.28401   0.30760   0.31717   0.31913   0.32302

 Mulliken charges:
               1
     1  C   -0.170353
     2  C   -0.214820
     3  C   -0.176368
     4  C    0.159739
     5  C   -0.172463
     6  C   -0.218181
     7  H    0.226566
     8  H    0.224418
     9  H    0.276598
    10  H    0.276083
    11  H    0.224037
    12  N    0.489973
    13  O   -0.461359
    14  O   -0.458409
    15  C   -0.298620
    16  C   -0.299083
    17  C   -0.478311
    18  H    0.153438
    19  H    0.148796
    20  H    0.149394
    21  H    0.148992
    22  H    0.166997
    23  H    0.156120
    24  H    0.156768
    25  C   -0.297079
    26  C   -0.308477
    27  C   -0.473090
    28  H    0.148451
    29  H    0.146677
    30  H    0.151031
    31  H    0.161260
    32  H    0.152656
    33  H    0.156041
    34  H    0.152578
 Sum of Mulliken charges =  -0.00000

 Dipole moment (field-independent basis, Debye):
    X=              3.0370    Y=              3.8293    Z=              1.5457  Tot=              5.1261
 Quadrupole moment (field-independent basis, Debye-Ang):
   XX=            -85.3017   YY=           -104.0272   ZZ=            -90.0625
   XY=              3.8575   XZ=              2.6780   YZ=             -3.9092

 Normal termination of Gaussian 16 at Wed May  5 22:14:53 2021.
