 Gaussian 16, Revision A.03,
 Gaussian 16:  EM64L-G16RevA.03 25-Dec-2016

 -------------
 #p 6-31g* mp2
 -------------

 ------------------------------------------------------
 Input file generated by CHIRIPA (05-May-2021 14:55:20)
 ------------------------------------------------------
 Symbolic Z-matrix:
 Charge =  0 Multiplicity = 1

                         Standard orientation:
 ---------------------------------------------------------------------
 Center     Atomic      Atomic             Coordinates (Angstroms)
 Number     Number       Type             X           Y           Z
 ---------------------------------------------------------------------
      1          6           0        3.355517   -2.185655    0.297944
      2          6           0        2.593976   -1.535159    1.274383
      3          6           0        2.341414   -0.163313    1.180588
      4          6           0        2.868148    0.530298    0.092128
      5          6           0        3.630553   -0.089407   -0.896808
      6          6           0        3.870466   -1.461979   -0.782630
      7          1           0        3.546800   -3.251620    0.378723
      8          1           0        2.192794   -2.094641    2.114667
      9          1           0        1.755087    0.365339    1.922320
     10          1           0        4.017141    0.495021   -1.722890
     11          1           0        4.462227   -1.964536   -1.542433
     12          7           0        2.607467    1.982994   -0.017958
     13          8           0        3.082775    2.571517   -0.986648
     14          8           0        1.932774    2.505588    0.866532
     15          6           0       -2.984465   -0.375031    0.041113
     16          6           0       -2.195251   -1.489813   -0.646191
     17          6           0       -0.712885   -1.482153   -0.271590
     18          1           0       -2.542814    0.595328   -0.224013
     19          1           0       -2.879943   -0.478973    1.129997
     20          1           0       -2.302362   -1.384618   -1.733425
     21          1           0       -2.638949   -2.457621   -0.379551
     22          1           0       -0.587812   -1.610220    0.808484
     23          1           0       -0.249313   -0.531121   -0.553084
     24          1           0       -0.167655   -2.287197   -0.774071
     25          6           0       -4.467981   -0.369612   -0.323408
     26          6           0       -5.257195    0.745170    0.363896
     27          6           0       -6.739561    0.737511   -0.010705
     28          1           0       -4.572502   -0.265670   -1.412291
     29          1           0       -4.909632   -1.339971   -0.058281
     30          1           0       -4.813497    1.712977    0.097256
     31          1           0       -5.150084    0.639975    1.451130
     32          1           0       -7.203133   -0.213522    0.270789
     33          1           0       -6.864635    0.865576   -1.090778
     34          1           0       -7.284792    1.542555    0.491777
 ---------------------------------------------------------------------

 SCF Done:  E(RHF) =  -669.534811259     A.U. after   15 cycles
 E2 =    -0.2092592071D+01 EUMP2 =    -0.67162740333003D+03

 The electronic state is 1-A.
 Alpha  occ. eigenvalues --  -20.60764 -20.60759 -15.85817 -11.31148 -11.27727
 Alpha  occ. eigenvalues --  -11.27715 -11.27474 -11.26738 -11.26722 -11.21629
 Alpha  occ. eigenvalues --  -11.21481 -11.21347 -11.21286 -11.21194 -11.20967
 Alpha  occ. eigenvalues --   -1.59842  -1.39395  -1.19335  -1.08735  -1.08388
 Alpha  occ. eigenvalues --   -1.04739  -1.03508  -0.95970  -0.95570  -0.86991
 Alpha  occ. eigenvalues --   -0.86136  -0.82406  -0.79580  -0.78193  -0.77452
 Alpha  occ. eigenvalues --   -0.72035  -0.71169  -0.70448  -0.65027  -0.64983
 Alpha  occ. eigenvalues --   -0.64742  -0.62090  -0.60910  -0.59339  -0.57589
 Alpha  occ. eigenvalues --   -0.55267  -0.55241  -0.53401  -0.52832  -0.52556
 Alpha  occ. eigenvalues --   -0.52181  -0.49917  -0.48792  -0.48791  -0.47889
 Alpha  occ. eigenvalues --   -0.46609  -0.45737  -0.45655  -0.44803  -0.43758
 Alpha  occ. eigenvalues --   -0.37294  -0.36249
 Alpha virt. eigenvalues --    0.05072   0.11307   0.16514   0.21165   0.22910
 Alpha virt. eigenvalues --    0.24225   0.26404   0.26909   0.27664   0.28176
 Alpha virt. eigenvalues --    0.28480   0.30548   0.31499   0.31878   0.32035

 Mulliken charges:
               1
     1  C   -0.171396
     2  C   -0.213403
     3  C   -0.167493
     4  C    0.158161
     5  C   -0.171453
     6  C   -0.218542
     7  H    0.225397
     8  H    0.222943
     9  H    0.275400
    10  H    0.275351
    11  H    0.223150
    12  N    0.487482
    13  O   -0.460750
    14  O   -0.460568
    15  C   -0.299057
    16  C   -0.301168
    17  C   -0.471104
    18  H    0.154881
    19  H    0.147353
    20  H    0.152639
    21  H    0.149489
    22  H    0.146081
    23  H    0.158837
    24  H    0.157259
    25  C   -0.298201
    26  C   -0.299993
    27  C   -0.475748
    28  H    0.149950
    29  H    0.148109
    30  H    0.154774
    31  H    0.151418
    32  H    0.154102
    33  H    0.155357
    34  H    0.160744
 Sum of Mulliken charges =  -0.00000

 Dipole moment (field-independent basis, Debye):
    X=              0.9562    Y=             -5.0758    Z=              0.3849  Tot=              5.1794
 Quadrupole moment (field-independent basis, Debye-Ang):
   XX=            -89.9565   YY=           -100.6390   ZZ=            -90.7372
   XY=            -14.3387   XZ=             -1.6548   YZ=             -0.9276

 Normal termination of Gaussian 16 at Thu May  6 17:28:06 2021.
