 Gaussian 16, Revision A.03,
 Gaussian 16:  EM64L-G16RevA.03 25-Dec-2016

 -------------
 #p 6-31g* mp2
 -------------

 ------------------------------------------------------
 Input file generated by CHIRIPA (05-May-2021 14:53:14)
 ------------------------------------------------------
 Symbolic Z-matrix:
 Charge =  0 Multiplicity = 1

                         Standard orientation:
 ---------------------------------------------------------------------
 Center     Atomic      Atomic             Coordinates (Angstroms)
 Number     Number       Type             X           Y           Z
 ---------------------------------------------------------------------
      1          6           0       -3.354646   -0.744238    0.121794
      2          6           0       -2.331541   -0.707562    1.257529
      3          6           0       -1.139608   -1.632544    1.009541
      4          1           0       -3.710073   -1.775397   -0.009840
      5          1           0       -2.859512   -0.461963   -0.817651
      6          1           0       -2.828773   -0.988481    2.194792
      7          1           0       -1.978651    0.323663    1.386602
      8          1           0       -0.617832   -1.350281    0.089390
      9          1           0       -1.472784   -2.669880    0.902171
     10          1           0       -0.420676   -1.590704    1.833705
     11          6           0       -4.552048    0.175274    0.355148
     12          6           0       -5.575154    0.138597   -0.780587
     13          6           0       -6.767087    1.063580   -0.532599
     14          1           0       -5.047183   -0.107001    1.294593
     15          1           0       -4.196622    1.206433    0.486782
     16          1           0       -5.928044   -0.892627   -0.909660
     17          1           0       -5.077922    0.419517   -1.717850
     18          1           0       -6.433910    2.100916   -0.425229
     19          1           0       -7.288863    0.781316    0.387552
     20          1           0       -7.486019    1.021739   -1.356763
     21          6           0        3.297259   -2.266235   -0.546581
     22          6           0        2.087645   -1.618593   -0.818453
     23          6           0        1.960592   -0.240183   -0.622514
     24          6           0        3.068375    0.462830   -0.151475
     25          6           0        4.286837   -0.153814    0.128507
     26          6           0        4.391067   -1.533071   -0.074801
     27          1           0        3.387092   -3.337346   -0.701654
     28          1           0        1.236516   -2.185438   -1.184937
     29          1           0        1.035879    0.286452   -0.824950
     30          1           0        5.117747    0.438004    0.492870
     31          1           0        5.331698   -2.033392    0.137182
     32          7           0        2.945952    1.922539    0.059858
     33          8           0        3.936719    2.519302    0.475659
     34          8           0        1.861547    2.442255   -0.194304
 ---------------------------------------------------------------------

 SCF Done:  E(RHF) =  -669.534060100     A.U. after   15 cycles
 E2 =    -0.2092398231D+01 EUMP2 =    -0.67162645833179D+03

 The electronic state is 1-A.
 Alpha  occ. eigenvalues --  -20.60761 -20.60755 -15.85813 -11.31158 -11.27715
 Alpha  occ. eigenvalues --  -11.27712 -11.27449 -11.26735 -11.26697 -11.21877
 Alpha  occ. eigenvalues --  -11.21691 -11.21659 -11.21623 -11.21483 -11.21096
 Alpha  occ. eigenvalues --   -1.59835  -1.39390  -1.19329  -1.08726  -1.08637
 Alpha  occ. eigenvalues --   -1.04748  -1.03759  -0.96243  -0.95564  -0.87271
 Alpha  occ. eigenvalues --   -0.86127  -0.82415  -0.79838  -0.78439  -0.77451
 Alpha  occ. eigenvalues --   -0.72033  -0.71158  -0.70447  -0.65291  -0.64978
 Alpha  occ. eigenvalues --   -0.64744  -0.62213  -0.61086  -0.59594  -0.57826
 Alpha  occ. eigenvalues --   -0.55587  -0.55197  -0.53203  -0.52885  -0.52812
 Alpha  occ. eigenvalues --   -0.52561  -0.50170  -0.48789  -0.48787  -0.48142
 Alpha  occ. eigenvalues --   -0.46850  -0.45984  -0.45889  -0.44799  -0.44002
 Alpha  occ. eigenvalues --   -0.37308  -0.36262
 Alpha virt. eigenvalues --    0.05072   0.11292   0.16507   0.20437   0.22745
 Alpha virt. eigenvalues --    0.24007   0.25900   0.26715   0.27485   0.28171
 Alpha virt. eigenvalues --    0.29050   0.30456   0.31370   0.31509   0.32303

 Mulliken charges:
               1
     1  C   -0.297960
     2  C   -0.302204
     3  C   -0.475524
     4  H    0.148378
     5  H    0.146433
     6  H    0.153945
     7  H    0.159216
     8  H    0.143494
     9  H    0.153239
    10  H    0.165518
    11  C   -0.299094
    12  C   -0.299853
    13  C   -0.476034
    14  H    0.150073
    15  H    0.153625
    16  H    0.150874
    17  H    0.152177
    18  H    0.157064
    19  H    0.155228
    20  H    0.160391
    21  C   -0.172196
    22  C   -0.215564
    23  C   -0.168884
    24  C    0.156988
    25  C   -0.171576
    26  C   -0.218640
    27  H    0.225556
    28  H    0.225088
    29  H    0.274836
    30  H    0.275339
    31  H    0.223238
    32  N    0.488383
    33  O   -0.460377
    34  O   -0.461180
 Sum of Mulliken charges =  -0.00000

 Dipole moment (field-independent basis, Debye):
    X=              0.3612    Y=             -5.1068    Z=             -0.6651  Tot=              5.1626
 Quadrupole moment (field-independent basis, Debye-Ang):
   XX=            -87.9922   YY=           -100.0307   ZZ=            -94.5660
   XY=            -14.9061   XZ=             -1.0084   YZ=              0.1254

 Normal termination of Gaussian 16 at Thu May  6 18:45:15 2021.
