 Gaussian 16, Revision A.03,
 Gaussian 16:  EM64L-G16RevA.03 25-Dec-2016

 -------------
 #p 6-31g* mp2
 -------------

 ------------------------------------------------------
 Input file generated by CHIRIPA (05-May-2021 14:53:15)
 ------------------------------------------------------
 Symbolic Z-matrix:
 Charge =  0 Multiplicity = 1

                         Standard orientation:
 ---------------------------------------------------------------------
 Center     Atomic      Atomic             Coordinates (Angstroms)
 Number     Number       Type             X           Y           Z
 ---------------------------------------------------------------------
      1          6           0        3.597676    0.056196   -0.081076
      2          6           0        3.477319   -1.355721    0.493370
      3          6           0        4.783554   -1.856063    1.110786
      4          1           0        4.392354    0.070099   -0.839521
      5          1           0        3.914294    0.743071    0.716013
      6          1           0        3.159685   -2.039484   -0.304247
      7          1           0        2.682706   -1.366308    1.250400
      8          1           0        5.101979   -1.197169    1.925074
      9          1           0        5.581668   -1.874169    0.361595
     10          1           0        4.674963   -2.867216    1.515308
     11          6           0        2.299968    0.570324   -0.701845
     12          6           0        2.420325    1.982242   -1.276291
     13          6           0        1.114091    2.482583   -1.893707
     14          1           0        1.983351   -0.116551   -1.498934
     15          1           0        1.505291    0.556422    0.056600
     16          1           0        3.214939    1.992828   -2.033321
     17          1           0        2.737960    2.666004   -0.478674
     18          1           0        0.315977    2.500690   -1.144516
     19          1           0        0.795666    1.823689   -2.707996
     20          1           0        1.222682    3.493736   -2.298229
     21          6           0       -1.690787    1.465572    2.056551
     22          6           0       -2.957423    1.493654    1.463790
     23          6           0       -3.307933    0.550978    0.492680
     24          6           0       -2.363028   -0.410081    0.136576
     25          6           0       -1.093057   -0.464157    0.708887
     26          6           0       -0.764280    0.488479    1.677875
     27          1           0       -1.426943    2.201733    2.810108
     28          1           0       -3.678976    2.251327    1.755916
     29          1           0       -4.281470    0.549692    0.017663
     30          1           0       -0.395025   -1.231568    0.397040
     31          1           0        0.220145    0.464256    2.136531
     32          7           0       -2.722594   -1.413321   -0.890372
     33          8           0       -1.872193   -2.249778   -1.186675
     34          8           0       -3.848013   -1.344207   -1.379546
 ---------------------------------------------------------------------

 SCF Done:  E(RHF) =  -669.534354310     A.U. after   15 cycles
 E2 =    -0.2093990813D+01 EUMP2 =    -0.67162834512360D+03

 The electronic state is 1-A.
 Alpha  occ. eigenvalues --  -20.60772 -20.60766 -15.85827 -11.31199 -11.27788
 Alpha  occ. eigenvalues --  -11.27768 -11.27555 -11.26808 -11.26798 -11.22135
 Alpha  occ. eigenvalues --  -11.21899 -11.21817 -11.21698 -11.21459 -11.21215
 Alpha  occ. eigenvalues --   -1.59846  -1.39399  -1.19400  -1.08853  -1.08780
 Alpha  occ. eigenvalues --   -1.04816  -1.03883  -0.96317  -0.95616  -0.87331
 Alpha  occ. eigenvalues --   -0.86200  -0.82472  -0.79963  -0.78718  -0.77459
 Alpha  occ. eigenvalues --   -0.72046  -0.71169  -0.70500  -0.65571  -0.65031
 Alpha  occ. eigenvalues --   -0.64782  -0.62154  -0.61290  -0.59688  -0.57927
 Alpha  occ. eigenvalues --   -0.55608  -0.55301  -0.53192  -0.52997  -0.52895
 Alpha  occ. eigenvalues --   -0.52719  -0.50259  -0.48807  -0.48797  -0.48264
 Alpha  occ. eigenvalues --   -0.47010  -0.46198  -0.46107  -0.44800  -0.44145
 Alpha  occ. eigenvalues --   -0.37382  -0.36297
 Alpha virt. eigenvalues --    0.05025   0.11194   0.16364   0.19536   0.22966
 Alpha virt. eigenvalues --    0.23847   0.25170   0.26090   0.27507   0.28160
 Alpha virt. eigenvalues --    0.30215   0.30679   0.31477   0.31562   0.31785

 Mulliken charges:
               1
     1  C   -0.297938
     2  C   -0.301022
     3  C   -0.475704
     4  H    0.153231
     5  H    0.146584
     6  H    0.158686
     7  H    0.140886
     8  H    0.154084
     9  H    0.158137
    10  H    0.162444
    11  C   -0.307727
    12  C   -0.298539
    13  C   -0.478521
    14  H    0.156235
    15  H    0.147534
    16  H    0.154028
    17  H    0.148472
    18  H    0.156046
    19  H    0.159423
    20  H    0.159940
    21  C   -0.172398
    22  C   -0.218954
    23  C   -0.170642
    24  C    0.157156
    25  C   -0.166935
    26  C   -0.221138
    27  H    0.225917
    28  H    0.223696
    29  H    0.275846
    30  H    0.279368
    31  H    0.224395
    32  N    0.488161
    33  O   -0.460301
    34  O   -0.460450
 Sum of Mulliken charges =  -0.00000

 Dipole moment (field-independent basis, Debye):
    X=              1.2799    Y=              3.4848    Z=              3.5158  Tot=              5.1130
 Quadrupole moment (field-independent basis, Debye-Ang):
   XX=            -97.0981   YY=            -97.5042   ZZ=            -93.7761
   XY=            -11.0988   XZ=             -8.9236   YZ=             -0.4944

 Normal termination of Gaussian 16 at Thu May  6 02:42:15 2021.
