 Gaussian 16, Revision A.03,
 Gaussian 16:  EM64L-G16RevA.03 25-Dec-2016

 -------------
 #p 6-31g* mp2
 -------------

 ------------------------------------------------------
 Input file generated by CHIRIPA (05-May-2021 14:51:10)
 ------------------------------------------------------
 Symbolic Z-matrix:
 Charge =  0 Multiplicity = 1

                         Standard orientation:
 ---------------------------------------------------------------------
 Center     Atomic      Atomic             Coordinates (Angstroms)
 Number     Number       Type             X           Y           Z
 ---------------------------------------------------------------------
      1          6           0        4.126367   -0.304584   -0.026623
      2          6           0        5.632978   -0.485389   -0.214823
      3          6           0        6.059888   -1.953353   -0.189830
      4          1           0        3.825229   -0.759313    0.927044
      5          1           0        3.596577   -0.854973   -0.816426
      6          1           0        6.159802    0.066314    0.574287
      7          1           0        5.930596   -0.030008   -1.168063
      8          1           0        5.560638   -2.513368   -0.987159
      9          1           0        5.791147   -2.416499    0.765092
     10          1           0        7.140632   -2.059528   -0.326132
     11          6           0        3.684164    1.157494   -0.049279
     12          6           0        2.177554    1.338300    0.138920
     13          6           0        1.750644    2.806263    0.113927
     14          1           0        4.213954    1.707884    0.740524
     15          1           0        3.985302    1.612224   -1.002947
     16          1           0        1.879936    0.882918    1.092161
     17          1           0        1.650729    0.786596   -0.650190
     18          1           0        2.019385    3.269409   -0.840994
     19          1           0        2.249894    3.366279    0.911256
     20          1           0        0.669900    2.912438    0.250230
     21          6           0       -4.476512    0.055908   -0.118368
     22          6           0       -5.858293   -0.593621   -0.036038
     23          6           0       -6.990797    0.384031   -0.351359
     24          1           0       -4.435068    0.904304    0.578376
     25          1           0       -4.333739    0.471335   -1.125558
     26          1           0       -5.997869   -1.008913    0.970275
     27          1           0       -5.896387   -1.440686   -0.732920
     28          1           0       -6.879252    0.789742   -1.362080
     29          1           0       -6.981310    1.223968    0.350792
     30          1           0       -7.969693   -0.101188   -0.286677
     31          6           0       -3.334020   -0.908818    0.194270
     32          6           0       -1.952239   -0.259290    0.111941
     33          6           0       -0.819735   -1.236941    0.427261
     34          1           0       -3.476792   -1.324245    1.201461
     35          1           0       -3.375463   -1.757214   -0.502473
     36          1           0       -1.914144    0.587776    0.808822
     37          1           0       -1.812663    0.156003   -0.894373
     38          1           0       -0.829222   -2.076879   -0.274890
     39          1           0       -0.931280   -1.642653    1.437982
     40          1           0        0.159161   -0.751723    0.362579
 ---------------------------------------------------------------------

 SCF Done:  E(RHF) =  -470.732693262     A.U. after   11 cycles
 E2 =    -0.1583118750D+01 EUMP2 =    -0.47231581201189D+03

 The electronic state is 1-A.
 Alpha  occ. eigenvalues --  -11.21640 -11.21613 -11.21579 -11.21544 -11.21428
 Alpha  occ. eigenvalues --  -11.21368 -11.21367 -11.21307 -11.21098 -11.21072
 Alpha  occ. eigenvalues --  -11.21054 -11.20865  -1.08466  -1.08383  -1.03579
 Alpha  occ. eigenvalues --   -1.03456  -0.96008  -0.95910  -0.87039  -0.86918
 Alpha  occ. eigenvalues --   -0.79684  -0.79502  -0.78286  -0.78202  -0.65093
 Alpha  occ. eigenvalues --   -0.65014  -0.60971  -0.60857  -0.59625  -0.59111
 Alpha  occ. eigenvalues --   -0.57745  -0.57370  -0.55286  -0.55202  -0.52793
 Alpha  occ. eigenvalues --   -0.52594  -0.52428  -0.52296  -0.49944  -0.49858
 Alpha  occ. eigenvalues --   -0.48116  -0.47658  -0.46661  -0.46579  -0.45808
 Alpha  occ. eigenvalues --   -0.45740  -0.45717  -0.45671  -0.43833  -0.43633
 Alpha virt. eigenvalues --    0.21781   0.23082   0.23512   0.25009   0.26369
 Alpha virt. eigenvalues --    0.26585   0.26668   0.27135   0.28101   0.29037
 Alpha virt. eigenvalues --    0.30753   0.30985   0.31361   0.31636   0.32334

 Mulliken charges:
               1
     1  C   -0.299140
     2  C   -0.299548
     3  C   -0.475722
     4  H    0.149993
     5  H    0.149795
     6  H    0.151965
     7  H    0.151946
     8  H    0.155304
     9  H    0.155345
    10  H    0.160249
    11  C   -0.297298
    12  C   -0.305481
    13  C   -0.475927
    14  H    0.149576
    15  H    0.149658
    16  H    0.154245
    17  H    0.155268
    18  H    0.155248
    19  H    0.155196
    20  H    0.161510
    21  C   -0.298215
    22  C   -0.299607
    23  C   -0.475676
    24  H    0.149449
    25  H    0.149348
    26  H    0.151883
    27  H    0.151886
    28  H    0.155123
    29  H    0.155130
    30  H    0.160172
    31  C   -0.297978
    32  C   -0.299159
    33  C   -0.485890
    34  H    0.149456
    35  H    0.149565
    36  H    0.151261
    37  H    0.151104
    38  H    0.153682
    39  H    0.153675
    40  H    0.172611
 Sum of Mulliken charges =  -0.00000

 Dipole moment (field-independent basis, Debye):
    X=              0.0645    Y=              0.0283    Z=             -0.0024  Tot=              0.0705
 Quadrupole moment (field-independent basis, Debye-Ang):
   XX=            -85.9078   YY=            -86.1384   ZZ=            -82.7806
   XY=              0.9744   XZ=             -0.0971   YZ=              0.4429

 Normal termination of Gaussian 16 at Thu May  6 05:23:06 2021.
