 Gaussian 16, Revision A.03,
 Gaussian 16:  EM64L-G16RevA.03 25-Dec-2016

 -------------
 #p 6-31g* mp2
 -------------

 ------------------------------------------------------
 Input file generated by CHIRIPA (05-May-2021 14:55:21)
 ------------------------------------------------------
 Symbolic Z-matrix:
 Charge =  0 Multiplicity = 1

                         Standard orientation:
 ---------------------------------------------------------------------
 Center     Atomic      Atomic             Coordinates (Angstroms)
 Number     Number       Type             X           Y           Z
 ---------------------------------------------------------------------
      1          6           0        0.282483   -1.951262    0.616961
      2          6           0        1.307298   -1.747922    1.546976
      3          6           0        2.433857   -0.992478    1.208278
      4          6           0        2.503150   -0.452595   -0.075083
      5          6           0        1.498626   -0.637402   -1.023802
      6          6           0        0.381244   -1.396331   -0.663203
      7          1           0       -0.589091   -2.539462    0.888576
      8          1           0        1.233292   -2.177686    2.541899
      9          1           0        3.241816   -0.819366    1.908744
     10          1           0        1.600764   -0.196315   -2.007889
     11          1           0       -0.413113   -1.552602   -1.387511
     12          7           0        3.690931    0.349004   -0.445241
     13          8           0        3.728031    0.813938   -1.582385
     14          8           0        4.562321    0.497186    0.408783
     15          6           0       -3.223252    0.222149   -0.465381
     16          6           0       -4.034969   -0.875034    0.224031
     17          6           0       -4.567966   -1.920458   -0.756172
     18          1           0       -3.850595    0.713029   -1.221967
     19          1           0       -2.383738   -0.237030   -1.005536
     20          1           0       -4.871902   -0.413798    0.763864
     21          1           0       -3.405680   -1.363233    0.979197
     22          1           0       -3.743071   -2.407359   -1.286337
     23          1           0       -5.217622   -1.452529   -1.502892
     24          1           0       -5.145208   -2.695309   -0.242114
     25          6           0       -2.683667    1.274706    0.501418
     26          6           0       -1.871949    2.371889   -0.187994
     27          6           0       -1.338952    3.417312    0.792209
     28          1           0       -3.523180    1.733884    1.041573
     29          1           0       -2.056323    0.783826    1.258004
     30          1           0       -2.501238    2.860087   -0.943160
     31          1           0       -1.035016    1.910651   -0.727828
     32          1           0       -0.689296    2.949383    1.538929
     33          1           0       -2.163849    3.904213    1.322374
     34          1           0       -0.761710    4.192163    0.278151
 ---------------------------------------------------------------------

 SCF Done:  E(RHF) =  -669.535383393     A.U. after   15 cycles
 E2 =    -0.2093301576D+01 EUMP2 =    -0.67162868496860D+03

 The electronic state is 1-A.
 Alpha  occ. eigenvalues --  -20.60834 -20.60829 -15.85889 -11.31296 -11.27870
 Alpha  occ. eigenvalues --  -11.27858 -11.27616 -11.26893 -11.26882 -11.22471
 Alpha  occ. eigenvalues --  -11.22110 -11.21968 -11.21901 -11.21830 -11.21224
 Alpha  occ. eigenvalues --   -1.59909  -1.39461  -1.19474  -1.09050  -1.08846
 Alpha  occ. eigenvalues --   -1.04882  -1.04090  -0.96534  -0.95685  -0.87550
 Alpha  occ. eigenvalues --   -0.86278  -0.82519  -0.80183  -0.78826  -0.77555
 Alpha  occ. eigenvalues --   -0.72106  -0.71232  -0.70573  -0.65798  -0.65120
 Alpha  occ. eigenvalues --   -0.64807  -0.62228  -0.61484  -0.59926  -0.58132
 Alpha  occ. eigenvalues --   -0.55859  -0.55365  -0.53236  -0.53173  -0.53036
 Alpha  occ. eigenvalues --   -0.52890  -0.50486  -0.48875  -0.48859  -0.48482
 Alpha  occ. eigenvalues --   -0.47234  -0.46351  -0.46255  -0.44857  -0.44338
 Alpha  occ. eigenvalues --   -0.37432  -0.36451
 Alpha virt. eigenvalues --    0.04943   0.11056   0.16324   0.18825   0.23097
 Alpha virt. eigenvalues --    0.23716   0.24805   0.25760   0.27476   0.28467
 Alpha virt. eigenvalues --    0.29193   0.29665   0.31144   0.31343   0.31985

 Mulliken charges:
               1
     1  C   -0.172697
     2  C   -0.218969
     3  C   -0.170650
     4  C    0.158732
     5  C   -0.172496
     6  C   -0.217532
     7  H    0.227978
     8  H    0.224143
     9  H    0.276118
    10  H    0.276417
    11  H    0.225848
    12  N    0.488111
    13  O   -0.459998
    14  O   -0.460054
    15  C   -0.300236
    16  C   -0.300898
    17  C   -0.475098
    18  H    0.152806
    19  H    0.142585
    20  H    0.156793
    21  H    0.144834
    22  H    0.147462
    23  H    0.159714
    24  H    0.162535
    25  C   -0.298092
    26  C   -0.300777
    27  C   -0.476295
    28  H    0.150721
    29  H    0.149892
    30  H    0.152126
    31  H    0.152000
    32  H    0.156199
    33  H    0.154729
    34  H    0.164047
 Sum of Mulliken charges =  -0.00000

 Dipole moment (field-independent basis, Debye):
    X=             -4.1843    Y=             -2.7448    Z=              1.3364  Tot=              5.1796
 Quadrupole moment (field-independent basis, Debye-Ang):
   XX=           -114.6843   YY=            -93.0774   ZZ=            -91.2377
   XY=             -6.5051   XZ=              5.4736   YZ=             -1.7662

 Normal termination of Gaussian 16 at Wed May  5 17:26:07 2021.
