 Gaussian 16, Revision A.03,
 Gaussian 16:  EM64L-G16RevA.03 25-Dec-2016

 -------------
 #p 6-31g* mp2
 -------------

 ------------------------------------------------------
 Input file generated by CHIRIPA (05-May-2021 14:57:24)
 ------------------------------------------------------
 Symbolic Z-matrix:
 Charge =  0 Multiplicity = 1

                         Standard orientation:
 ---------------------------------------------------------------------
 Center     Atomic      Atomic             Coordinates (Angstroms)
 Number     Number       Type             X           Y           Z
 ---------------------------------------------------------------------
      1          6           0        3.323257    2.531212    0.567838
      2          6           0        2.390412    1.578115    0.989652
      3          6           0        2.548679    0.231097    0.650473
      4          6           0        3.656455   -0.129390   -0.115144
      5          6           0        4.603112    0.796675   -0.550502
      6          6           0        4.424687    2.138144   -0.199540
      7          1           0        3.192482    3.575453    0.835897
      8          1           0        1.534066    1.880497    1.585705
      9          1           0        1.841714   -0.527522    0.963709
     10          1           0        5.446631    0.464899   -1.143645
     11          1           0        5.150741    2.876156   -0.528522
     12          7           0        3.834675   -1.552480   -0.480455
     13          8           0        4.819179   -1.844448   -1.155838
     14          8           0        2.986484   -2.348983   -0.084485
     15          6           0       -1.515880   -1.095507    1.018236
     16          6           0       -2.675766   -1.872114    0.928423
     17          6           0       -3.851241   -1.333792    0.396432
     18          6           0       -3.831186   -0.009409   -0.038191
     19          6           0       -2.691550    0.789785    0.038029
     20          6           0       -1.527454    0.230627    0.573536
     21          1           0       -0.607161   -1.521781    1.432867
     22          1           0       -2.669698   -2.902296    1.273002
     23          1           0       -4.763292   -1.912568    0.315197
     24          1           0       -2.728381    1.813676   -0.313693
     25          1           0       -0.628149    0.836104    0.642061
     26          7           0       -5.069586    0.571518   -0.603249
     27          8           0       -5.025929    1.740871   -0.979205
     28          8           0       -6.060452   -0.153506   -0.659485
 ---------------------------------------------------------------------

 SCF Done:  E(RHF) =  -868.336722699     A.U. after   16 cycles
 E2 =    -0.2600816343D+01 EUMP2 =    -0.87093753904167D+03

 The electronic state is 1-A.
 Alpha  occ. eigenvalues --  -20.61606 -20.61578 -20.60935 -20.60923 -15.86654
 Alpha  occ. eigenvalues --  -15.85988 -11.32113 -11.31395 -11.28836 -11.28633
 Alpha  occ. eigenvalues --  -11.28408 -11.28028 -11.27940 -11.27810 -11.27764
 Alpha  occ. eigenvalues --  -11.27626 -11.27101 -11.26937  -1.60663  -1.60006
 Alpha  occ. eigenvalues --   -1.40218  -1.39559  -1.20296  -1.19583  -1.09652
 Alpha  occ. eigenvalues --   -1.08978  -1.05742  -1.04999  -0.96481  -0.95801
 Alpha  occ. eigenvalues --   -0.87114  -0.86417  -0.83335  -0.82635  -0.78394
 Alpha  occ. eigenvalues --   -0.77664  -0.72874  -0.72209  -0.71983  -0.71416
 Alpha  occ. eigenvalues --   -0.71329  -0.70691  -0.65969  -0.65759  -0.65251
 Alpha  occ. eigenvalues --   -0.65066  -0.63106  -0.62293  -0.56178  -0.55536
 Alpha  occ. eigenvalues --   -0.54033  -0.53837  -0.53305  -0.53068  -0.49639
 Alpha  occ. eigenvalues --   -0.49616  -0.48969  -0.48958  -0.45603  -0.44955
 Alpha  occ. eigenvalues --   -0.38232  -0.37575  -0.37315  -0.36590
 Alpha virt. eigenvalues --    0.04165   0.04879   0.10286   0.11049   0.15466
 Alpha virt. eigenvalues --    0.16323   0.18040   0.22243   0.24781   0.25249
 Alpha virt. eigenvalues --    0.27692   0.29012   0.30497   0.31318   0.33194

 Mulliken charges:
               1
     1  C   -0.169573
     2  C   -0.225022
     3  C   -0.171855
     4  C    0.158804
     5  C   -0.168286
     6  C   -0.218172
     7  H    0.229540
     8  H    0.220547
     9  H    0.271527
    10  H    0.279010
    11  H    0.227639
    12  N    0.488076
    13  O   -0.455861
    14  O   -0.463736
    15  C   -0.173666
    16  C   -0.217768
    17  C   -0.170099
    18  C    0.158906
    19  C   -0.171549
    20  C   -0.222437
    21  H    0.228825
    22  H    0.227662
    23  H    0.277115
    24  H    0.274918
    25  H    0.217412
    26  N    0.488107
    27  O   -0.461005
    28  O   -0.459059
 Sum of Mulliken charges =  -0.00000

 Dipole moment (field-independent basis, Debye):
    X=              3.9446    Y=              2.9342    Z=              3.1589  Tot=              5.8436
 Quadrupole moment (field-independent basis, Debye-Ang):
   XX=           -136.9421   YY=           -102.2321   ZZ=           -105.4726
   XY=             30.6586   XZ=             -6.1356   YZ=             -2.1580

 Normal termination of Gaussian 16 at Thu May  6 11:20:27 2021.
