 Gaussian 16, Revision A.03,
 Gaussian 16:  EM64L-G16RevA.03 25-Dec-2016

 -------------
 #p 6-31g* mp2
 -------------

 ------------------------------------------------------
 Input file generated by CHIRIPA (05-May-2021 14:57:25)
 ------------------------------------------------------
 Symbolic Z-matrix:
 Charge =  0 Multiplicity = 1

                         Standard orientation:
 ---------------------------------------------------------------------
 Center     Atomic      Atomic             Coordinates (Angstroms)
 Number     Number       Type             X           Y           Z
 ---------------------------------------------------------------------
      1          6           0        3.080136    1.253059   -1.298565
      2          6           0        2.697066    1.563274    0.010459
      3          6           0        2.064854    0.607030    0.810743
      4          6           0        1.830137   -0.655144    0.267498
      5          6           0        2.199866   -0.994594   -1.033027
      6          6           0        2.830753   -0.022636   -1.815219
      7          1           0        3.570740    2.001996   -1.913218
      8          1           0        2.889469    2.553178    0.414335
      9          1           0        1.757763    0.820385    1.827401
     10          1           0        1.994669   -1.989988   -1.407865
     11          1           0        3.127147   -0.266362   -2.831484
     12          7           0        1.161544   -1.675794    1.105146
     13          8           0        0.966072   -2.780504    0.603106
     14          8           0        0.845632   -1.351745    2.247875
     15          6           0       -1.141896    2.524102    1.126880
     16          6           0       -1.199832    2.541650   -0.270566
     17          6           0       -1.640611    1.418656   -0.977070
     18          6           0       -2.017520    0.289982   -0.250900
     19          6           0       -1.971015    0.241630    1.141505
     20          6           0       -1.526994    1.376173    1.827221
     21          1           0       -0.798231    3.400957    1.667636
     22          1           0       -0.901387    3.431758   -0.817087
     23          1           0       -1.695361    1.405003   -2.058844
     24          1           0       -2.275121   -0.660327    1.658622
     25          1           0       -1.483039    1.359690    2.912505
     26          7           0       -2.485868   -0.904994   -0.987841
     27          8           0       -2.812352   -1.886987   -0.324714
     28          8           0       -2.517608   -0.836998   -2.214628
 ---------------------------------------------------------------------

 SCF Done:  E(RHF) =  -868.337030337     A.U. after   16 cycles
 E2 =    -0.2605581873D+01 EUMP2 =    -0.87094261221013D+03

 The electronic state is 1-A.
 Alpha  occ. eigenvalues --  -20.60943 -20.60853 -20.60454 -20.60377 -15.85920
 Alpha  occ. eigenvalues --  -15.85472 -11.31274 -11.30956 -11.27915 -11.27815
 Alpha  occ. eigenvalues --  -11.27650 -11.27599 -11.27406 -11.27381 -11.26938
 Alpha  occ. eigenvalues --  -11.26835 -11.26672 -11.26501  -1.59960  -1.59494
 Alpha  occ. eigenvalues --   -1.39516  -1.39039  -1.19480  -1.19151  -1.08877
 Alpha  occ. eigenvalues --   -1.08560  -1.04874  -1.04541  -0.95709  -0.95357
 Alpha  occ. eigenvalues --   -0.86286  -0.85956  -0.82554  -0.82152  -0.77594
 Alpha  occ. eigenvalues --   -0.77164  -0.72162  -0.71689  -0.71386  -0.70754
 Alpha  occ. eigenvalues --   -0.70602  -0.70272  -0.65134  -0.64904  -0.64796
 Alpha  occ. eigenvalues --   -0.64549  -0.62236  -0.61859  -0.55413  -0.55122
 Alpha  occ. eigenvalues --   -0.53700  -0.52993  -0.52629  -0.52407  -0.48929
 Alpha  occ. eigenvalues --   -0.48897  -0.48467  -0.48426  -0.44929  -0.44404
 Alpha  occ. eigenvalues --   -0.37700  -0.37305  -0.36194  -0.35986
 Alpha virt. eigenvalues --    0.04922   0.05350   0.10952   0.11643   0.16285
 Alpha virt. eigenvalues --    0.16905   0.20928   0.21826   0.26944   0.27336
 Alpha virt. eigenvalues --    0.28344   0.28642   0.30691   0.31141   0.32276

 Mulliken charges:
               1
     1  C   -0.172206
     2  C   -0.219463
     3  C   -0.161383
     4  C    0.155750
     5  C   -0.170270
     6  C   -0.219052
     7  H    0.224157
     8  H    0.217699
     9  H    0.269720
    10  H    0.280395
    11  H    0.225315
    12  N    0.487074
    13  O   -0.450302
    14  O   -0.468161
    15  C   -0.177847
    16  C   -0.215392
    17  C   -0.170210
    18  C    0.151315
    19  C   -0.167214
    20  C   -0.217698
    21  H    0.220533
    22  H    0.218232
    23  H    0.273017
    24  H    0.286940
    25  H    0.227838
    26  N    0.487727
    27  O   -0.450927
    28  O   -0.465589
 Sum of Mulliken charges =  -0.00000

 Dipole moment (field-independent basis, Debye):
    X=              3.8992    Y=              7.4119    Z=             -0.2934  Tot=              8.3801
 Quadrupole moment (field-independent basis, Debye-Ang):
   XX=           -104.2531   YY=           -104.8373   ZZ=           -101.6423
   XY=             -2.6782   XZ=            -12.0496   YZ=              3.0632

 Normal termination of Gaussian 16 at Fri May  7 03:30:43 2021.
