 Gaussian 16, Revision A.03,
 Gaussian 16:  EM64L-G16RevA.03 25-Dec-2016

 -------------
 #p 6-31g* mp2
 -------------

 ------------------------------------------------------
 Input file generated by CHIRIPA (05-May-2021 14:55:22)
 ------------------------------------------------------
 Symbolic Z-matrix:
 Charge =  0 Multiplicity = 1

                         Standard orientation:
 ---------------------------------------------------------------------
 Center     Atomic      Atomic             Coordinates (Angstroms)
 Number     Number       Type             X           Y           Z
 ---------------------------------------------------------------------
      1          6           0       -2.016249    1.732429    0.554133
      2          6           0       -3.097643    2.143562   -0.232046
      3          6           0       -4.137319    1.257218   -0.528720
      4          6           0       -4.062980   -0.038725   -0.020493
      5          6           0       -2.998932   -0.478216    0.765598
      6          6           0       -1.970426    0.425156    1.049572
      7          1           0       -1.212943    2.427576    0.779663
      8          1           0       -3.135883    3.158204   -0.618162
      9          1           0       -4.986296    1.549149   -1.134882
     10          1           0       -2.988766   -1.496020    1.136260
     11          1           0       -1.131838    0.103102    1.660388
     12          7           0       -5.157726   -0.986072   -0.327847
     13          8           0       -5.068632   -2.122431    0.131922
     14          8           0       -6.084152   -0.574305   -1.022699
     15          6           0        4.311860    0.237872   -0.031100
     16          6           0        3.102249   -0.625774    0.327986
     17          6           0        1.793649    0.164946    0.338860
     18          1           0        4.388510    1.066622    0.686006
     19          1           0        4.148925    0.692592   -1.018055
     20          1           0        3.268024   -1.079832    1.313362
     21          1           0        3.028582   -1.452674   -0.389944
     22          1           0        1.601360    0.605165   -0.644925
     23          1           0        1.842164    0.980125    1.068059
     24          1           0        0.941989   -0.471769    0.597955
     25          6           0        5.627475   -0.538438   -0.046114
     26          6           0        6.837085    0.325208   -0.405202
     27          6           0        8.145686   -0.465513   -0.416075
     28          1           0        5.790409   -0.993158    0.940839
     29          1           0        5.550824   -1.367189   -0.763222
     30          1           0        6.910753    1.152107    0.312729
     31          1           0        6.671310    0.779266   -1.390578
     32          1           0        8.097170   -1.280691   -1.145275
     33          1           0        8.337974   -0.905731    0.567710
     34          1           0        8.997345    0.171203   -0.675171
 ---------------------------------------------------------------------

 SCF Done:  E(RHF) =  -669.535280021     A.U. after   15 cycles
 E2 =    -0.2091215446D+01 EUMP2 =    -0.67162649546705D+03

 The electronic state is 1-A.
 Alpha  occ. eigenvalues --  -20.60724 -20.60718 -15.85776 -11.31131 -11.27701
 Alpha  occ. eigenvalues --  -11.27690 -11.27422 -11.26711 -11.26664 -11.22323
 Alpha  occ. eigenvalues --  -11.22070 -11.22002 -11.21982 -11.21835 -11.21396
 Alpha  occ. eigenvalues --   -1.59799  -1.39353  -1.19301  -1.08992  -1.08693
 Alpha  occ. eigenvalues --   -1.04707  -1.04125  -0.96601  -0.95530  -0.87636
 Alpha  occ. eigenvalues --   -0.86092  -0.82367  -0.80201  -0.78776  -0.77419
 Alpha  occ. eigenvalues --   -0.71995  -0.71122  -0.70398  -0.65617  -0.64950
 Alpha  occ. eigenvalues --   -0.64740  -0.62098  -0.61515  -0.59960  -0.58193
 Alpha  occ. eigenvalues --   -0.55881  -0.55194  -0.53490  -0.53047  -0.52973
 Alpha  occ. eigenvalues --   -0.52620  -0.50532  -0.48754  -0.48751  -0.48506
 Alpha  occ. eigenvalues --   -0.47211  -0.46328  -0.46229  -0.44762  -0.44368
 Alpha  occ. eigenvalues --   -0.37261  -0.36294
 Alpha virt. eigenvalues --    0.05110   0.11271   0.16561   0.20594   0.22456
 Alpha virt. eigenvalues --    0.23867   0.26015   0.26344   0.26650   0.27655
 Alpha virt. eigenvalues --    0.28946   0.29838   0.30907   0.31607   0.32207

 Mulliken charges:
               1
     1  C   -0.171233
     2  C   -0.218902
     3  C   -0.171011
     4  C    0.158580
     5  C   -0.172658
     6  C   -0.217311
     7  H    0.226672
     8  H    0.223127
     9  H    0.275347
    10  H    0.275145
    11  H    0.226006
    12  N    0.488108
    13  O   -0.460629
    14  O   -0.460635
    15  C   -0.299045
    16  C   -0.299751
    17  C   -0.480098
    18  H    0.148910
    19  H    0.150394
    20  H    0.152728
    21  H    0.155893
    22  H    0.159308
    23  H    0.149196
    24  H    0.158137
    25  C   -0.298793
    26  C   -0.299982
    27  C   -0.476011
    28  H    0.150192
    29  H    0.151193
    30  H    0.151798
    31  H    0.152387
    32  H    0.156071
    33  H    0.155643
    34  H    0.161225
 Sum of Mulliken charges =  -0.00000

 Dipole moment (field-independent basis, Debye):
    X=              4.0316    Y=              3.3255    Z=              1.0346  Tot=              5.3275
 Quadrupole moment (field-independent basis, Debye-Ang):
   XX=           -126.1573   YY=            -92.9681   ZZ=            -93.0809
   XY=            -15.3888   XZ=             -2.9977   YZ=             -2.1087

 Normal termination of Gaussian 16 at Wed May  5 23:53:36 2021.
