 Gaussian 16, Revision A.03,
 Gaussian 16:  EM64L-G16RevA.03 25-Dec-2016

 -------------
 #p 6-31g* mp2
 -------------

 ------------------------------------------------------
 Input file generated by CHIRIPA (05-May-2021 14:51:12)
 ------------------------------------------------------
 Symbolic Z-matrix:
 Charge =  0 Multiplicity = 1

                         Standard orientation:
 ---------------------------------------------------------------------
 Center     Atomic      Atomic             Coordinates (Angstroms)
 Number     Number       Type             X           Y           Z
 ---------------------------------------------------------------------
      1          6           0        2.519558    0.966710    0.287274
      2          6           0        3.146883    2.339212    0.040928
      3          6           0        2.462214    3.453017    0.833683
      4          1           0        1.453872    1.004954    0.023086
      5          1           0        2.567427    0.736742    1.360688
      6          1           0        3.099091    2.565919   -1.031889
      7          1           0        4.211243    2.297644    0.305552
      8          1           0        2.522086    3.253642    1.908516
      9          1           0        1.403615    3.523441    0.563476
     10          1           0        2.926535    4.425525    0.642648
     11          6           0        3.193159   -0.157077   -0.498279
     12          6           0        2.565834   -1.529579   -0.251934
     13          6           0        3.250503   -2.643385   -1.044688
     14          1           0        3.145289    0.072891   -1.571694
     15          1           0        4.258845   -0.195321   -0.234092
     16          1           0        1.501474   -1.488011   -0.516557
     17          1           0        2.613626   -1.756286    0.820883
     18          1           0        4.309101   -2.713808   -0.774482
     19          1           0        3.190630   -2.444009   -2.119521
     20          1           0        2.786181   -3.615892   -0.853654
     21          6           0       -3.419295   -0.070531   -0.287928
     22          6           0       -3.446346    1.450515   -0.134066
     23          6           0       -4.578070    2.104863   -0.927050
     24          1           0       -3.317032   -0.323283   -1.352168
     25          1           0       -4.383787   -0.482461    0.039889
     26          1           0       -2.481594    1.859329   -0.460776
     27          1           0       -3.548364    1.699677    0.929948
     28          1           0       -5.550051    1.724824   -0.596254
     29          1           0       -4.477220    1.885384   -1.994879
     30          1           0       -4.578811    3.192254   -0.802789
     31          6           0       -2.293422   -0.739102    0.498934
     32          6           0       -2.266370   -2.260147    0.345072
     33          6           0       -1.134646   -2.914496    1.138055
     34          1           0       -1.328930   -0.327173    0.171117
     35          1           0       -2.395684   -0.486350    1.563173
     36          1           0       -2.164352   -2.509310   -0.718942
     37          1           0       -3.231123   -2.668962    0.671781
     38          1           0       -1.235497   -2.695016    2.205885
     39          1           0       -0.162666   -2.534458    0.807260
     40          1           0       -1.133905   -4.001887    1.013794
 ---------------------------------------------------------------------

 SCF Done:  E(RHF) =  -470.733169396     A.U. after   11 cycles
 E2 =    -0.1583359926D+01 EUMP2 =    -0.47231652932191D+03

 The electronic state is 1-A.
 Alpha  occ. eigenvalues --  -11.21662 -11.21631 -11.21617 -11.21571 -11.21451
 Alpha  occ. eigenvalues --  -11.21407 -11.21391 -11.21347 -11.21112 -11.21085
 Alpha  occ. eigenvalues --  -11.21082 -11.20944  -1.08483  -1.08420  -1.03584
 Alpha  occ. eigenvalues --   -1.03500  -0.96022  -0.95950  -0.87039  -0.86966
 Alpha  occ. eigenvalues --   -0.79703  -0.79526  -0.78353  -0.78179  -0.65178
 Alpha  occ. eigenvalues --   -0.64994  -0.61053  -0.60848  -0.59405  -0.59310
 Alpha  occ. eigenvalues --   -0.57692  -0.57514  -0.55336  -0.55205  -0.52711
 Alpha  occ. eigenvalues --   -0.52647  -0.52466  -0.52353  -0.50008  -0.49874
 Alpha  occ. eigenvalues --   -0.48108  -0.47755  -0.46777  -0.46544  -0.46082
 Alpha  occ. eigenvalues --   -0.45774  -0.45743  -0.45333  -0.43822  -0.43769
 Alpha virt. eigenvalues --    0.20274   0.23201   0.23422   0.24454   0.25258
 Alpha virt. eigenvalues --    0.26534   0.27108   0.27298   0.28511   0.29890
 Alpha virt. eigenvalues --    0.30527   0.31134   0.31755   0.31784   0.32008

 Mulliken charges:
               1
     1  C   -0.300445
     2  C   -0.299693
     3  C   -0.475693
     4  H    0.150807
     5  H    0.150155
     6  H    0.151831
     7  H    0.152169
     8  H    0.155405
     9  H    0.155300
    10  H    0.160308
    11  C   -0.297503
    12  C   -0.305167
    13  C   -0.476161
    14  H    0.149375
    15  H    0.150041
    16  H    0.155262
    17  H    0.153401
    18  H    0.155609
    19  H    0.155104
    20  H    0.161255
    21  C   -0.298242
    22  C   -0.299397
    23  C   -0.475711
    24  H    0.149391
    25  H    0.149803
    26  H    0.150996
    27  H    0.152263
    28  H    0.155319
    29  H    0.155092
    30  H    0.160311
    31  C   -0.301329
    32  C   -0.299146
    33  C   -0.484307
    34  H    0.151140
    35  H    0.150108
    36  H    0.151151
    37  H    0.151848
    38  H    0.154593
    39  H    0.165403
    40  H    0.159352
 Sum of Mulliken charges =  -0.00000

 Dipole moment (field-independent basis, Debye):
    X=              0.0474    Y=              0.0069    Z=              0.0081  Tot=              0.0486
 Quadrupole moment (field-independent basis, Debye-Ang):
   XX=            -84.6427   YY=            -86.0237   ZZ=            -84.0424
   XY=              0.6870   XZ=             -0.1781   YZ=             -0.2978

 Normal termination of Gaussian 16 at Thu May  6 00:42:53 2021.
