 Gaussian 16, Revision A.03,
 Gaussian 16:  EM64L-G16RevA.03 25-Dec-2016

 -------------
 #p 6-31g* mp2
 -------------

 ------------------------------------------------------
 Input file generated by CHIRIPA (05-May-2021 14:55:19)
 ------------------------------------------------------
 Symbolic Z-matrix:
 Charge =  0 Multiplicity = 1

                         Standard orientation:
 ---------------------------------------------------------------------
 Center     Atomic      Atomic             Coordinates (Angstroms)
 Number     Number       Type             X           Y           Z
 ---------------------------------------------------------------------
      1          6           0       -1.282153    2.140396   -0.470184
      2          6           0       -2.250816    2.147338    0.538857
      3          6           0       -3.148672    1.083571    0.668481
      4          6           0       -3.049009    0.024294   -0.232235
      5          6           0       -2.094972   -0.011729   -1.248013
      6          6           0       -1.207454    1.062785   -1.358832
      7          1           0       -0.588692    2.970930   -0.563575
      8          1           0       -2.311162    2.982895    1.230411
      9          1           0       -3.908343    1.063262    1.440431
     10          1           0       -2.059412   -0.858662   -1.922444
     11          1           0       -0.456201    1.054702   -2.143433
     12          7           0       -3.994057   -1.107557   -0.104962
     13          8           0       -3.885487   -2.028954   -0.911111
     14          8           0       -4.825461   -1.051872    0.798533
     15          6           0        3.173642   -0.424360    0.852276
     16          6           0        1.754599   -0.063895    0.411402
     17          6           0        0.706034   -0.378805    1.478706
     18          1           0        3.212620   -1.493393    1.102463
     19          1           0        3.413171    0.121602    1.775285
     20          1           0        1.518323   -0.609316   -0.511260
     21          1           0        1.719042    1.004363    0.162053
     22          1           0        0.914172    0.176584    2.398935
     23          1           0        0.712313   -1.446264    1.721797
     24          1           0       -0.301161   -0.113307    1.142656
     25          6           0        4.233089   -0.115382   -0.204054
     26          6           0        5.652131   -0.475847    0.236819
     27          6           0        6.700696   -0.160937   -0.830485
     28          1           0        3.993559   -0.661345   -1.127064
     29          1           0        4.194111    0.953651   -0.454241
     30          1           0        5.687688   -1.544106    0.486169
     31          1           0        5.888407    0.069574    1.159481
     32          1           0        6.694417    0.906522   -1.073576
     33          1           0        6.492557   -0.716327   -1.750714
     34          1           0        7.707891   -0.426436   -0.494434
 ---------------------------------------------------------------------

 SCF Done:  E(RHF) =  -669.533955068     A.U. after   15 cycles
 E2 =    -0.2094934699D+01 EUMP2 =    -0.67162888976734D+03

 The electronic state is 1-A.
 Alpha  occ. eigenvalues --  -20.60826 -20.60820 -15.85880 -11.31293 -11.27848
 Alpha  occ. eigenvalues --  -11.27816 -11.27544 -11.26864 -11.26809 -11.22008
 Alpha  occ. eigenvalues --  -11.21923 -11.21783 -11.21694 -11.21377 -11.21079
 Alpha  occ. eigenvalues --   -1.59900  -1.39451  -1.19477  -1.08873  -1.08749
 Alpha  occ. eigenvalues --   -1.04861  -1.03824  -0.96250  -0.95668  -0.87269
 Alpha  occ. eigenvalues --   -0.86242  -0.82492  -0.79917  -0.78619  -0.77536
 Alpha  occ. eigenvalues --   -0.72094  -0.71226  -0.70542  -0.65418  -0.65091
 Alpha  occ. eigenvalues --   -0.64838  -0.62192  -0.61236  -0.59774  -0.58032
 Alpha  occ. eigenvalues --   -0.55543  -0.55333  -0.53839  -0.52934  -0.52782
 Alpha  occ. eigenvalues --   -0.51866  -0.50197  -0.48859  -0.48848  -0.48197
 Alpha  occ. eigenvalues --   -0.46965  -0.46151  -0.46085  -0.44846  -0.44058
 Alpha  occ. eigenvalues --   -0.37411  -0.36447
 Alpha virt. eigenvalues --    0.04961   0.11163   0.16394   0.20821   0.22673
 Alpha virt. eigenvalues --    0.24226   0.25934   0.26338   0.27774   0.27837
 Alpha virt. eigenvalues --    0.28398   0.30400   0.31517   0.31691   0.31955

 Mulliken charges:
               1
     1  C   -0.170831
     2  C   -0.217657
     3  C   -0.172894
     4  C    0.159967
     5  C   -0.174476
     6  C   -0.213396
     7  H    0.225960
     8  H    0.224215
     9  H    0.276316
    10  H    0.275941
    11  H    0.225195
    12  N    0.488231
    13  O   -0.460055
    14  O   -0.459988
    15  C   -0.298648
    16  C   -0.295510
    17  C   -0.482242
    18  H    0.152377
    19  H    0.149677
    20  H    0.147202
    21  H    0.141427
    22  H    0.151554
    23  H    0.156709
    24  H    0.172724
    25  C   -0.297919
    26  C   -0.299769
    27  C   -0.475818
    28  H    0.148564
    29  H    0.146198
    30  H    0.153610
    31  H    0.152301
    32  H    0.154182
    33  H    0.155322
    34  H    0.161532
 Sum of Mulliken charges =  -0.00000

 Dipole moment (field-independent basis, Debye):
    X=              3.2411    Y=              3.9826    Z=             -0.4502  Tot=              5.1544
 Quadrupole moment (field-independent basis, Debye-Ang):
   XX=           -115.4440   YY=            -93.1795   ZZ=            -92.1529
   XY=            -13.4876   XZ=             -0.7169   YZ=              1.5791

 Normal termination of Gaussian 16 at Thu May  6 17:24:34 2021.
