 Gaussian 16, Revision A.03,
 Gaussian 16:  EM64L-G16RevA.03 25-Dec-2016

 -------------
 #p 6-31g* mp2
 -------------

 ------------------------------------------------------
 Input file generated by CHIRIPA (05-May-2021 14:57:20)
 ------------------------------------------------------
 Symbolic Z-matrix:
 Charge =  0 Multiplicity = 1

                         Standard orientation:
 ---------------------------------------------------------------------
 Center     Atomic      Atomic             Coordinates (Angstroms)
 Number     Number       Type             X           Y           Z
 ---------------------------------------------------------------------
      1          6           0       -2.780652    2.346988   -1.101104
      2          6           0       -1.642556    1.903493   -0.419510
      3          6           0       -1.618855    0.638235    0.174718
      4          6           0       -2.755940   -0.161028    0.067456
      5          6           0       -3.904975    0.252475   -0.604871
      6          6           0       -3.906245    1.521519   -1.191450
      7          1           0       -2.790351    3.331341   -1.559744
      8          1           0       -0.766960    2.542420   -0.347751
      9          1           0       -0.751122    0.269871    0.708352
     10          1           0       -4.762581   -0.407021   -0.659593
     11          1           0       -4.791504    1.863320   -1.720159
     12          7           0       -2.742723   -1.502504    0.692490
     13          8           0       -3.757356   -2.187590    0.583800
     14          8           0       -1.717980   -1.843466    1.279247
     15          6           0        2.615577    2.004533    1.478833
     16          6           0        1.891381    0.858432    1.823088
     17          6           0        1.962793   -0.291212    1.030770
     18          6           0        2.771900   -0.259661   -0.103974
     19          6           0        3.505415    0.866755   -0.473340
     20          6           0        3.418867    2.005037    0.333736
     21          1           0        2.554224    2.893191    2.100058
     22          1           0        1.266725    0.855169    2.711817
     23          1           0        1.412717   -1.192138    1.274005
     24          1           0        4.119557    0.839747   -1.365258
     25          1           0        3.982396    2.893683    0.063944
     26          7           0        2.855511   -1.470722   -0.950578
     27          8           0        3.575550   -1.417379   -1.945232
     28          8           0        2.199425   -2.450365   -0.603462
 ---------------------------------------------------------------------

 SCF Done:  E(RHF) =  -868.337413907     A.U. after   16 cycles
 E2 =    -0.2602520389D+01 EUMP2 =    -0.87093993429601D+03

 The electronic state is 1-A.
 Alpha  occ. eigenvalues --  -20.60916 -20.60901 -20.60829 -20.60781 -15.85953
 Alpha  occ. eigenvalues --  -15.85870 -11.31515 -11.31263 -11.28154 -11.27997
 Alpha  occ. eigenvalues --  -11.27971 -11.27831 -11.27781 -11.27599 -11.27225
 Alpha  occ. eigenvalues --  -11.27187 -11.26860 -11.26849  -1.59963  -1.59885
 Alpha  occ. eigenvalues --   -1.39527  -1.39424  -1.19756  -1.19442  -1.09090
 Alpha  occ. eigenvalues --   -1.08852  -1.05207  -1.04827  -0.95870  -0.95688
 Alpha  occ. eigenvalues --   -0.86540  -0.86256  -0.82685  -0.82530  -0.77749
 Alpha  occ. eigenvalues --   -0.77508  -0.72195  -0.72067  -0.71273  -0.71226
 Alpha  occ. eigenvalues --   -0.70818  -0.70566  -0.65389  -0.65161  -0.65078
 Alpha  occ. eigenvalues --   -0.64860  -0.62555  -0.62124  -0.55657  -0.55395
 Alpha  occ. eigenvalues --   -0.53567  -0.53222  -0.53165  -0.52857  -0.48944
 Alpha  occ. eigenvalues --   -0.48911  -0.48869  -0.48807  -0.44936  -0.44765
 Alpha  occ. eigenvalues --   -0.37787  -0.37432  -0.36795  -0.36432
 Alpha virt. eigenvalues --    0.04772   0.04962   0.10674   0.11317   0.16101
 Alpha virt. eigenvalues --    0.16451   0.20750   0.21716   0.26403   0.27386
 Alpha virt. eigenvalues --    0.27806   0.28888   0.30686   0.31154   0.32226

 Mulliken charges:
               1
     1  C   -0.170239
     2  C   -0.224463
     3  C   -0.174923
     4  C    0.159310
     5  C   -0.169228
     6  C   -0.218871
     7  H    0.224918
     8  H    0.222101
     9  H    0.279345
    10  H    0.276375
    11  H    0.223879
    12  N    0.489984
    13  O   -0.457170
    14  O   -0.466517
    15  C   -0.174676
    16  C   -0.229947
    17  C   -0.187655
    18  C    0.159507
    19  C   -0.171028
    20  C   -0.220496
    21  H    0.226242
    22  H    0.229886
    23  H    0.298368
    24  H    0.277135
    25  H    0.224050
    26  N    0.487019
    27  O   -0.461876
    28  O   -0.451029
 Sum of Mulliken charges =  -0.00000

 Dipole moment (field-independent basis, Debye):
    X=             -0.2888    Y=              8.7595    Z=              0.7493  Tot=              8.7962
 Quadrupole moment (field-independent basis, Debye-Ang):
   XX=            -99.8848   YY=           -108.3043   ZZ=           -104.4772
   XY=              1.3313   XZ=             14.2005   YZ=             -2.0526

 Normal termination of Gaussian 16 at Thu May  6 12:47:54 2021.
