 Gaussian 16, Revision A.03,
 Gaussian 16:  EM64L-G16RevA.03 25-Dec-2016

 -------------
 #p 6-31g* mp2
 -------------

 ------------------------------------------------------
 Input file generated by CHIRIPA (05-May-2021 14:53:14)
 ------------------------------------------------------
 Symbolic Z-matrix:
 Charge =  0 Multiplicity = 1

                         Standard orientation:
 ---------------------------------------------------------------------
 Center     Atomic      Atomic             Coordinates (Angstroms)
 Number     Number       Type             X           Y           Z
 ---------------------------------------------------------------------
      1          6           0        2.807866    0.939185    0.306666
      2          6           0        3.186158    2.088956   -0.627629
      3          6           0        2.574707    3.423591   -0.200229
      4          1           0        1.713572    0.848368    0.341536
      5          1           0        3.133966    1.182861    1.327291
      6          1           0        2.860674    1.842574   -1.646438
      7          1           0        4.279686    2.176923   -0.660427
      8          1           0        2.908950    3.695775    0.806150
      9          1           0        1.481877    3.359526   -0.185463
     10          1           0        2.858002    4.231611   -0.881924
     11          6           0        3.411561   -0.401623   -0.107478
     12          6           0        3.033269   -1.551393    0.826817
     13          6           0        3.644720   -2.886028    0.399417
     14          1           0        3.085461   -0.645299   -1.128103
     15          1           0        4.505856   -0.310805   -0.142347
     16          1           0        1.939742   -1.639361    0.859616
     17          1           0        3.358753   -1.305011    1.845627
     18          1           0        4.737551   -2.821964    0.384651
     19          1           0        3.310477   -3.158213   -0.606962
     20          1           0        3.361426   -3.694048    1.081112
     21          6           0       -1.531863   -2.510526   -0.595252
     22          6           0       -0.691342   -1.395717   -0.680394
     23          6           0       -1.177894   -0.116300   -0.395952
     24          6           0       -2.516240    0.012423   -0.027783
     25          6           0       -3.378586   -1.078843    0.065983
     26          6           0       -2.870441   -2.348816   -0.222992
     27          1           0       -1.145511   -3.500740   -0.817974
     28          1           0        0.348648   -1.518308   -0.969244
     29          1           0       -0.549175    0.763906   -0.453981
     30          1           0       -4.410732   -0.925069    0.356577
     31          1           0       -3.525505   -3.212792   -0.156044
     32          7           0       -3.042760    1.361886    0.275742
     33          8           0       -4.225702    1.448637    0.597858
     34          8           0       -2.262534    2.307290    0.185781
 ---------------------------------------------------------------------

 SCF Done:  E(RHF) =  -669.534819527     A.U. after   15 cycles
 E2 =    -0.2093551064D+01 EUMP2 =    -0.67162837059054D+03

 The electronic state is 1-A.
 Alpha  occ. eigenvalues --  -20.60811 -20.60806 -15.85863 -11.31231 -11.27806
 Alpha  occ. eigenvalues --  -11.27797 -11.27544 -11.26816 -11.26790 -11.22324
 Alpha  occ. eigenvalues --  -11.22135 -11.21989 -11.21919 -11.21855 -11.21074
 Alpha  occ. eigenvalues --   -1.59884  -1.39438  -1.19410  -1.09068  -1.08797
 Alpha  occ. eigenvalues --   -1.04818  -1.04050  -0.96489  -0.95635  -0.87499
 Alpha  occ. eigenvalues --   -0.86211  -0.82475  -0.80117  -0.78860  -0.77514
 Alpha  occ. eigenvalues --   -0.72083  -0.71205  -0.70526  -0.65860  -0.65055
 Alpha  occ. eigenvalues --   -0.64812  -0.62119  -0.61433  -0.59876  -0.58079
 Alpha  occ. eigenvalues --   -0.55797  -0.55302  -0.53183  -0.53109  -0.53006
 Alpha  occ. eigenvalues --   -0.52805  -0.50413  -0.48841  -0.48834  -0.48395
 Alpha  occ. eigenvalues --   -0.47176  -0.46350  -0.46317  -0.44841  -0.44323
 Alpha  occ. eigenvalues --   -0.37379  -0.36385
 Alpha virt. eigenvalues --    0.04993   0.11129   0.16369   0.18502   0.22305
 Alpha virt. eigenvalues --    0.23353   0.25459   0.26425   0.27202   0.28353
 Alpha virt. eigenvalues --    0.29755   0.30472   0.31343   0.31530   0.32911

 Mulliken charges:
               1
     1  C   -0.303132
     2  C   -0.300656
     3  C   -0.479205
     4  H    0.145238
     5  H    0.155462
     6  H    0.149424
     7  H    0.153476
     8  H    0.156814
     9  H    0.164367
    10  H    0.162204
    11  C   -0.300784
    12  C   -0.306812
    13  C   -0.475865
    14  H    0.142735
    15  H    0.154889
    16  H    0.150533
    17  H    0.157725
    18  H    0.159523
    19  H    0.149348
    20  H    0.161814
    21  C   -0.172586
    22  C   -0.221740
    23  C   -0.178102
    24  C    0.159833
    25  C   -0.170284
    26  C   -0.218460
    27  H    0.226473
    28  H    0.230370
    29  H    0.280618
    30  H    0.275833
    31  H    0.223756
    32  N    0.488207
    33  O   -0.460012
    34  O   -0.461003
 Sum of Mulliken charges =  -0.00000

 Dipole moment (field-independent basis, Debye):
    X=              1.9203    Y=             -4.6496    Z=             -0.9796  Tot=              5.1251
 Quadrupole moment (field-independent basis, Debye-Ang):
   XX=            -98.9953   YY=            -95.2295   ZZ=            -95.0617
   XY=             14.9483   XZ=              2.5403   YZ=             -0.3845

 Normal termination of Gaussian 16 at Thu May  6 04:14:29 2021.
