 Gaussian 16, Revision A.03,
 Gaussian 16:  EM64L-G16RevA.03 25-Dec-2016

 -------------
 #p 6-31g* mp2
 -------------

 ------------------------------------------------------
 Input file generated by CHIRIPA (05-May-2021 14:55:25)
 ------------------------------------------------------
 Symbolic Z-matrix:
 Charge =  0 Multiplicity = 1

                         Standard orientation:
 ---------------------------------------------------------------------
 Center     Atomic      Atomic             Coordinates (Angstroms)
 Number     Number       Type             X           Y           Z
 ---------------------------------------------------------------------
      1          6           0        3.271056    0.803138   -1.861628
      2          6           0        2.705610    1.529970   -0.808772
      3          6           0        2.129157    0.869952    0.280552
      4          6           0        2.135563   -0.524047    0.284420
      5          6           0        2.691044   -1.276278   -0.749446
      6          6           0        3.261984   -0.595201   -1.828663
      7          1           0        3.716718    1.324035   -2.703916
      8          1           0        2.711227    2.616012   -0.831693
      9          1           0        1.684449    1.407873    1.108980
     10          1           0        2.670393   -2.358120   -0.698359
     11          1           0        3.700388   -1.162265   -2.644927
     12          7           0        1.528216   -1.233926    1.432289
     13          8           0        1.546568   -2.462699    1.411856
     14          8           0        1.045326   -0.548114    2.330685
     15          6           0       -2.184274    0.804660    0.088214
     16          6           0       -2.225140    2.299758    0.406018
     17          6           0       -0.862491    2.852556    0.824820
     18          1           0       -1.820655    0.258753    0.969526
     19          1           0       -1.453525    0.627040   -0.712943
     20          1           0       -2.956600    2.474679    1.205383
     21          1           0       -2.588885    2.842151   -0.476090
     22          1           0       -0.126240    2.707113    0.027711
     23          1           0       -0.496043    2.337553    1.718738
     24          1           0       -0.914623    3.922897    1.047334
     25          6           0       -3.539019    0.237390   -0.332022
     26          6           0       -3.498153   -1.257708   -0.649827
     27          6           0       -4.860803   -1.810506   -1.068629
     28          1           0       -4.269767    0.415010    0.469135
     29          1           0       -3.902638    0.783297   -1.213335
     30          1           0       -3.134408   -1.800101    0.232281
     31          1           0       -2.766693   -1.432629   -1.449192
     32          1           0       -5.227249   -1.295503   -1.962547
     33          1           0       -5.597054   -1.665063   -0.271520
     34          1           0       -4.808671   -2.880847   -1.291143
 ---------------------------------------------------------------------

 SCF Done:  E(RHF) =  -669.535166243     A.U. after   15 cycles
 E2 =    -0.2093528495D+01 EUMP2 =    -0.67162869473779D+03

 The electronic state is 1-A.
 Alpha  occ. eigenvalues --  -20.60848 -20.60842 -15.85876 -11.31158 -11.27763
 Alpha  occ. eigenvalues --  -11.27672 -11.27504 -11.26751 -11.26728 -11.21546
 Alpha  occ. eigenvalues --  -11.21253 -11.21223 -11.21111 -11.21045 -11.20782
 Alpha  occ. eigenvalues --   -1.59903  -1.39461  -1.19353  -1.08760  -1.08199
 Alpha  occ. eigenvalues --   -1.04756  -1.03372  -0.95868  -0.95590  -0.86901
 Alpha  occ. eigenvalues --   -0.86139  -0.82443  -0.79476  -0.78018  -0.77456
 Alpha  occ. eigenvalues --   -0.72102  -0.71207  -0.70472  -0.65025  -0.64814
 Alpha  occ. eigenvalues --   -0.64751  -0.62144  -0.60769  -0.59201  -0.57444
 Alpha  occ. eigenvalues --   -0.55264  -0.55142  -0.53127  -0.52924  -0.52556
 Alpha  occ. eigenvalues --   -0.52136  -0.49801  -0.48859  -0.48851  -0.47742
 Alpha  occ. eigenvalues --   -0.46452  -0.45592  -0.45460  -0.44762  -0.43598
 Alpha  occ. eigenvalues --   -0.37337  -0.36292
 Alpha virt. eigenvalues --    0.05002   0.11275   0.16379   0.21162   0.23164
 Alpha virt. eigenvalues --    0.24510   0.26231   0.26589   0.27710   0.28057
 Alpha virt. eigenvalues --    0.29381   0.29750   0.31601   0.31936   0.32324

 Mulliken charges:
               1
     1  C   -0.170362
     2  C   -0.223418
     3  C   -0.167487
     4  C    0.155493
     5  C   -0.170509
     6  C   -0.219433
     7  H    0.225576
     8  H    0.224303
     9  H    0.283673
    10  H    0.275442
    11  H    0.223260
    12  N    0.488817
    13  O   -0.459532
    14  O   -0.462504
    15  C   -0.306327
    16  C   -0.296870
    17  C   -0.489572
    18  H    0.164551
    19  H    0.145662
    20  H    0.154642
    21  H    0.149682
    22  H    0.148514
    23  H    0.167181
    24  H    0.159117
    25  C   -0.297898
    26  C   -0.300784
    27  C   -0.475629
    28  H    0.150438
    29  H    0.146684
    30  H    0.158906
    31  H    0.149390
    32  H    0.152958
    33  H    0.155612
    34  H    0.160424
 Sum of Mulliken charges =  -0.00000

 Dipole moment (field-independent basis, Debye):
    X=              2.1374    Y=              2.3938    Z=             -3.9114  Tot=              5.0595
 Quadrupole moment (field-independent basis, Debye-Ang):
   XX=            -86.9109   YY=            -94.2549   ZZ=            -95.8909
   XY=              2.7617   XZ=             -9.5858   YZ=              4.6124

 Normal termination of Gaussian 16 at Thu May  6 17:46:42 2021.
