 Gaussian 16, Revision A.03,
 Gaussian 16:  EM64L-G16RevA.03 25-Dec-2016

 -------------
 #p 6-31g* mp2
 -------------

 ------------------------------------------------------
 Input file generated by CHIRIPA (05-May-2021 14:53:17)
 ------------------------------------------------------
 Symbolic Z-matrix:
 Charge =  0 Multiplicity = 1

                         Standard orientation:
 ---------------------------------------------------------------------
 Center     Atomic      Atomic             Coordinates (Angstroms)
 Number     Number       Type             X           Y           Z
 ---------------------------------------------------------------------
      1          6           0        3.465329    1.054685   -0.137348
      2          6           0        2.349720    2.022568    0.258384
      3          6           0        2.832766    3.469250    0.365954
      4          1           0        4.276164    1.118061    0.601215
      5          1           0        3.892649    1.371985   -1.098656
      6          1           0        1.923702    1.702740    1.217986
      7          1           0        1.541363    1.956740   -0.481103
      8          1           0        3.239421    3.811782   -0.591075
      9          1           0        3.623933    3.556338    1.117667
     10          1           0        2.019232    4.144080    0.649903
     11          6           0        2.997963   -0.395433   -0.248960
     12          6           0        4.113571   -1.363316   -0.644693
     13          6           0        3.630526   -2.809999   -0.752262
     14          1           0        2.570643   -0.712733    0.712348
     15          1           0        2.187128   -0.458809   -0.987523
     16          1           0        4.921929   -1.297489    0.094794
     17          1           0        4.539589   -1.043488   -1.604294
     18          1           0        2.839359   -2.897087   -1.503975
     19          1           0        3.223871   -3.152530    0.204767
     20          1           0        4.444060   -3.484828   -1.036211
     21          6           0       -4.363377    1.142578   -0.861522
     22          6           0       -3.176484    1.747833   -0.435529
     23          6           0       -2.151007    0.981906    0.126878
     24          6           0       -2.346969   -0.392877    0.248779
     25          6           0       -3.517978   -1.025181   -0.166213
     26          6           0       -4.530042   -0.239560   -0.725744
     27          1           0       -5.154782    1.745218   -1.297296
     28          1           0       -3.044282    2.821010   -0.539738
     29          1           0       -1.221986    1.424645    0.464993
     30          1           0       -3.620614   -2.097195   -0.049293
     31          1           0       -5.450735   -0.712318   -1.055702
     32          7           0       -1.268442   -1.214154    0.842651
     33          8           0       -1.465696   -2.423466    0.939039
     34          8           0       -0.246263   -0.633007    1.200497
 ---------------------------------------------------------------------

 SCF Done:  E(RHF) =  -669.535926822     A.U. after   15 cycles
 E2 =    -0.2092260306D+01 EUMP2 =    -0.67162818712799D+03

 The electronic state is 1-A.
 Alpha  occ. eigenvalues --  -20.60909 -20.60884 -15.85926 -11.31249 -11.27817
 Alpha  occ. eigenvalues --  -11.27794 -11.27556 -11.26826 -11.26813 -11.21029
 Alpha  occ. eigenvalues --  -11.20757 -11.20612 -11.20607 -11.20091 -11.20043
 Alpha  occ. eigenvalues --   -1.59959  -1.39514  -1.19419  -1.08826  -1.07544
 Alpha  occ. eigenvalues --   -1.04815  -1.02762  -0.95669  -0.95194  -0.86231
 Alpha  occ. eigenvalues --   -0.86197  -0.82506  -0.78849  -0.77621  -0.77200
 Alpha  occ. eigenvalues --   -0.72148  -0.71268  -0.70527  -0.65077  -0.64820
 Alpha  occ. eigenvalues --   -0.64180  -0.62161  -0.60167  -0.58609  -0.56797
 Alpha  occ. eigenvalues --   -0.55322  -0.54480  -0.53150  -0.52908  -0.51956
 Alpha  occ. eigenvalues --   -0.51610  -0.49164  -0.48912  -0.48892  -0.47136
 Alpha  occ. eigenvalues --   -0.45883  -0.45236  -0.44732  -0.44435  -0.42962
 Alpha  occ. eigenvalues --   -0.37401  -0.36417
 Alpha virt. eigenvalues --    0.04958   0.11218   0.16451   0.20974   0.23520
 Alpha virt. eigenvalues --    0.24678   0.26390   0.27509   0.27680   0.28744
 Alpha virt. eigenvalues --    0.29289   0.31009   0.31670   0.32136   0.32401

 Mulliken charges:
               1
     1  C   -0.298473
     2  C   -0.301708
     3  C   -0.474777
     4  H    0.147809
     5  H    0.144333
     6  H    0.163803
     7  H    0.143528
     8  H    0.153242
     9  H    0.156134
    10  H    0.152957
    11  C   -0.299910
    12  C   -0.299861
    13  C   -0.474686
    14  H    0.173963
    15  H    0.144723
    16  H    0.148775
    17  H    0.145910
    18  H    0.153529
    19  H    0.162661
    20  H    0.154973
    21  C   -0.170485
    22  C   -0.219406
    23  C   -0.174046
    24  C    0.157091
    25  C   -0.170513
    26  C   -0.218755
    27  H    0.225816
    28  H    0.223949
    29  H    0.280918
    30  H    0.275669
    31  H    0.223623
    32  N    0.491063
    33  O   -0.459681
    34  O   -0.462168
 Sum of Mulliken charges =  -0.00000

 Dipole moment (field-independent basis, Debye):
    X=             -3.9860    Y=              2.7275    Z=             -1.9061  Tot=              5.1924
 Quadrupole moment (field-independent basis, Debye-Ang):
   XX=            -76.5479   YY=            -95.6697   ZZ=            -95.7043
   XY=             -3.2404   XZ=              5.3354   YZ=              1.6726

 Normal termination of Gaussian 16 at Wed May  5 15:44:56 2021.
