 Gaussian 16, Revision A.03,
 Gaussian 16:  EM64L-G16RevA.03 25-Dec-2016

 -------------
 #p 6-31g* mp2
 -------------

 ------------------------------------------------------
 Input file generated by CHIRIPA (05-May-2021 14:51:10)
 ------------------------------------------------------
 Symbolic Z-matrix:
 Charge =  0 Multiplicity = 1

                         Standard orientation:
 ---------------------------------------------------------------------
 Center     Atomic      Atomic             Coordinates (Angstroms)
 Number     Number       Type             X           Y           Z
 ---------------------------------------------------------------------
      1          6           0       -1.988232   -0.488998   -0.187880
      2          6           0       -2.860657   -1.718482    0.067520
      3          6           0       -2.148811   -3.028891   -0.269966
      4          1           0       -1.679237   -0.479126   -1.242095
      5          1           0       -1.067921   -0.571131    0.406829
      6          1           0       -3.779674   -1.633390   -0.526436
      7          1           0       -3.167769   -1.725326    1.121205
      8          1           0       -1.241252   -3.140436    0.332110
      9          1           0       -1.856634   -3.047977   -1.324893
     10          1           0       -2.790557   -3.894868   -0.079953
     11          6           0       -2.685995    0.828648    0.144780
     12          6           0       -1.813569    2.058131   -0.110620
     13          6           0       -2.525415    3.368540    0.226866
     14          1           0       -3.606305    0.910780   -0.449929
     15          1           0       -2.994990    0.818775    1.198995
     16          1           0       -1.506458    2.064975   -1.164305
     17          1           0       -0.894552    1.973039    0.483336
     18          1           0       -2.817592    3.387627    1.281793
     19          1           0       -3.432974    3.480086   -0.375209
     20          1           0       -1.883670    4.234518    0.036854
     21          6           0        2.220102   -0.845642   -0.314621
     22          6           0        2.064781   -1.997998    0.678323
     23          6           0        1.831301   -3.343490   -0.009379
     24          1           0        1.320302   -0.787019   -0.942211
     25          1           0        3.058789   -1.063561   -0.990276
     26          1           0        1.227510   -1.777329    1.352785
     27          1           0        2.964974   -2.053764    1.303750
     28          1           0        2.669976   -3.589878   -0.668559
     29          1           0        0.922641   -3.311872   -0.619246
     30          1           0        1.723030   -4.153195    0.718985
     31          6           0        2.454125    0.505993    0.357721
     32          6           0        2.609445    1.658348   -0.635223
     33          6           0        2.842925    3.003839    0.052479
     34          1           0        1.615438    0.723911    1.033375
     35          1           0        3.353924    0.447369    0.985311
     36          1           0        1.709253    1.714115   -1.260650
     37          1           0        3.446716    1.437679   -1.309685
     38          1           0        3.751586    2.972223    0.662347
     39          1           0        2.004250    3.250228    0.711659
     40          1           0        2.951196    3.813546   -0.675884
 ---------------------------------------------------------------------

 SCF Done:  E(RHF) =  -470.732525832     A.U. after   11 cycles
 E2 =    -0.1585680994D+01 EUMP2 =    -0.47231820682537D+03

 The electronic state is 1-A.
 Alpha  occ. eigenvalues --  -11.21699 -11.21670 -11.21581 -11.21545 -11.21500
 Alpha  occ. eigenvalues --  -11.21440 -11.21359 -11.21280 -11.21135 -11.21093
 Alpha  occ. eigenvalues --  -11.21043 -11.20955  -1.08546  -1.08364  -1.03637
 Alpha  occ. eigenvalues --   -1.03460  -0.96095  -0.95897  -0.87129  -0.86896
 Alpha  occ. eigenvalues --   -0.79711  -0.79521  -0.78368  -0.78188  -0.65355
 Alpha  occ. eigenvalues --   -0.64831  -0.61225  -0.60736  -0.59384  -0.59296
 Alpha  occ. eigenvalues --   -0.57758  -0.57520  -0.55517  -0.55058  -0.52744
 Alpha  occ. eigenvalues --   -0.52634  -0.52572  -0.52261  -0.50119  -0.49680
 Alpha  occ. eigenvalues --   -0.48174  -0.47698  -0.46709  -0.46540  -0.46187
 Alpha  occ. eigenvalues --   -0.46012  -0.45462  -0.45350  -0.43864  -0.43735
 Alpha virt. eigenvalues --    0.19207   0.21472   0.23723   0.24577   0.25555
 Alpha virt. eigenvalues --    0.25934   0.26108   0.28632   0.29003   0.29592
 Alpha virt. eigenvalues --    0.30369   0.31351   0.31678   0.31812   0.32245

 Mulliken charges:
               1
     1  C   -0.305294
     2  C   -0.299351
     3  C   -0.482055
     4  H    0.149654
     5  H    0.155797
     6  H    0.152199
     7  H    0.151993
     8  H    0.163348
     9  H    0.154618
    10  H    0.160830
    11  C   -0.297996
    12  C   -0.304286
    13  C   -0.475884
    14  H    0.150120
    15  H    0.149846
    16  H    0.152377
    17  H    0.155332
    18  H    0.155345
    19  H    0.155537
    20  H    0.160925
    21  C   -0.301506
    22  C   -0.302070
    23  C   -0.481175
    24  H    0.154227
    25  H    0.149538
    26  H    0.151203
    27  H    0.152148
    28  H    0.154993
    29  H    0.162034
    30  H    0.159195
    31  C   -0.300416
    32  C   -0.300773
    33  C   -0.476397
    34  H    0.150019
    35  H    0.149486
    36  H    0.154310
    37  H    0.151660
    38  H    0.154976
    39  H    0.155406
    40  H    0.160088
 Sum of Mulliken charges =  -0.00000

 Dipole moment (field-independent basis, Debye):
    X=             -0.0608    Y=             -0.0059    Z=             -0.0185  Tot=              0.0638
 Quadrupole moment (field-independent basis, Debye-Ang):
   XX=            -83.8782   YY=            -86.8588   ZZ=            -84.0241
   XY=              0.0581   XZ=              0.2793   YZ=             -0.6033

 Normal termination of Gaussian 16 at Thu May  6 00:36:25 2021.
