 Gaussian 16, Revision A.03,
 Gaussian 16:  EM64L-G16RevA.03 25-Dec-2016

 -------------
 #p 6-31g* mp2
 -------------

 ------------------------------------------------------
 Input file generated by CHIRIPA (05-May-2021 14:55:21)
 ------------------------------------------------------
 Symbolic Z-matrix:
 Charge =  0 Multiplicity = 1

                         Standard orientation:
 ---------------------------------------------------------------------
 Center     Atomic      Atomic             Coordinates (Angstroms)
 Number     Number       Type             X           Y           Z
 ---------------------------------------------------------------------
      1          6           0       -2.512949    2.601152    0.175475
      2          6           0       -3.891237    2.381826    0.081994
      3          6           0       -4.396646    1.084707   -0.046814
      4          6           0       -3.491104    0.025342   -0.078898
      5          6           0       -2.112569    0.211526    0.012022
      6          6           0       -1.629571    1.517213    0.140252
      7          1           0       -2.129040    3.612113    0.275311
      8          1           0       -4.579630    3.221723    0.109069
      9          1           0       -5.458983    0.886380   -0.121141
     10          1           0       -1.451109   -0.645792   -0.017901
     11          1           0       -0.558683    1.684553    0.212646
     12          7           0       -4.014295   -1.352395   -0.214956
     13          8           0       -3.195604   -2.268755   -0.240746
     14          8           0       -5.233157   -1.489818   -0.293231
     15          6           0        5.111160   -0.427227   -0.003208
     16          6           0        5.878818    0.868138   -0.269134
     17          6           0        7.383881    0.643479   -0.417823
     18          1           0        5.504700   -0.898783    0.907674
     19          1           0        5.298214   -1.131529   -0.825623
     20          1           0        5.689268    1.570299    0.552850
     21          1           0        5.483276    1.336763   -1.179382
     22          1           0        7.591454   -0.037020   -1.249950
     23          1           0        7.798617    0.197842    0.492124
     24          1           0        7.913170    1.582514   -0.607363
     25          6           0        3.605322   -0.218942    0.147781
     26          6           0        2.837664   -1.514307    0.413707
     27          6           0        1.332601   -1.289648    0.562397
     28          1           0        3.418268    0.485360    0.970196
     29          1           0        3.211782    0.252614   -0.763101
     30          1           0        3.233206   -1.982932    1.323955
     31          1           0        3.027214   -2.216468   -0.408277
     32          1           0        0.917866   -0.844012   -0.347550
     33          1           0        1.125028   -0.609149    1.394525
     34          1           0        0.803312   -2.228683    0.751936
 ---------------------------------------------------------------------

 SCF Done:  E(RHF) =  -669.535519547     A.U. after   15 cycles
 E2 =    -0.2091563450D+01 EUMP2 =    -0.67162708299664D+03

 The electronic state is 1-A.
 Alpha  occ. eigenvalues --  -20.60681 -20.60675 -15.85730 -11.31051 -11.27649
 Alpha  occ. eigenvalues --  -11.27548 -11.27390 -11.26662 -11.26613 -11.22136
 Alpha  occ. eigenvalues --  -11.21982 -11.21934 -11.21846 -11.21777 -11.21370
 Alpha  occ. eigenvalues --   -1.59755  -1.39309  -1.19235  -1.08911  -1.08643
 Alpha  occ. eigenvalues --   -1.04638  -1.04019  -0.96506  -0.95478  -0.87540
 Alpha  occ. eigenvalues --   -0.86031  -0.82315  -0.80114  -0.78724  -0.77346
 Alpha  occ. eigenvalues --   -0.71951  -0.71077  -0.70354  -0.65537  -0.64889
 Alpha  occ. eigenvalues --   -0.64642  -0.62030  -0.61395  -0.59841  -0.58080
 Alpha  occ. eigenvalues --   -0.55808  -0.55154  -0.53230  -0.52972  -0.52926
 Alpha  occ. eigenvalues --   -0.52632  -0.50438  -0.48714  -0.48705  -0.48395
 Alpha  occ. eigenvalues --   -0.47112  -0.46265  -0.46172  -0.44723  -0.44258
 Alpha  occ. eigenvalues --   -0.37230  -0.36233
 Alpha virt. eigenvalues --    0.05153   0.11408   0.16625   0.20597   0.22507
 Alpha virt. eigenvalues --    0.23799   0.25689   0.26189   0.27007   0.28105
 Alpha virt. eigenvalues --    0.29337   0.30516   0.30925   0.31562   0.32164

 Mulliken charges:
               1
     1  C   -0.170656
     2  C   -0.219156
     3  C   -0.170405
     4  C    0.159667
     5  C   -0.180925
     6  C   -0.223842
     7  H    0.225019
     8  H    0.222888
     9  H    0.275092
    10  H    0.290218
    11  H    0.224937
    12  N    0.487731
    13  O   -0.460720
    14  O   -0.460918
    15  C   -0.298659
    16  C   -0.299891
    17  C   -0.475983
    18  H    0.151294
    19  H    0.151631
    20  H    0.151132
    21  H    0.151523
    22  H    0.156304
    23  H    0.156039
    24  H    0.160794
    25  C   -0.299340
    26  C   -0.299580
    27  C   -0.487958
    28  H    0.147095
    29  H    0.147844
    30  H    0.155701
    31  H    0.156762
    32  H    0.148648
    33  H    0.153736
    34  H    0.173978
 Sum of Mulliken charges =  -0.00000

 Dipole moment (field-independent basis, Debye):
    X=              2.0506    Y=              4.7228    Z=              0.5009  Tot=              5.1731
 Quadrupole moment (field-independent basis, Debye-Ang):
   XX=           -104.1249   YY=            -94.1727   ZZ=            -94.7414
   XY=            -19.2000   XZ=             -1.4326   YZ=             -0.3450

 Normal termination of Gaussian 16 at Thu May  6 15:49:45 2021.
