 Gaussian 16, Revision A.03,
 Gaussian 16:  EM64L-G16RevA.03 25-Dec-2016

 -------------
 #p 6-31g* mp2
 -------------

 ------------------------------------------------------
 Input file generated by CHIRIPA (05-May-2021 14:53:13)
 ------------------------------------------------------
 Symbolic Z-matrix:
 Charge =  0 Multiplicity = 1

                         Standard orientation:
 ---------------------------------------------------------------------
 Center     Atomic      Atomic             Coordinates (Angstroms)
 Number     Number       Type             X           Y           Z
 ---------------------------------------------------------------------
      1          6           0        2.469633    0.883927    0.150405
      2          6           0        2.582233    2.252601    0.822742
      3          6           0        1.230782    2.952760    0.968179
      4          1           0        2.009689    1.005655   -0.839837
      5          1           0        1.788618    0.250594    0.735641
      6          1           0        3.263914    2.882703    0.237167
      7          1           0        3.042138    2.127625    1.811420
      8          1           0        0.546039    2.347180    1.570674
      9          1           0        0.769075    3.106549   -0.012523
     10          1           0        1.334523    3.929372    1.451219
     11          6           0        3.812402    0.171577   -0.002103
     12          6           0        3.699802   -1.197097   -0.674441
     13          6           0        5.051253   -1.897255   -0.819878
     14          1           0        4.493417    0.804911   -0.587340
     15          1           0        4.272346    0.049849    0.988138
     16          1           0        3.239897   -1.072120   -1.663119
     17          1           0        3.018120   -1.827199   -0.088866
     18          1           0        5.512959   -2.051044    0.160824
     19          1           0        5.735996   -1.291675   -1.422373
     20          1           0        4.947511   -2.873867   -1.302918
     21          6           0       -1.517250   -2.592670    0.799151
     22          6           0       -2.901537   -2.409850    0.716403
     23          6           0       -3.431674   -1.205926    0.243043
     24          6           0       -2.544474   -0.201517   -0.140789
     25          6           0       -1.160553   -0.353365   -0.070109
     26          6           0       -0.652700   -1.565654    0.406323
     27          1           0       -1.114082   -3.531157    1.168061
     28          1           0       -3.575346   -3.205703    1.020780
     29          1           0       -4.499177   -1.037658    0.168604
     30          1           0       -0.514038    0.458334   -0.380885
     31          1           0        0.422792   -1.704832    0.469498
     32          7           0       -3.093910    1.077451   -0.643540
     33          8           0       -2.291034    1.946842   -0.975485
     34          8           0       -4.317031    1.186299   -0.696132
 ---------------------------------------------------------------------

 SCF Done:  E(RHF) =  -669.534875572     A.U. after   15 cycles
 E2 =    -0.2093904411D+01 EUMP2 =    -0.67162877998298D+03

 The electronic state is 1-A.
 Alpha  occ. eigenvalues --  -20.60704 -20.60696 -15.85748 -11.31065 -11.27662
 Alpha  occ. eigenvalues --  -11.27556 -11.27395 -11.26672 -11.26597 -11.22445
 Alpha  occ. eigenvalues --  -11.22177 -11.22053 -11.21925 -11.21709 -11.21037
 Alpha  occ. eigenvalues --   -1.59773  -1.39327  -1.19246  -1.09097  -1.08653
 Alpha  occ. eigenvalues --   -1.04646  -1.04038  -0.96460  -0.95493  -0.87475
 Alpha  occ. eigenvalues --   -0.86046  -0.82343  -0.80123  -0.79042  -0.77308
 Alpha  occ. eigenvalues --   -0.71969  -0.71093  -0.70358  -0.65778  -0.64895
 Alpha  occ. eigenvalues --   -0.64627  -0.62010  -0.61424  -0.59856  -0.58087
 Alpha  occ. eigenvalues --   -0.55729  -0.55165  -0.53109  -0.52984  -0.52883
 Alpha  occ. eigenvalues --   -0.52747  -0.50401  -0.48728  -0.48726  -0.48389
 Alpha  occ. eigenvalues --   -0.47158  -0.46395  -0.46356  -0.44736  -0.44330
 Alpha  occ. eigenvalues --   -0.37239  -0.36231
 Alpha virt. eigenvalues --    0.05118   0.11363   0.16551   0.19890   0.22685
 Alpha virt. eigenvalues --    0.23053   0.24784   0.25721   0.27139   0.28436
 Alpha virt. eigenvalues --    0.29696   0.30730   0.31318   0.31532   0.32043

 Mulliken charges:
               1
     1  C   -0.310689
     2  C   -0.298654
     3  C   -0.482914
     4  H    0.151946
     5  H    0.143932
     6  H    0.154945
     7  H    0.152093
     8  H    0.153970
     9  H    0.169009
    10  H    0.163794
    11  C   -0.297399
    12  C   -0.303113
    13  C   -0.475820
    14  H    0.154566
    15  H    0.151510
    16  H    0.155087
    17  H    0.143328
    18  H    0.156310
    19  H    0.158916
    20  H    0.161255
    21  C   -0.171874
    22  C   -0.219048
    23  C   -0.170401
    24  C    0.157276
    25  C   -0.178183
    26  C   -0.229354
    27  H    0.225317
    28  H    0.222895
    29  H    0.275094
    30  H    0.287457
    31  H    0.232560
    32  N    0.488446
    33  O   -0.461541
    34  O   -0.460714
 Sum of Mulliken charges =  -0.00000

 Dipole moment (field-independent basis, Debye):
    X=              2.1151    Y=             -4.3153    Z=              1.7130  Tot=              5.1019
 Quadrupole moment (field-independent basis, Debye-Ang):
   XX=           -100.5035   YY=            -92.6051   ZZ=            -95.1986
   XY=             13.8146   XZ=             -5.6686   YZ=             -0.4939

 Normal termination of Gaussian 16 at Wed May  5 23:26:27 2021.
