 Gaussian 16, Revision A.03,
 Gaussian 16:  EM64L-G16RevA.03 25-Dec-2016

 -------------
 #p 6-31g* mp2
 -------------

 ------------------------------------------------------
 Input file generated by CHIRIPA (05-May-2021 14:53:16)
 ------------------------------------------------------
 Symbolic Z-matrix:
 Charge =  0 Multiplicity = 1

                         Standard orientation:
 ---------------------------------------------------------------------
 Center     Atomic      Atomic             Coordinates (Angstroms)
 Number     Number       Type             X           Y           Z
 ---------------------------------------------------------------------
      1          6           0        3.645910   -0.449264   -0.465084
      2          6           0        3.239704   -1.695574    0.322122
      3          6           0        3.501079   -2.991359   -0.446264
      4          1           0        3.097702   -0.429737   -1.416942
      5          1           0        4.712607   -0.516648   -0.720056
      6          1           0        2.174415   -1.625210    0.576727
      7          1           0        3.788800   -1.712036    1.272301
      8          1           0        4.564581   -3.088414   -0.687399
      9          1           0        2.941023   -3.001094   -1.386925
     10          1           0        3.203443   -3.869729    0.134890
     11          6           0        3.390710    0.854035    0.289907
     12          6           0        3.796915    2.100344   -0.497300
     13          6           0        3.535540    3.396130    0.271086
     14          1           0        2.324012    0.921419    0.544879
     15          1           0        3.938917    0.834508    1.241764
     16          1           0        3.247820    2.116807   -1.447478
     17          1           0        4.862205    2.029980   -0.751904
     18          1           0        4.095596    3.405865    1.211747
     19          1           0        2.472039    3.493184    0.512222
     20          1           0        3.833177    4.274500   -0.310067
     21          6           0       -5.007142    0.779160   -0.553493
     22          6           0       -4.114105    0.382565   -1.554352
     23          6           0       -2.860084   -0.138118   -1.221381
     24          6           0       -2.530340   -0.248726    0.128554
     25          6           0       -3.398269    0.137707    1.148681
     26          6           0       -4.647009    0.655683    0.792455
     27          1           0       -5.979244    1.182587   -0.821186
     28          1           0       -4.391101    0.477310   -2.600460
     29          1           0       -2.149465   -0.452831   -1.975964
     30          1           0       -3.093819    0.031161    2.182786
     31          1           0       -5.338535    0.962880    1.571857
     32          7           0       -1.205559   -0.798516    0.493364
     33          8           0       -0.938969   -0.885746    1.690008
     34          8           0       -0.458870   -1.131801   -0.424250
 ---------------------------------------------------------------------

 SCF Done:  E(RHF) =  -669.536983302     A.U. after   15 cycles
 E2 =    -0.2091741032D+01 EUMP2 =    -0.67162872433399D+03

 The electronic state is 1-A.
 Alpha  occ. eigenvalues --  -20.61173 -20.61163 -15.86164 -11.31420 -11.27969
 Alpha  occ. eigenvalues --  -11.27964 -11.27692 -11.26957 -11.26948 -11.20703
 Alpha  occ. eigenvalues --  -11.20381 -11.20131 -11.19936 -11.19676 -11.19568
 Alpha  occ. eigenvalues --   -1.60205  -1.39763  -1.19576  -1.08995  -1.07106
 Alpha  occ. eigenvalues --   -1.04960  -1.02242  -0.95846  -0.94758  -0.86364
 Alpha  occ. eigenvalues --   -0.85787  -0.82681  -0.78349  -0.77746  -0.76843
 Alpha  occ. eigenvalues --   -0.72372  -0.71508  -0.70683  -0.65232  -0.64964
 Alpha  occ. eigenvalues --   -0.63724  -0.62307  -0.59626  -0.58170  -0.56343
 Alpha  occ. eigenvalues --   -0.55467  -0.54052  -0.53296  -0.53049  -0.51504
 Alpha  occ. eigenvalues --   -0.51180  -0.49243  -0.49133  -0.48679  -0.46655
 Alpha  occ. eigenvalues --   -0.45345  -0.45190  -0.44427  -0.44141  -0.42498
 Alpha  occ. eigenvalues --   -0.37551  -0.36556
 Alpha virt. eigenvalues --    0.04775   0.11100   0.16290   0.21238   0.24086
 Alpha virt. eigenvalues --    0.25563   0.27170   0.27837   0.28219   0.28820
 Alpha virt. eigenvalues --    0.29163   0.30847   0.32348   0.32587   0.32941

 Mulliken charges:
               1
     1  C   -0.295377
     2  C   -0.310528
     3  C   -0.473954
     4  H    0.149868
     5  H    0.141645
     6  H    0.184873
     7  H    0.143318
     8  H    0.146755
     9  H    0.155088
    10  H    0.157204
    11  C   -0.298538
    12  C   -0.298670
    13  C   -0.474478
    14  H    0.156188
    15  H    0.146567
    16  H    0.149363
    17  H    0.149211
    18  H    0.154362
    19  H    0.153219
    20  H    0.156138
    21  C   -0.170282
    22  C   -0.218557
    23  C   -0.170622
    24  C    0.158301
    25  C   -0.170576
    26  C   -0.218603
    27  H    0.226504
    28  H    0.224301
    29  H    0.275918
    30  H    0.276215
    31  H    0.224319
    32  N    0.488573
    33  O   -0.458229
    34  O   -0.459516
 Sum of Mulliken charges =  -0.00000

 Dipole moment (field-independent basis, Debye):
    X=             -5.1676    Y=              1.8829    Z=             -1.2239  Tot=              5.6345
 Quadrupole moment (field-independent basis, Debye-Ang):
   XX=            -72.0944   YY=            -98.3588   ZZ=            -90.4534
   XY=             -3.9227   XZ=              2.1175   YZ=              0.6864

 Normal termination of Gaussian 16 at Thu May  6 20:27:34 2021.
