 Gaussian 16, Revision A.03,
 Gaussian 16:  EM64L-G16RevA.03 25-Dec-2016

 -------------
 #p 6-31g* mp2
 -------------

 ------------------------------------------------------
 Input file generated by CHIRIPA (05-May-2021 14:51:12)
 ------------------------------------------------------
 Symbolic Z-matrix:
 Charge =  0 Multiplicity = 1

                         Standard orientation:
 ---------------------------------------------------------------------
 Center     Atomic      Atomic             Coordinates (Angstroms)
 Number     Number       Type             X           Y           Z
 ---------------------------------------------------------------------
      1          6           0       -4.467320    0.078326    0.315992
      2          6           0       -5.201744    0.898775   -0.744890
      3          6           0       -6.648580    1.206133   -0.357605
      4          1           0       -5.010763   -0.861422    0.484779
      5          1           0       -4.484554    0.624883    1.269078
      6          1           0       -5.181930    0.351464   -1.696033
      7          1           0       -4.656384    1.836593   -0.911309
      8          1           0       -6.684727    1.773280    0.578151
      9          1           0       -7.213259    0.279712   -0.211032
     10          1           0       -7.154840    1.793426   -1.130034
     11          6           0       -3.019780   -0.236952   -0.056775
     12          6           0       -2.285356   -1.057401    1.004107
     13          6           0       -0.838520   -1.364759    0.616822
     14          1           0       -3.002546   -0.783509   -1.009861
     15          1           0       -2.476337    0.702795   -0.225562
     16          1           0       -2.830716   -1.995219    1.170526
     17          1           0       -2.305170   -0.510090    1.955250
     18          1           0       -0.273841   -0.438338    0.470249
     19          1           0       -0.802373   -1.931906   -0.318934
     20          1           0       -0.332260   -1.952052    1.389251
     21          6           0        3.913994   -0.647148   -0.292813
     22          6           0        2.713697   -1.588997   -0.191866
     23          6           0        3.070568   -3.038805   -0.521251
     24          1           0        4.330807   -0.702145   -1.307795
     25          1           0        4.702787   -0.995395    0.388305
     26          1           0        1.926868   -1.238286   -0.871952
     27          1           0        2.299575   -1.531609    0.822938
     28          1           0        3.838257   -3.411880    0.164366
     29          1           0        3.463431   -3.116890   -1.540154
     30          1           0        2.197980   -3.694786   -0.442894
     31          6           0        3.573106    0.805773    0.033596
     32          6           0        4.773403    1.747624   -0.067351
     33          6           0        4.416532    3.197431    0.262034
     34          1           0        2.784312    1.154021   -0.647523
     35          1           0        3.156293    0.860771    1.048578
     36          1           0        5.187524    1.690235   -1.082155
     37          1           0        5.560232    1.396911    0.612735
     38          1           0        4.023669    3.275515    1.280937
     39          1           0        3.648843    3.570505   -0.423583
     40          1           0        5.289120    3.853411    0.183677
 ---------------------------------------------------------------------

 SCF Done:  E(RHF) =  -470.732782201     A.U. after   11 cycles
 E2 =    -0.1582962245D+01 EUMP2 =    -0.47231574444607D+03

 The electronic state is 1-A.
 Alpha  occ. eigenvalues --  -11.21595 -11.21582 -11.21550 -11.21428 -11.21391
 Alpha  occ. eigenvalues --  -11.21361 -11.21332 -11.21279 -11.21066 -11.21064
 Alpha  occ. eigenvalues --  -11.20998 -11.20982  -1.08418  -1.08365  -1.03538
 Alpha  occ. eigenvalues --   -1.03435  -0.95985  -0.95899  -0.87019  -0.86906
 Alpha  occ. eigenvalues --   -0.79736  -0.79389  -0.78277  -0.78107  -0.65044
 Alpha  occ. eigenvalues --   -0.65004  -0.60918  -0.60860  -0.59411  -0.59220
 Alpha  occ. eigenvalues --   -0.57583  -0.57522  -0.55256  -0.55209  -0.52713
 Alpha  occ. eigenvalues --   -0.52582  -0.52418  -0.52311  -0.49917  -0.49858
 Alpha  occ. eigenvalues --   -0.48054  -0.47697  -0.46631  -0.46528  -0.45889
 Alpha  occ. eigenvalues --   -0.45713  -0.45639  -0.45512  -0.43775  -0.43673
 Alpha virt. eigenvalues --    0.21997   0.23055   0.23627   0.24754   0.26026
 Alpha virt. eigenvalues --    0.26479   0.26615   0.27496   0.27741   0.29327
 Alpha virt. eigenvalues --    0.30406   0.31087   0.31508   0.31976   0.32237

 Mulliken charges:
               1
     1  C   -0.298183
     2  C   -0.299609
     3  C   -0.475688
     4  H    0.149621
     5  H    0.149513
     6  H    0.151837
     7  H    0.151887
     8  H    0.155185
     9  H    0.155165
    10  H    0.160208
    11  C   -0.298369
    12  C   -0.301425
    13  C   -0.474044
    14  H    0.149219
    15  H    0.149504
    16  H    0.151412
    17  H    0.151552
    18  H    0.157509
    19  H    0.154648
    20  H    0.160079
    21  C   -0.298114
    22  C   -0.301296
    23  C   -0.476768
    24  H    0.149017
    25  H    0.148873
    26  H    0.155199
    27  H    0.154744
    28  H    0.154476
    29  H    0.154505
    30  H    0.160530
    31  C   -0.298612
    32  C   -0.299455
    33  C   -0.475685
    34  H    0.149005
    35  H    0.149387
    36  H    0.151976
    37  H    0.151971
    38  H    0.155011
    39  H    0.154987
    40  H    0.160225
 Sum of Mulliken charges =  -0.00000

 Dipole moment (field-independent basis, Debye):
    X=             -0.0078    Y=             -0.0035    Z=              0.0039  Tot=              0.0094
 Quadrupole moment (field-independent basis, Debye-Ang):
   XX=            -86.0618   YY=            -85.3640   ZZ=            -83.6715
   XY=              0.6814   XZ=              0.5645   YZ=             -0.0513

 Normal termination of Gaussian 16 at Wed May  5 18:18:16 2021.
