 Gaussian 16, Revision A.03,
 Gaussian 16:  EM64L-G16RevA.03 25-Dec-2016

 -------------
 #p 6-31g* mp2
 -------------

 ------------------------------------------------------
 Input file generated by CHIRIPA (05-May-2021 14:57:24)
 ------------------------------------------------------
 Symbolic Z-matrix:
 Charge =  0 Multiplicity = 1

                         Standard orientation:
 ---------------------------------------------------------------------
 Center     Atomic      Atomic             Coordinates (Angstroms)
 Number     Number       Type             X           Y           Z
 ---------------------------------------------------------------------
      1          6           0       -0.785309    0.225590    1.149096
      2          6           0       -1.170396    0.962594    0.024350
      3          6           0       -2.454208    0.822222   -0.511066
      4          6           0       -3.331382   -0.068153    0.106256
      5          6           0       -2.977387   -0.816487    1.227850
      6          6           0       -1.688442   -0.660037    1.746204
      7          1           0        0.213980    0.340880    1.558393
      8          1           0       -0.471106    1.651124   -0.441445
      9          1           0       -2.778515    1.380398   -1.380942
     10          1           0       -3.696538   -1.495048    1.670338
     11          1           0       -1.392123   -1.233702    2.619788
     12          7           0       -4.693214   -0.225270   -0.451534
     13          8           0       -5.447378   -1.016277    0.110766
     14          8           0       -4.980667    0.445565   -1.440467
     15          6           0        2.530706    2.465695    0.202860
     16          6           0        3.134616    1.712950    1.215376
     17          6           0        3.458296    0.369364    1.004298
     18          6           0        3.162644   -0.192030   -0.236958
     19          6           0        2.561414    0.531736   -1.265538
     20          6           0        2.246535    1.873729   -1.032188
     21          1           0        2.282683    3.508807    0.375481
     22          1           0        3.356466    2.170052    2.175524
     23          1           0        3.926228   -0.236517    1.770697
     24          1           0        2.352469    0.048399   -2.212187
     25          1           0        1.777573    2.455897   -1.820351
     26          7           0        3.500652   -1.613582   -0.472205
     27          8           0        3.229876   -2.084806   -1.574597
     28          8           0        4.029956   -2.229653    0.450253
 ---------------------------------------------------------------------

 SCF Done:  E(RHF) =  -868.336850887     A.U. after   16 cycles
 E2 =    -0.2602922157D+01 EUMP2 =    -0.87093977304349D+03

 The electronic state is 1-A.
 Alpha  occ. eigenvalues --  -20.61710 -20.61694 -20.60792 -20.60783 -15.86770
 Alpha  occ. eigenvalues --  -15.85843 -11.32425 -11.31201 -11.29044 -11.29005
 Alpha  occ. eigenvalues --  -11.28826 -11.28095 -11.28073 -11.27789 -11.27754
 Alpha  occ. eigenvalues --  -11.27436 -11.26751 -11.26716  -1.60776  -1.59866
 Alpha  occ. eigenvalues --   -1.40320  -1.39420  -1.20665  -1.19366  -1.09990
 Alpha  occ. eigenvalues --   -1.08752  -1.06094  -1.04776  -0.96754  -0.95593
 Alpha  occ. eigenvalues --   -0.87458  -0.86170  -0.83573  -0.82436  -0.78573
 Alpha  occ. eigenvalues --   -0.77497  -0.72976  -0.72115  -0.72061  -0.71688
 Alpha  occ. eigenvalues --   -0.71188  -0.70469  -0.66276  -0.66065  -0.65016
 Alpha  occ. eigenvalues --   -0.64826  -0.63383  -0.62160  -0.56528  -0.55381
 Alpha  occ. eigenvalues --   -0.54323  -0.54130  -0.53090  -0.52803  -0.49760
 Alpha  occ. eigenvalues --   -0.49715  -0.48824  -0.48817  -0.45661  -0.44828
 Alpha  occ. eigenvalues --   -0.38672  -0.37797  -0.37227  -0.36354
 Alpha virt. eigenvalues --    0.03938   0.05047   0.09790   0.11253   0.15336
 Alpha virt. eigenvalues --    0.16571   0.19918   0.21773   0.25557   0.27182
 Alpha virt. eigenvalues --    0.27976   0.28090   0.29756   0.30948   0.31893

 Mulliken charges:
               1
     1  C   -0.176815
     2  C   -0.220588
     3  C   -0.172623
     4  C    0.158984
     5  C   -0.170390
     6  C   -0.218685
     7  H    0.228471
     8  H    0.219853
     9  H    0.272916
    10  H    0.276090
    11  H    0.224350
    12  N    0.488123
    13  O   -0.459701
    14  O   -0.461620
    15  C   -0.173590
    16  C   -0.223191
    17  C   -0.176572
    18  C    0.159567
    19  C   -0.165533
    20  C   -0.231505
    21  H    0.231054
    22  H    0.228487
    23  H    0.279444
    24  H    0.281607
    25  H    0.227387
    26  N    0.488107
    27  O   -0.455173
    28  O   -0.458454
 Sum of Mulliken charges =  -0.00000

 Dipole moment (field-independent basis, Debye):
    X=              3.9688    Y=              5.4500    Z=              2.7456  Tot=              7.2796
 Quadrupole moment (field-independent basis, Debye-Ang):
   XX=           -144.0631   YY=           -105.4183   ZZ=            -98.2147
   XY=             14.8382   XZ=             -2.2661   YZ=             -4.4845

 Normal termination of Gaussian 16 at Fri May  7 00:21:13 2021.
