 Gaussian 16, Revision A.03,
 Gaussian 16:  EM64L-G16RevA.03 25-Dec-2016

 -------------
 #p 6-31g* mp2
 -------------

 ------------------------------------------------------
 Input file generated by CHIRIPA (05-May-2021 14:53:15)
 ------------------------------------------------------
 Symbolic Z-matrix:
 Charge =  0 Multiplicity = 1

                         Standard orientation:
 ---------------------------------------------------------------------
 Center     Atomic      Atomic             Coordinates (Angstroms)
 Number     Number       Type             X           Y           Z
 ---------------------------------------------------------------------
      1          6           0       -2.900906    0.115370   -0.022875
      2          6           0       -4.163539   -0.314354   -0.770592
      3          6           0       -4.578728   -1.751125   -0.452628
      4          1           0       -2.080650   -0.569709   -0.277420
      5          1           0       -3.070233    0.012301    1.057912
      6          1           0       -3.992355   -0.209193   -1.849598
      7          1           0       -4.980835    0.371941   -0.514386
      8          1           0       -4.776563   -1.867004    0.617902
      9          1           0       -3.782467   -2.451439   -0.724896
     10          1           0       -5.483505   -2.037547   -0.997789
     11          6           0       -2.473213    1.549336   -0.330361
     12          6           0       -1.210580    1.979060    0.417355
     13          6           0       -0.795391    3.415831    0.099391
     14          1           0       -2.303885    1.652404   -1.411148
     15          1           0       -3.293469    2.234414   -0.075816
     16          1           0       -0.393283    1.292764    0.161149
     17          1           0       -1.381764    1.873898    1.496361
     18          1           0       -1.591652    4.116144    0.371660
     19          1           0       -0.597555    3.531709   -0.971139
     20          1           0        0.109387    3.702252    0.644552
     21          6           0        0.196893   -1.934405    1.185796
     22          6           0        0.716743   -0.805505    1.827561
     23          6           0        1.770742   -0.086333    1.256223
     24          6           0        2.283179   -0.526131    0.036685
     25          6           0        1.786780   -1.646908   -0.627194
     26          6           0        0.732626   -2.350769   -0.037377
     27          1           0       -0.621939   -2.487128    1.636804
     28          1           0        0.302659   -0.479842    2.777573
     29          1           0        2.192201    0.791129    1.731462
     30          1           0        2.220344   -1.947216   -1.573374
     31          1           0        0.330895   -3.227120   -0.538043
     32          7           0        3.399082    0.227121   -0.577948
     33          8           0        3.832994   -0.180882   -1.653071
     34          8           0        3.818687    1.211259    0.027066
 ---------------------------------------------------------------------

 SCF Done:  E(RHF) =  -669.533641208     A.U. after   15 cycles
 E2 =    -0.2095276510D+01 EUMP2 =    -0.67162891771839D+03

 The electronic state is 1-A.
 Alpha  occ. eigenvalues --  -20.60833 -20.60828 -15.85889 -11.31274 -11.27855
 Alpha  occ. eigenvalues --  -11.27803 -11.27553 -11.26870 -11.26786 -11.22038
 Alpha  occ. eigenvalues --  -11.21763 -11.21685 -11.21682 -11.21599 -11.21094
 Alpha  occ. eigenvalues --   -1.59910  -1.39462  -1.19465  -1.08868  -1.08724
 Alpha  occ. eigenvalues --   -1.04867  -1.03837  -0.96302  -0.95667  -0.87312
 Alpha  occ. eigenvalues --   -0.86244  -0.82499  -0.79923  -0.78599  -0.77538
 Alpha  occ. eigenvalues --   -0.72104  -0.71238  -0.70538  -0.65405  -0.65092
 Alpha  occ. eigenvalues --   -0.64840  -0.62195  -0.61256  -0.59692  -0.57921
 Alpha  occ. eigenvalues --   -0.55599  -0.55330  -0.53422  -0.52937  -0.52884
 Alpha  occ. eigenvalues --   -0.52727  -0.50249  -0.48865  -0.48859  -0.48250
 Alpha  occ. eigenvalues --   -0.46975  -0.46106  -0.45912  -0.44859  -0.44081
 Alpha  occ. eigenvalues --   -0.37369  -0.36327
 Alpha virt. eigenvalues --    0.04973   0.11055   0.16420   0.20704   0.22886
 Alpha virt. eigenvalues --    0.23607   0.25735   0.26958   0.27391   0.27911
 Alpha virt. eigenvalues --    0.28657   0.30178   0.31231   0.31577   0.31858

 Mulliken charges:
               1
     1  C   -0.302791
     2  C   -0.299267
     3  C   -0.475150
     4  H    0.153181
     5  H    0.142308
     6  H    0.153814
     7  H    0.153492
     8  H    0.153012
     9  H    0.149379
    10  H    0.163001
    11  C   -0.297247
    12  C   -0.305596
    13  C   -0.475909
    14  H    0.151445
    15  H    0.149370
    16  H    0.163504
    17  H    0.141968
    18  H    0.154100
    19  H    0.158472
    20  H    0.161525
    21  C   -0.168781
    22  C   -0.211619
    23  C   -0.176484
    24  C    0.160929
    25  C   -0.171966
    26  C   -0.220100
    27  H    0.227566
    28  H    0.224235
    29  H    0.275988
    30  H    0.275981
    31  H    0.224032
    32  N    0.488115
    33  O   -0.460316
    34  O   -0.460191
 Sum of Mulliken charges =  -0.00000

 Dipole moment (field-independent basis, Debye):
    X=             -3.8358    Y=             -2.6520    Z=              2.1350  Tot=              5.1288
 Quadrupole moment (field-independent basis, Debye-Ang):
   XX=           -113.6264   YY=            -91.3142   ZZ=            -91.3124
   XY=             -4.6410   XZ=              4.6191   YZ=              1.7988

 Normal termination of Gaussian 16 at Wed May  5 20:16:55 2021.
