 Gaussian 16, Revision A.03,
 Gaussian 16:  EM64L-G16RevA.03 25-Dec-2016

 -------------
 #p 6-31g* mp2
 -------------

 ------------------------------------------------------
 Input file generated by CHIRIPA (05-May-2021 14:53:12)
 ------------------------------------------------------
 Symbolic Z-matrix:
 Charge =  0 Multiplicity = 1

                         Standard orientation:
 ---------------------------------------------------------------------
 Center     Atomic      Atomic             Coordinates (Angstroms)
 Number     Number       Type             X           Y           Z
 ---------------------------------------------------------------------
      1          6           0       -3.054284    0.698174    0.022606
      2          6           0       -2.768231    2.159689    0.369209
      3          6           0       -1.299774    2.537424    0.172376
      4          1           0       -2.421029    0.049959    0.643694
      5          1           0       -2.763577    0.512339   -1.020634
      6          1           0       -3.060678    2.343062    1.411066
      7          1           0       -3.402379    2.804495   -0.252641
      8          1           0       -0.998384    2.382623   -0.868683
      9          1           0       -0.654742    1.918568    0.804477
     10          1           0       -1.117615    3.586424    0.425905
     11          6           0       -4.518084    0.305405    0.214314
     12          6           0       -4.804137   -1.156110   -0.132290
     13          6           0       -6.272594   -1.533845    0.064544
     14          1           0       -4.808791    0.491240    1.257554
     15          1           0       -5.151339    0.953620   -0.406774
     16          1           0       -4.169989   -1.800916    0.489560
     17          1           0       -4.511690   -1.339483   -1.174146
     18          1           0       -6.917627   -0.914989   -0.567557
     19          1           0       -6.573984   -1.379044    1.105602
     20          1           0       -6.454754   -2.582845   -0.188986
     21          6           0        5.313019    0.437785    0.269422
     22          6           0        4.972755   -0.874749    0.612929
     23          6           0        3.670953   -1.345258    0.416766
     24          6           0        2.730278   -0.472246   -0.127541
     25          6           0        3.038503    0.840817   -0.479894
     26          6           0        4.346511    1.289877   -0.274933
     27          1           0        6.326701    0.794956    0.425223
     28          1           0        5.721297   -1.538719    1.035862
     29          1           0        3.380365   -2.356654    0.673779
     30          1           0        2.270604    1.479255   -0.899593
     31          1           0        4.607917    2.309703   -0.542640
     32          7           0        1.348833   -0.958998   -0.339866
     33          8           0        0.538429   -0.170085   -0.821007
     34          8           0        1.102618   -2.120213   -0.021125
 ---------------------------------------------------------------------

 SCF Done:  E(RHF) =  -669.535628325     A.U. after   15 cycles
 E2 =    -0.2091932700D+01 EUMP2 =    -0.67162756102533D+03

 The electronic state is 1-A.
 Alpha  occ. eigenvalues --  -20.60919 -20.60892 -15.85929 -11.31259 -11.27827
 Alpha  occ. eigenvalues --  -11.27811 -11.27565 -11.26834 -11.26821 -11.20550
 Alpha  occ. eigenvalues --  -11.20538 -11.20292 -11.20242 -11.19956 -11.19936
 Alpha  occ. eigenvalues --   -1.59971  -1.39526  -1.19429  -1.08835  -1.07273
 Alpha  occ. eigenvalues --   -1.04824  -1.02474  -0.95678  -0.94918  -0.86225
 Alpha  occ. eigenvalues --   -0.85945  -0.82513  -0.78555  -0.77564  -0.77011
 Alpha  occ. eigenvalues --   -0.72151  -0.71287  -0.70537  -0.65085  -0.64827
 Alpha  occ. eigenvalues --   -0.63919  -0.62170  -0.59889  -0.58286  -0.56514
 Alpha  occ. eigenvalues --   -0.55331  -0.54208  -0.53159  -0.52917  -0.51685
 Alpha  occ. eigenvalues --   -0.51347  -0.48929  -0.48890  -0.48857  -0.46867
 Alpha  occ. eigenvalues --   -0.45602  -0.45011  -0.44510  -0.44366  -0.42706
 Alpha  occ. eigenvalues --   -0.37411  -0.36426
 Alpha virt. eigenvalues --    0.04946   0.11217   0.16425   0.21239   0.23947
 Alpha virt. eigenvalues --    0.25173   0.26784   0.27656   0.27860   0.28785
 Alpha virt. eigenvalues --    0.29219   0.30947   0.31870   0.32395   0.32804

 Mulliken charges:
               1
     1  C   -0.295606
     2  C   -0.300458
     3  C   -0.470980
     4  H    0.158121
     5  H    0.157395
     6  H    0.146410
     7  H    0.146644
     8  H    0.160417
     9  H    0.156421
    10  H    0.147529
    11  C   -0.298634
    12  C   -0.298775
    13  C   -0.475118
    14  H    0.144990
    15  H    0.145047
    16  H    0.155251
    17  H    0.153461
    18  H    0.152628
    19  H    0.152761
    20  H    0.158378
    21  C   -0.170569
    22  C   -0.218652
    23  C   -0.170881
    24  C    0.157444
    25  C   -0.171411
    26  C   -0.218782
    27  H    0.225863
    28  H    0.223639
    29  H    0.275620
    30  H    0.277841
    31  H    0.223974
    32  N    0.489946
    33  O   -0.459937
    34  O   -0.459977
 Sum of Mulliken charges =  -0.00000

 Dipole moment (field-independent basis, Debye):
    X=              5.1466    Y=              1.5345    Z=              0.6506  Tot=              5.4098
 Quadrupole moment (field-independent basis, Debye-Ang):
   XX=            -70.7310   YY=            -93.4387   ZZ=            -94.1780
   XY=              1.0392   XZ=              2.5751   YZ=             -2.9227

 Normal termination of Gaussian 16 at Thu May  6 05:42:46 2021.
