 Gaussian 16, Revision A.03,
 Gaussian 16:  EM64L-G16RevA.03 25-Dec-2016

 -------------
 #p 6-31g* mp2
 -------------

 ------------------------------------------------------
 Input file generated by CHIRIPA (05-May-2021 14:53:16)
 ------------------------------------------------------
 Symbolic Z-matrix:
 Charge =  0 Multiplicity = 1

                         Standard orientation:
 ---------------------------------------------------------------------
 Center     Atomic      Atomic             Coordinates (Angstroms)
 Number     Number       Type             X           Y           Z
 ---------------------------------------------------------------------
      1          6           0       -5.269656    0.072686   -0.435132
      2          6           0       -6.478209   -0.487956    0.315244
      3          6           0       -7.805630    0.063073   -0.206401
      4          1           0       -5.271084    1.168232   -0.353141
      5          1           0       -5.369924   -0.160882   -1.504144
      6          1           0       -6.375007   -0.254602    1.382723
      7          1           0       -6.473798   -1.582307    0.231619
      8          1           0       -7.934988   -0.182226   -1.265503
      9          1           0       -7.835636    1.153022   -0.107858
     10          1           0       -8.656213   -0.350883    0.344062
     11          6           0       -3.935335   -0.468783    0.074894
     12          6           0       -2.726781    0.091860   -0.675482
     13          6           0       -1.399360   -0.459169   -0.153837
     14          1           0       -3.835066   -0.235214    1.143906
     15          1           0       -3.933907   -1.564328   -0.007096
     16          1           0       -2.731193    1.186211   -0.591857
     17          1           0       -2.829983   -0.141494   -1.742961
     18          1           0       -1.369354   -1.549119   -0.252380
     19          1           0       -1.270003   -0.213870    0.905265
     20          1           0       -0.548777   -0.045213   -0.704300
     21          6           0        1.589002    1.467913    0.924700
     22          6           0        1.813739    0.175913    1.411271
     23          6           0        2.922331   -0.560897    0.983855
     24          6           0        3.789700    0.027771    0.064926
     25          6           0        3.592907    1.312828   -0.438255
     26          6           0        2.477737    2.031254    0.003115
     27          1           0        0.725267    2.033144    1.262147
     28          1           0        1.125210   -0.264119    2.127054
     29          1           0        3.120244   -1.563056    1.344308
     30          1           0        4.296906    1.724774   -1.151070
     31          1           0        2.305711    3.034434   -0.376464
     32          7           0        4.966798   -0.742525   -0.394947
     33          8           0        5.716059   -0.201366   -1.205126
     34          8           0        5.117858   -1.872858    0.063492
 ---------------------------------------------------------------------

 SCF Done:  E(RHF) =  -669.534616524     A.U. after   15 cycles
 E2 =    -0.2092068434D+01 EUMP2 =    -0.67162668495816D+03

 The electronic state is 1-A.
 Alpha  occ. eigenvalues --  -20.60737 -20.60731 -15.85791 -11.31150 -11.27729
 Alpha  occ. eigenvalues --  -11.27702 -11.27451 -11.26747 -11.26704 -11.22218
 Alpha  occ. eigenvalues --  -11.21999 -11.21936 -11.21826 -11.21739 -11.21409
 Alpha  occ. eigenvalues --   -1.59813  -1.39366  -1.19331  -1.08947  -1.08726
 Alpha  occ. eigenvalues --   -1.04734  -1.04045  -0.96505  -0.95556  -0.87529
 Alpha  occ. eigenvalues --   -0.86122  -0.82389  -0.80119  -0.78748  -0.77435
 Alpha  occ. eigenvalues --   -0.72010  -0.71136  -0.70440  -0.65587  -0.64981
 Alpha  occ. eigenvalues --   -0.64742  -0.62094  -0.61441  -0.59876  -0.58104
 Alpha  occ. eigenvalues --   -0.55815  -0.55226  -0.53539  -0.52998  -0.52756
 Alpha  occ. eigenvalues --   -0.52689  -0.50446  -0.48770  -0.48764  -0.48424
 Alpha  occ. eigenvalues --   -0.47157  -0.46291  -0.46213  -0.44774  -0.44294
 Alpha  occ. eigenvalues --   -0.37241  -0.36312
 Alpha virt. eigenvalues --    0.05086   0.11279   0.16531   0.20458   0.22528
 Alpha virt. eigenvalues --    0.23960   0.25726   0.26361   0.27143   0.27865
 Alpha virt. eigenvalues --    0.28753   0.30435   0.31130   0.31319   0.31728

 Mulliken charges:
               1
     1  C   -0.298420
     2  C   -0.299901
     3  C   -0.475926
     4  H    0.148917
     5  H    0.151023
     6  H    0.151424
     7  H    0.152935
     8  H    0.156054
     9  H    0.155063
    10  H    0.161311
    11  C   -0.298293
    12  C   -0.300414
    13  C   -0.477224
    14  H    0.147085
    15  H    0.151499
    16  H    0.148160
    17  H    0.155329
    18  H    0.158204
    19  H    0.142046
    20  H    0.168278
    21  C   -0.169182
    22  C   -0.213532
    23  C   -0.172515
    24  C    0.158278
    25  C   -0.171180
    26  C   -0.220100
    27  H    0.225774
    28  H    0.224097
    29  H    0.275529
    30  H    0.275450
    31  H    0.223249
    32  N    0.488102
    33  O   -0.460656
    34  O   -0.460463
 Sum of Mulliken charges =  -0.00000

 Dipole moment (field-independent basis, Debye):
    X=             -4.2262    Y=              2.6815    Z=              1.5699  Tot=              5.2456
 Quadrupole moment (field-independent basis, Debye-Ang):
   XX=           -127.4697   YY=            -91.4482   ZZ=            -93.0300
   XY=             11.8985   XZ=              4.9179   YZ=             -1.7140

 Normal termination of Gaussian 16 at Thu May  6 17:13:40 2021.
