 Gaussian 16, Revision A.03,
 Gaussian 16:  EM64L-G16RevA.03 25-Dec-2016

 -------------
 #p 6-31g* mp2
 -------------

 ------------------------------------------------------
 Input file generated by CHIRIPA (05-May-2021 14:55:20)
 ------------------------------------------------------
 Symbolic Z-matrix:
 Charge =  0 Multiplicity = 1

                         Standard orientation:
 ---------------------------------------------------------------------
 Center     Atomic      Atomic             Coordinates (Angstroms)
 Number     Number       Type             X           Y           Z
 ---------------------------------------------------------------------
      1          6           0       -5.392111    0.655821    1.009686
      2          6           0       -4.260344    1.456482    0.823766
      3          6           0       -3.105577    0.928669    0.238553
      4          6           0       -3.117442   -0.409847   -0.150710
      5          6           0       -4.229237   -1.233052    0.021144
      6          6           0       -5.372979   -0.684028    0.608489
      7          1           0       -6.284880    1.074077    1.465122
      8          1           0       -4.272342    2.497358    1.134373
      9          1           0       -2.215449    1.526024    0.082810
     10          1           0       -4.187137   -2.267150   -0.298678
     11          1           0       -6.250462   -1.308189    0.751640
     12          7           0       -1.900777   -0.979846   -0.771377
     13          8           0       -1.936676   -2.162034   -1.105712
     14          8           0       -0.934294   -0.233630   -0.911768
     15          6           0        3.623856    0.810274    0.236227
     16          6           0        3.057594    1.591278   -0.950097
     17          6           0        1.811151    2.398376   -0.585726
     18          1           0        2.849438    0.135591    0.626133
     19          1           0        3.864252    1.511867    1.047012
     20          1           0        2.819628    0.888571   -1.758918
     21          1           0        3.833511    2.264040   -1.337343
     22          1           0        2.037824    3.121545    0.204366
     23          1           0        1.018180    1.738261   -0.219603
     24          1           0        1.422984    2.948891   -1.448350
     25          6           0        4.870128   -0.001560   -0.112282
     26          6           0        5.436390   -0.782564    1.074042
     27          6           0        6.682834   -1.589662    0.709672
     28          1           0        4.629732   -0.703154   -0.923067
     29          1           0        5.644547    0.673122   -0.502187
     30          1           0        4.660474   -1.455326    1.461289
     31          1           0        5.674356   -0.079857    1.882863
     32          1           0        7.475805   -0.929547    0.343549
     33          1           0        6.456161   -2.312832   -0.080421
     34          1           0        7.071001   -2.140177    1.572295
 ---------------------------------------------------------------------

 SCF Done:  E(RHF) =  -669.536189148     A.U. after   15 cycles
 E2 =    -0.2090843857D+01 EUMP2 =    -0.67162703300511D+03

 The electronic state is 1-A.
 Alpha  occ. eigenvalues --  -20.60932 -20.60919 -15.85970 -11.31276 -11.27841
 Alpha  occ. eigenvalues --  -11.27833 -11.27578 -11.26847 -11.26835 -11.20962
 Alpha  occ. eigenvalues --  -11.20634 -11.20619 -11.20519 -11.20481 -11.20071
 Alpha  occ. eigenvalues --   -1.59996  -1.39552  -1.19446  -1.08853  -1.07613
 Alpha  occ. eigenvalues --   -1.04840  -1.02723  -0.95699  -0.95185  -0.86241
 Alpha  occ. eigenvalues --   -0.86214  -0.82532  -0.78812  -0.77590  -0.77417
 Alpha  occ. eigenvalues --   -0.72201  -0.71310  -0.70555  -0.65105  -0.64843
 Alpha  occ. eigenvalues --   -0.64225  -0.62188  -0.60091  -0.58575  -0.56803
 Alpha  occ. eigenvalues --   -0.55346  -0.54448  -0.53174  -0.52932  -0.51907
 Alpha  occ. eigenvalues --   -0.51626  -0.49192  -0.48945  -0.48864  -0.47128
 Alpha  occ. eigenvalues --   -0.45818  -0.45020  -0.44941  -0.44831  -0.42992
 Alpha  occ. eigenvalues --   -0.37426  -0.36441
 Alpha virt. eigenvalues --    0.04936   0.11212   0.16429   0.21128   0.23667
 Alpha virt. eigenvalues --    0.24842   0.26502   0.27481   0.27776   0.28367
 Alpha virt. eigenvalues --    0.29145   0.30551   0.31649   0.32443   0.32634

 Mulliken charges:
               1
     1  C   -0.170516
     2  C   -0.218942
     3  C   -0.171227
     4  C    0.157607
     5  C   -0.170876
     6  C   -0.218631
     7  H    0.225955
     8  H    0.224144
     9  H    0.277695
    10  H    0.275693
    11  H    0.223729
    12  N    0.493697
    13  O   -0.459416
    14  O   -0.466555
    15  C   -0.299305
    16  C   -0.297441
    17  C   -0.484095
    18  H    0.156057
    19  H    0.144392
    20  H    0.159842
    21  H    0.146347
    22  H    0.145856
    23  H    0.173659
    24  H    0.155771
    25  C   -0.298321
    26  C   -0.299322
    27  C   -0.475395
    28  H    0.152387
    29  H    0.146851
    30  H    0.153090
    31  H    0.149431
    32  H    0.153686
    33  H    0.155957
    34  H    0.158193
 Sum of Mulliken charges =  -0.00000

 Dipole moment (field-independent basis, Debye):
    X=             -4.5328    Y=              1.8693    Z=              2.1389  Tot=              5.3493
 Quadrupole moment (field-independent basis, Debye-Ang):
   XX=            -68.7220   YY=            -92.9493   ZZ=            -96.2549
   XY=             -1.6081   XZ=             -6.1350   YZ=             -0.4964

 Normal termination of Gaussian 16 at Wed May  5 15:51:16 2021.
