 Gaussian 16, Revision A.03,
 Gaussian 16:  EM64L-G16RevA.03 25-Dec-2016

 -------------
 #p 6-31g* mp2
 -------------

 ------------------------------------------------------
 Input file generated by CHIRIPA (05-May-2021 14:57:21)
 ------------------------------------------------------
 Symbolic Z-matrix:
 Charge =  0 Multiplicity = 1

                         Standard orientation:
 ---------------------------------------------------------------------
 Center     Atomic      Atomic             Coordinates (Angstroms)
 Number     Number       Type             X           Y           Z
 ---------------------------------------------------------------------
      1          6           0        3.277151   -2.208948    1.242118
      2          6           0        3.831843   -1.962959   -0.018170
      3          6           0        3.768665   -0.686464   -0.584843
      4          6           0        3.140549    0.325310    0.139775
      5          6           0        2.578487    0.111629    1.397438
      6          6           0        2.653343   -1.172697    1.944662
      7          1           0        3.330765   -3.203602    1.674769
      8          1           0        4.316911   -2.765814   -0.566055
      9          1           0        4.189788   -0.468317   -1.558746
     10          1           0        2.101381    0.932098    1.919567
     11          1           0        2.221692   -1.360831    2.923604
     12          7           0        3.067484    1.680823   -0.449841
     13          8           0        2.508681    2.555192    0.208836
     14          8           0        3.570401    1.843238   -1.559495
     15          6           0       -1.123290   -0.829806   -1.547684
     16          6           0       -2.335401   -1.511437   -1.698305
     17          6           0       -3.466239   -1.116874   -0.977144
     18          6           0       -3.348776   -0.031535   -0.110234
     19          6           0       -2.155166    0.667794    0.061588
     20          6           0       -1.037193    0.255721   -0.669766
     21          1           0       -0.249825   -1.143114   -2.111859
     22          1           0       -2.405196   -2.354823   -2.379389
     23          1           0       -4.417009   -1.626742   -1.074555
     24          1           0       -2.116467    1.504818    0.748109
     25          1           0       -0.097150    0.786952   -0.550780
     26          7           0       -4.539134    0.395441    0.658623
     27          8           0       -4.409581    1.354754    1.415968
     28          8           0       -5.579149   -0.237293    0.489348
 ---------------------------------------------------------------------

 SCF Done:  E(RHF) =  -868.338501565     A.U. after   16 cycles
 E2 =    -0.2600260413D+01 EUMP2 =    -0.87093876197758D+03

 The electronic state is 1-A.
 Alpha  occ. eigenvalues --  -20.61821 -20.61816 -20.60677 -20.60669 -15.86846
 Alpha  occ. eigenvalues --  -15.85727 -11.32137 -11.31065 -11.28673 -11.28658
 Alpha  occ. eigenvalues --  -11.28335 -11.27647 -11.27643 -11.27597 -11.27586
 Alpha  occ. eigenvalues --  -11.27362 -11.26670 -11.26567  -1.60896  -1.59753
 Alpha  occ. eigenvalues --   -1.40446  -1.39306  -1.20286  -1.19232  -1.09686
 Alpha  occ. eigenvalues --   -1.08633  -1.05650  -1.04622  -0.96530  -0.95473
 Alpha  occ. eigenvalues --   -0.87051  -0.86025  -0.83347  -0.82299  -0.78425
 Alpha  occ. eigenvalues --   -0.77352  -0.73043  -0.72252  -0.71943  -0.71345
 Alpha  occ. eigenvalues --   -0.71077  -0.70340  -0.65914  -0.65619  -0.64879
 Alpha  occ. eigenvalues --   -0.64618  -0.62986  -0.61964  -0.56116  -0.55133
 Alpha  occ. eigenvalues --   -0.54025  -0.53715  -0.52959  -0.52695  -0.49824
 Alpha  occ. eigenvalues --   -0.49800  -0.48703  -0.48701  -0.45840  -0.44717
 Alpha  occ. eigenvalues --   -0.38254  -0.37317  -0.37165  -0.36210
 Alpha virt. eigenvalues --    0.04068   0.05172   0.10311   0.11448   0.15584
 Alpha virt. eigenvalues --    0.16675   0.20607   0.21415   0.26406   0.26898
 Alpha virt. eigenvalues --    0.27697   0.28411   0.30201   0.30889   0.32029

 Mulliken charges:
               1
     1  C   -0.170301
     2  C   -0.219314
     3  C   -0.174518
     4  C    0.151978
     5  C   -0.174877
     6  C   -0.216371
     7  H    0.229314
     8  H    0.225818
     9  H    0.276662
    10  H    0.276955
    11  H    0.228493
    12  N    0.486700
    13  O   -0.459931
    14  O   -0.456222
    15  C   -0.170908
    16  C   -0.218989
    17  C   -0.171889
    18  C    0.158403
    19  C   -0.173652
    20  C   -0.220719
    21  H    0.224580
    22  H    0.221759
    23  H    0.274646
    24  H    0.277650
    25  H    0.228182
    26  N    0.487954
    27  O   -0.460020
    28  O   -0.461384
 Sum of Mulliken charges =  -0.00000

 Dipole moment (field-independent basis, Debye):
    X=              4.6856    Y=             -6.3361    Z=             -0.5263  Tot=              7.8980
 Quadrupole moment (field-independent basis, Debye-Ang):
   XX=           -129.5685   YY=           -105.2960   ZZ=           -100.0516
   XY=             -9.1894   XZ=             14.4550   YZ=              3.3533

 Normal termination of Gaussian 16 at Thu May  6 21:02:50 2021.
