 Gaussian 16, Revision A.03,
 Gaussian 16:  EM64L-G16RevA.03 25-Dec-2016

 -------------
 #p 6-31g* mp2
 -------------

 ------------------------------------------------------
 Input file generated by CHIRIPA (05-May-2021 14:57:22)
 ------------------------------------------------------
 Symbolic Z-matrix:
 Charge =  0 Multiplicity = 1

                         Standard orientation:
 ---------------------------------------------------------------------
 Center     Atomic      Atomic             Coordinates (Angstroms)
 Number     Number       Type             X           Y           Z
 ---------------------------------------------------------------------
      1          6           0       -4.571936   -0.899149    0.206054
      2          6           0       -4.415849    0.378653    0.753211
      3          6           0       -3.278405    1.139481    0.467013
      4          6           0       -2.312493    0.589047   -0.374014
      5          6           0       -2.439148   -0.681013   -0.934545
      6          6           0       -3.584827   -1.423978   -0.634595
      7          1           0       -5.458728   -1.483240    0.433721
      8          1           0       -5.180826    0.788789    1.406392
      9          1           0       -3.132105    2.131399    0.877028
     10          1           0       -1.659460   -1.063024   -1.582289
     11          1           0       -3.703377   -2.416054   -1.060947
     12          7           0       -1.103973    1.385047   -0.684278
     13          8           0       -0.267458    0.877460   -1.428076
     14          8           0       -1.016133    2.501465   -0.177790
     15          6           0        0.343884   -1.558130    0.998172
     16          6           0        1.064089   -2.044566   -0.097825
     17          6           0        2.266404   -1.442766   -0.480999
     18          6           0        2.721245   -0.351487    0.257593
     19          6           0        2.026500    0.156313    1.354297
     20          6           0        0.826538   -0.461177    1.719462
     21          1           0       -0.589189   -2.031717    1.288835
     22          1           0        0.691662   -2.896323   -0.659834
     23          1           0        2.844090   -1.798920   -1.325304
     24          1           0        2.423128    1.006987    1.895091
     25          1           0        0.269328   -0.081263    2.571065
     26          7           0        3.992837    0.293917   -0.138523
     27          8           0        4.372129    1.253985    0.528594
     28          8           0        4.586140   -0.172503   -1.108616
 ---------------------------------------------------------------------

 SCF Done:  E(RHF) =  -868.335828581     A.U. after   16 cycles
 E2 =    -0.2605690293D+01 EUMP2 =    -0.87094151887394D+03

 The electronic state is 1-A.
 Alpha  occ. eigenvalues --  -20.61211 -20.61167 -20.59960 -20.59950 -15.86232
 Alpha  occ. eigenvalues --  -15.85016 -11.31822 -11.30399 -11.28436 -11.28422
 Alpha  occ. eigenvalues --  -11.28203 -11.27508 -11.27451 -11.27100 -11.27060
 Alpha  occ. eigenvalues --  -11.26926 -11.26172 -11.26103  -1.60250  -1.59023
 Alpha  occ. eigenvalues --   -1.39804  -1.38581  -1.20044  -1.18640  -1.09377
 Alpha  occ. eigenvalues --   -1.08076  -1.05480  -1.04096  -0.96177  -0.94889
 Alpha  occ. eigenvalues --   -0.86849  -0.85529  -0.83013  -0.81737  -0.78027
 Alpha  occ. eigenvalues --   -0.76737  -0.72478  -0.71622  -0.71263  -0.71124
 Alpha  occ. eigenvalues --   -0.70310  -0.69862  -0.65678  -0.65463  -0.64354
 Alpha  occ. eigenvalues --   -0.64188  -0.62810  -0.61468  -0.55941  -0.54789
 Alpha  occ. eigenvalues --   -0.53735  -0.53557  -0.52355  -0.52251  -0.49253
 Alpha  occ. eigenvalues --   -0.49202  -0.48016  -0.47993  -0.45093  -0.43985
 Alpha  occ. eigenvalues --   -0.38208  -0.37306  -0.36244  -0.35634
 Alpha virt. eigenvalues --    0.04461   0.05795   0.10496   0.11968   0.15916
 Alpha virt. eigenvalues --    0.17270   0.20583   0.21902   0.26282   0.27301
 Alpha virt. eigenvalues --    0.28281   0.28811   0.30196   0.31208   0.32084

 Mulliken charges:
               1
     1  C   -0.171589
     2  C   -0.219445
     3  C   -0.173554
     4  C    0.158629
     5  C   -0.174048
     6  C   -0.223596
     7  H    0.227326
     8  H    0.225448
     9  H    0.277233
    10  H    0.276280
    11  H    0.223095
    12  N    0.490982
    13  O   -0.455505
    14  O   -0.460765
    15  C   -0.174549
    16  C   -0.216790
    17  C   -0.159952
    18  C    0.167541
    19  C   -0.160291
    20  C   -0.227860
    21  H    0.220788
    22  H    0.213642
    23  H    0.273938
    24  H    0.276893
    25  H    0.220454
    26  N    0.488669
    27  O   -0.460378
    28  O   -0.462597
 Sum of Mulliken charges =  -0.00000

 Dipole moment (field-independent basis, Debye):
    X=             -8.6083    Y=             -4.8080    Z=              2.3643  Tot=             10.1394
 Quadrupole moment (field-independent basis, Debye-Ang):
   XX=           -109.8872   YY=           -102.8158   ZZ=           -101.4847
   XY=             -2.3601   XZ=              0.0156   YZ=              6.0720

 Normal termination of Gaussian 16 at Wed May  5 19:21:43 2021.
