 Gaussian 16, Revision A.03,
 Gaussian 16:  EM64L-G16RevA.03 25-Dec-2016

 -------------
 #p 6-31g* mp2
 -------------

 ------------------------------------------------------
 Input file generated by CHIRIPA (05-May-2021 14:53:12)
 ------------------------------------------------------
 Symbolic Z-matrix:
 Charge =  0 Multiplicity = 1

                         Standard orientation:
 ---------------------------------------------------------------------
 Center     Atomic      Atomic             Coordinates (Angstroms)
 Number     Number       Type             X           Y           Z
 ---------------------------------------------------------------------
      1          6           0       -3.282632   -0.262310   -0.485854
      2          6           0       -2.343567    0.915386   -0.748860
      3          6           0       -0.925744    0.471640   -1.110330
      4          1           0       -2.870994   -0.876986    0.326348
      5          1           0       -3.314235   -0.903333   -1.377754
      6          1           0       -2.314819    1.554742    0.142776
      7          1           0       -2.757586    1.527436   -1.560401
      8          1           0       -0.934375   -0.148281   -2.012673
      9          1           0       -0.489093   -0.120820   -0.299819
     10          1           0       -0.271243    1.329352   -1.294228
     11          6           0       -4.703711    0.165244   -0.123279
     12          6           0       -5.642776   -1.012453    0.139727
     13          6           0       -7.060600   -0.568706    0.501197
     14          1           0       -4.672109    0.806267    0.768622
     15          1           0       -5.115349    0.779920   -0.935481
     16          1           0       -5.228758   -1.624502    0.951268
     17          1           0       -5.671524   -1.651808   -0.751909
     18          1           0       -7.497250    0.023754   -0.309314
     19          1           0       -7.051968    0.051215    1.403540
     20          1           0       -7.715101   -1.426418    0.685095
     21          6           0        1.863574    2.159793    0.772541
     22          6           0        1.576260    0.981703    1.469731
     23          6           0        2.265942   -0.199839    1.181896
     24          6           0        3.241099   -0.167218    0.186260
     25          6           0        3.550147    0.990642   -0.525878
     26          6           0        2.847864    2.160502   -0.221286
     27          1           0        1.322918    3.073106    1.002646
     28          1           0        0.812357    0.978201    2.242055
     29          1           0        2.063622   -1.125907    1.706188
     30          1           0        4.317018    0.963031   -1.290445
     31          1           0        3.073103    3.073951   -0.764353
     32          7           0        3.977904   -1.411880   -0.127328
     33          8           0        4.832482   -1.356884   -1.008979
     34          8           0        3.686883   -2.418874    0.514472
 ---------------------------------------------------------------------

 SCF Done:  E(RHF) =  -669.534208492     A.U. after   15 cycles
 E2 =    -0.2093048537D+01 EUMP2 =    -0.67162725702919D+03

 The electronic state is 1-A.
 Alpha  occ. eigenvalues --  -20.60778 -20.60773 -15.85832 -11.31220 -11.27786
 Alpha  occ. eigenvalues --  -11.27769 -11.27507 -11.26814 -11.26779 -11.21975
 Alpha  occ. eigenvalues --  -11.21841 -11.21713 -11.21652 -11.21290 -11.21178
 Alpha  occ. eigenvalues --   -1.59852  -1.39405  -1.19392  -1.08796  -1.08717
 Alpha  occ. eigenvalues --   -1.04807  -1.03797  -0.96230  -0.95614  -0.87245
 Alpha  occ. eigenvalues --   -0.86196  -0.82451  -0.79868  -0.78545  -0.77493
 Alpha  occ. eigenvalues --   -0.72051  -0.71174  -0.70499  -0.65373  -0.65047
 Alpha  occ. eigenvalues --   -0.64806  -0.62151  -0.61221  -0.59626  -0.57854
 Alpha  occ. eigenvalues --   -0.55610  -0.55298  -0.53476  -0.52895  -0.52660
 Alpha  occ. eigenvalues --   -0.52516  -0.50115  -0.48811  -0.48804  -0.48185
 Alpha  occ. eigenvalues --   -0.46910  -0.46079  -0.46020  -0.44806  -0.44054
 Alpha  occ. eigenvalues --   -0.37307  -0.36328
 Alpha virt. eigenvalues --    0.05014   0.11189   0.16448   0.20993   0.22685
 Alpha virt. eigenvalues --    0.24122   0.26233   0.27096   0.27332   0.27832
 Alpha virt. eigenvalues --    0.28353   0.30781   0.31260   0.31613   0.31924

 Mulliken charges:
               1
     1  C   -0.297801
     2  C   -0.299980
     3  C   -0.476336
     4  H    0.148034
     5  H    0.152344
     6  H    0.143678
     7  H    0.152205
     8  H    0.156379
     9  H    0.155922
    10  H    0.158598
    11  C   -0.298056
    12  C   -0.299839
    13  C   -0.475789
    14  H    0.147299
    15  H    0.150145
    16  H    0.151914
    17  H    0.153357
    18  H    0.155470
    19  H    0.154457
    20  H    0.161313
    21  C   -0.169187
    22  C   -0.214153
    23  C   -0.172320
    24  C    0.160480
    25  C   -0.170506
    26  C   -0.219013
    27  H    0.225755
    28  H    0.223289
    29  H    0.275508
    30  H    0.275822
    31  H    0.223649
    32  N    0.488060
    33  O   -0.460271
    34  O   -0.460426
 Sum of Mulliken charges =  -0.00000

 Dipole moment (field-independent basis, Debye):
    X=             -2.5420    Y=              4.3666    Z=              1.0923  Tot=              5.1693
 Quadrupole moment (field-independent basis, Debye-Ang):
   XX=           -111.7870   YY=            -95.6064   ZZ=            -91.4178
   XY=             16.6280   XZ=              1.6044   YZ=             -1.3104

 Normal termination of Gaussian 16 at Thu May  6 13:38:36 2021.
