 Gaussian 16, Revision A.03,
 Gaussian 16:  EM64L-G16RevA.03 25-Dec-2016

 -------------
 #p 6-31g* mp2
 -------------

 ------------------------------------------------------
 Input file generated by CHIRIPA (05-May-2021 14:51:12)
 ------------------------------------------------------
 Symbolic Z-matrix:
 Charge =  0 Multiplicity = 1

                         Standard orientation:
 ---------------------------------------------------------------------
 Center     Atomic      Atomic             Coordinates (Angstroms)
 Number     Number       Type             X           Y           Z
 ---------------------------------------------------------------------
      1          6           0       -2.919733    1.115797   -0.182069
      2          6           0       -1.898645    1.275477    0.944815
      3          6           0       -0.929450    2.433397    0.704656
      4          1           0       -2.388007    0.960025   -1.130725
      5          1           0       -3.484989    2.051798   -0.290614
      6          1           0       -1.336427    0.338987    1.052122
      7          1           0       -2.432866    1.430695    1.890928
      8          1           0       -1.473421    3.379632    0.619007
      9          1           0       -0.370752    2.281722   -0.224565
     10          1           0       -0.208277    2.529466    1.522299
     11          6           0       -3.895587   -0.037680    0.043602
     12          6           0       -4.916675   -0.197361   -1.083282
     13          6           0       -5.885869   -1.355281   -0.843124
     14          1           0       -3.330331   -0.973682    0.152147
     15          1           0       -4.427313    0.118091    0.992258
     16          1           0       -4.382453   -0.352579   -2.029396
     17          1           0       -5.478893    0.739129   -1.190589
     18          1           0       -6.444567   -1.203606    0.086098
     19          1           0       -5.341898   -2.301516   -0.757475
     20          1           0       -6.607043   -1.451350   -1.660766
     21          6           0        2.976663   -0.705468    0.677495
     22          6           0        1.607657   -1.279947    0.311735
     23          6           0        0.757040   -1.607837    1.539226
     24          1           0        3.510659   -1.424218    1.314044
     25          1           0        2.836392    0.202242    1.280637
     26          1           0        1.750458   -2.185534   -0.291703
     27          1           0        1.076936   -0.559829   -0.324175
     28          1           0        0.585159   -0.708937    2.140090
     29          1           0        1.262508   -2.343879    2.172745
     30          1           0       -0.217313   -2.017189    1.254751
     31          6           0        3.838656   -0.372648   -0.539028
     32          6           0        5.207662    0.201831   -0.173268
     33          6           0        6.058280    0.529721   -1.400758
     34          1           0        3.978927   -1.280358   -1.142170
     35          1           0        3.304661    0.346102   -1.175576
     36          1           0        5.738383   -0.518287    0.462642
     37          1           0        5.064861    1.107417    0.430171
     38          1           0        5.552812    1.265762   -2.034277
     39          1           0        6.230161   -0.369178   -2.001622
     40          1           0        7.032633    0.939073   -1.116283
 ---------------------------------------------------------------------

 SCF Done:  E(RHF) =  -470.732905848     A.U. after   11 cycles
 E2 =    -0.1583462512D+01 EUMP2 =    -0.47231636835945D+03

 The electronic state is 1-A.
 Alpha  occ. eigenvalues --  -11.21659 -11.21613 -11.21593 -11.21494 -11.21430
 Alpha  occ. eigenvalues --  -11.21389 -11.21370 -11.21326 -11.21123 -11.21097
 Alpha  occ. eigenvalues --  -11.21079 -11.21065  -1.08470  -1.08401  -1.03603
 Alpha  occ. eigenvalues --   -1.03481  -0.96036  -0.95959  -0.87056  -0.86971
 Alpha  occ. eigenvalues --   -0.79672  -0.79536  -0.78274  -0.78219  -0.65227
 Alpha  occ. eigenvalues --   -0.64938  -0.61245  -0.60668  -0.59404  -0.59311
 Alpha  occ. eigenvalues --   -0.57631  -0.57583  -0.55402  -0.55157  -0.52742
 Alpha  occ. eigenvalues --   -0.52653  -0.52443  -0.52388  -0.50088  -0.49818
 Alpha  occ. eigenvalues --   -0.47954  -0.47865  -0.46761  -0.46482  -0.45833
 Alpha  occ. eigenvalues --   -0.45747  -0.45736  -0.45617  -0.43812  -0.43765
 Alpha virt. eigenvalues --    0.20134   0.23038   0.23719   0.24806   0.26019
 Alpha virt. eigenvalues --    0.26407   0.26502   0.27766   0.28094   0.29359
 Alpha virt. eigenvalues --    0.30429   0.31306   0.31727   0.31978   0.32276

 Mulliken charges:
               1
     1  C   -0.297671
     2  C   -0.310680
     3  C   -0.476069
     4  H    0.148986
     5  H    0.149182
     6  H    0.166242
     7  H    0.151361
     8  H    0.155476
     9  H    0.154514
    10  H    0.159183
    11  C   -0.298504
    12  C   -0.299646
    13  C   -0.475694
    14  H    0.149150
    15  H    0.149802
    16  H    0.151922
    17  H    0.151988
    18  H    0.155202
    19  H    0.155106
    20  H    0.160232
    21  C   -0.298335
    22  C   -0.302079
    23  C   -0.480281
    24  H    0.149774
    25  H    0.150202
    26  H    0.152177
    27  H    0.153483
    28  H    0.158016
    29  H    0.156958
    30  H    0.159827
    31  C   -0.298315
    32  C   -0.299724
    33  C   -0.475741
    34  H    0.149465
    35  H    0.149643
    36  H    0.151936
    37  H    0.152175
    38  H    0.155271
    39  H    0.155135
    40  H    0.160332
 Sum of Mulliken charges =  -0.00000

 Dipole moment (field-independent basis, Debye):
    X=              0.0250    Y=             -0.0225    Z=              0.0191  Tot=              0.0386
 Quadrupole moment (field-independent basis, Debye-Ang):
   XX=            -85.3816   YY=            -84.2751   ZZ=            -85.1589
   XY=             -1.5913   XZ=              0.2899   YZ=              0.5252

 Normal termination of Gaussian 16 at Wed May  5 23:10:23 2021.
