 Gaussian 16, Revision A.03,
 Gaussian 16:  EM64L-G16RevA.03 25-Dec-2016

 -------------
 #p 6-31g* mp2
 -------------

 ------------------------------------------------------
 Input file generated by CHIRIPA (05-May-2021 14:57:21)
 ------------------------------------------------------
 Symbolic Z-matrix:
 Charge =  0 Multiplicity = 1

                         Standard orientation:
 ---------------------------------------------------------------------
 Center     Atomic      Atomic             Coordinates (Angstroms)
 Number     Number       Type             X           Y           Z
 ---------------------------------------------------------------------
      1          6           0       -2.200622   -2.396601    0.949838
      2          6           0       -3.309179   -2.039361    0.175240
      3          6           0       -3.497836   -0.713269   -0.225305
      4          6           0       -2.554035    0.234121    0.168372
      5          6           0       -1.439339   -0.090591    0.939931
      6          6           0       -1.270879   -1.422793    1.329043
      7          1           0       -2.061914   -3.429114    1.256550
      8          1           0       -4.032846   -2.793521   -0.120723
      9          1           0       -4.347032   -0.409162   -0.825142
     10          1           0       -0.734983    0.683452    1.219500
     11          1           0       -0.409015   -1.697343    1.930588
     12          7           0       -2.743067    1.641230   -0.249615
     13          8           0       -1.897198    2.457089    0.110269
     14          8           0       -3.733520    1.901618   -0.929202
     15          6           0        2.864812    2.383776    0.508434
     16          6           0        3.727370    1.379090    0.959125
     17          6           0        3.547398    0.053654    0.552462
     18          6           0        2.489823   -0.232882   -0.309352
     19          6           0        1.613578    0.745885   -0.775722
     20          6           0        1.812524    2.064530   -0.356027
     21          1           0        3.011990    3.410769    0.829401
     22          1           0        4.545437    1.624105    1.630526
     23          1           0        4.200285   -0.743753    0.886077
     24          1           0        0.807009    0.470906   -1.444490
     25          1           0        1.141092    2.842726   -0.707642
     26          7           0        2.289251   -1.632467   -0.746766
     27          8           0        1.349996   -1.858956   -1.506463
     28          8           0        3.075096   -2.476473   -0.321632
 ---------------------------------------------------------------------

 SCF Done:  E(RHF) =  -868.339917973     A.U. after   16 cycles
 E2 =    -0.2601921721D+01 EUMP2 =    -0.87094183969408D+03

 The electronic state is 1-A.
 Alpha  occ. eigenvalues --  -20.61134 -20.61069 -20.61065 -20.61025 -15.86133
 Alpha  occ. eigenvalues --  -15.86081 -11.31304 -11.31110 -11.27858 -11.27738
 Alpha  occ. eigenvalues --  -11.27640 -11.27624 -11.27453 -11.27266 -11.26830
 Alpha  occ. eigenvalues --  -11.26588 -11.26550 -11.26537  -1.60177  -1.60130
 Alpha  occ. eigenvalues --   -1.39743  -1.39681  -1.19448  -1.19242  -1.08845
 Alpha  occ. eigenvalues --   -1.08698  -1.04802  -1.04579  -0.95718  -0.95596
 Alpha  occ. eigenvalues --   -0.86178  -0.86005  -0.82544  -0.82437  -0.77673
 Alpha  occ. eigenvalues --   -0.77495  -0.72367  -0.72297  -0.71511  -0.71459
 Alpha  occ. eigenvalues --   -0.70517  -0.70316  -0.65057  -0.64903  -0.64701
 Alpha  occ. eigenvalues --   -0.64594  -0.62120  -0.61943  -0.55250  -0.55087
 Alpha  occ. eigenvalues --   -0.53286  -0.52952  -0.52729  -0.52596  -0.49135
 Alpha  occ. eigenvalues --   -0.49081  -0.49066  -0.49039  -0.45236  -0.45110
 Alpha  occ. eigenvalues --   -0.37471  -0.37162  -0.36578  -0.35888
 Alpha virt. eigenvalues --    0.04684   0.05085   0.10923   0.11790   0.16301
 Alpha virt. eigenvalues --    0.16598   0.21555   0.21695   0.27413   0.27519
 Alpha virt. eigenvalues --    0.28290   0.28572   0.30985   0.31488   0.32439

 Mulliken charges:
               1
     1  C   -0.163605
     2  C   -0.217496
     3  C   -0.169793
     4  C    0.154346
     5  C   -0.175435
     6  C   -0.215852
     7  H    0.229517
     8  H    0.224395
     9  H    0.274565
    10  H    0.274835
    11  H    0.224500
    12  N    0.488505
    13  O   -0.472119
    14  O   -0.457332
    15  C   -0.172979
    16  C   -0.219086
    17  C   -0.174866
    18  C    0.154350
    19  C   -0.179455
    20  C   -0.219393
    21  H    0.229067
    22  H    0.223391
    23  H    0.273886
    24  H    0.277580
    25  H    0.243849
    26  N    0.486824
    27  O   -0.458622
    28  O   -0.463574
 Sum of Mulliken charges =  -0.00000

 Dipole moment (field-independent basis, Debye):
    X=              1.2537    Y=             -0.0625    Z=              2.9473  Tot=              3.2035
 Quadrupole moment (field-independent basis, Debye-Ang):
   XX=            -98.6884   YY=           -109.1225   ZZ=           -103.8376
   XY=             26.0977   XZ=              4.7257   YZ=             -2.8393

 Normal termination of Gaussian 16 at Thu May  6 03:21:20 2021.
