 Gaussian 16, Revision A.03,
 Gaussian 16:  EM64L-G16RevA.03 25-Dec-2016

 -------------
 #p 6-31g* mp2
 -------------

 ------------------------------------------------------
 Input file generated by CHIRIPA (05-May-2021 14:57:26)
 ------------------------------------------------------
 Symbolic Z-matrix:
 Charge =  0 Multiplicity = 1

                         Standard orientation:
 ---------------------------------------------------------------------
 Center     Atomic      Atomic             Coordinates (Angstroms)
 Number     Number       Type             X           Y           Z
 ---------------------------------------------------------------------
      1          6           0       -3.335101    2.217827   -0.792644
      2          6           0       -2.408888    1.179693   -0.647972
      3          6           0       -2.825557   -0.092563   -0.245109
      4          6           0       -4.182162   -0.292389    0.005850
      5          6           0       -5.129166    0.721616   -0.129308
      6          6           0       -4.689895    1.985884   -0.533308
      7          1           0       -3.002644    3.203043   -1.106040
      8          1           0       -1.356109    1.356931   -0.848690
      9          1           0       -2.129863   -0.914175   -0.125183
     10          1           0       -6.172011    0.514466    0.078013
     11          1           0       -5.411442    2.790233   -0.644831
     12          7           0       -4.635235   -1.635041    0.432945
     13          8           0       -5.835993   -1.785363    0.647931
     14          8           0       -3.781015   -2.511667    0.544629
     15          6           0        2.167410    1.566655    0.668969
     16          6           0        3.425819    1.788170    1.238057
     17          6           0        4.507925    0.965813    0.910452
     18          6           0        4.295050   -0.073481    0.006106
     19          6           0        3.053343   -0.319677   -0.577708
     20          6           0        1.985509    0.515292   -0.235502
     21          1           0        1.332348    2.210382    0.929132
     22          1           0        3.570012    2.603913    1.940778
     23          1           0        5.492798    1.114806    1.336180
     24          1           0        2.940440   -1.140847   -1.275097
     25          1           0        1.009329    0.340903   -0.679018
     26          7           0        5.433073   -0.950750   -0.348443
     27          8           0        5.219496   -1.859619   -1.147805
     28          8           0        6.517083   -0.712872    0.179737
 ---------------------------------------------------------------------

 SCF Done:  E(RHF) =  -868.336248512     A.U. after   16 cycles
 E2 =    -0.2599707702D+01 EUMP2 =    -0.87093595621381D+03

 The electronic state is 1-A.
 Alpha  occ. eigenvalues --  -20.61320 -20.61314 -20.61108 -20.61103 -15.86382
 Alpha  occ. eigenvalues --  -15.86169 -11.31906 -11.31675 -11.28575 -11.28468
 Alpha  occ. eigenvalues --  -11.28307 -11.28304 -11.28254 -11.28124 -11.27694
 Alpha  occ. eigenvalues --  -11.27492 -11.27462 -11.27296  -1.60393  -1.60181
 Alpha  occ. eigenvalues --   -1.39942  -1.39730  -1.20112  -1.19885  -1.09475
 Alpha  occ. eigenvalues --   -1.09269  -1.05560  -1.05318  -0.96277  -0.96069
 Alpha  occ. eigenvalues --   -0.86955  -0.86722  -0.83127  -0.82901  -0.78155
 Alpha  occ. eigenvalues --   -0.77903  -0.72596  -0.72386  -0.71720  -0.71505
 Alpha  occ. eigenvalues --   -0.71213  -0.71019  -0.65780  -0.65723  -0.65542
 Alpha  occ. eigenvalues --   -0.65272  -0.62973  -0.62593  -0.56042  -0.55857
 Alpha  occ. eigenvalues --   -0.53854  -0.53733  -0.53626  -0.53372  -0.49369
 Alpha  occ. eigenvalues --   -0.49341  -0.49157  -0.49128  -0.45313  -0.45104
 Alpha  occ. eigenvalues --   -0.38091  -0.37890  -0.37161  -0.36913
 Alpha virt. eigenvalues --    0.04427   0.04644   0.10480   0.10718   0.15861
 Alpha virt. eigenvalues --    0.16083   0.17324   0.22016   0.24404   0.26730
 Alpha virt. eigenvalues --    0.27898   0.28593   0.30062   0.31084   0.31941

 Mulliken charges:
               1
     1  C   -0.170692
     2  C   -0.222848
     3  C   -0.170544
     4  C    0.159088
     5  C   -0.169389
     6  C   -0.218257
     7  H    0.226760
     8  H    0.216177
     9  H    0.274271
    10  H    0.278321
    11  H    0.226096
    12  N    0.488059
    13  O   -0.458120
    14  O   -0.459014
    15  C   -0.170756
    16  C   -0.218166
    17  C   -0.169658
    18  C    0.159283
    19  C   -0.169313
    20  C   -0.221485
    21  H    0.221942
    22  H    0.225146
    23  H    0.277734
    24  H    0.278347
    25  H    0.216572
    26  N    0.487918
    27  O   -0.458574
    28  O   -0.458897
 Sum of Mulliken charges =  -0.00000

 Dipole moment (field-independent basis, Debye):
    X=             -2.4482    Y=              7.7758    Z=             -0.1940  Tot=              8.1544
 Quadrupole moment (field-independent basis, Debye-Ang):
   XX=           -144.5968   YY=           -107.0284   ZZ=           -104.3152
   XY=             -6.8847   XZ=             13.6440   YZ=              2.4232

 Normal termination of Gaussian 16 at Fri May  7 12:42:03 2021.
