 Gaussian 16, Revision A.03,
 Gaussian 16:  EM64L-G16RevA.03 25-Dec-2016

 -------------
 #p 6-31g* mp2
 -------------

 ------------------------------------------------------
 Input file generated by CHIRIPA (05-May-2021 14:53:14)
 ------------------------------------------------------
 Symbolic Z-matrix:
 Charge =  0 Multiplicity = 1

                         Standard orientation:
 ---------------------------------------------------------------------
 Center     Atomic      Atomic             Coordinates (Angstroms)
 Number     Number       Type             X           Y           Z
 ---------------------------------------------------------------------
      1          6           0        2.642434    1.230258    0.464592
      2          6           0        1.799125    2.005725   -0.548061
      3          6           0        0.872370    3.026567    0.112848
      4          1           0        1.975668    0.718330    1.171909
      5          1           0        3.238604    1.939965    1.054756
      6          1           0        1.205758    1.294671   -1.137073
      7          1           0        2.467972    2.515711   -1.253166
      8          1           0        1.451265    3.758248    0.685670
      9          1           0        0.181879    2.530270    0.802422
     10          1           0        0.278855    3.569535   -0.629302
     11          6           0        3.574000    0.205910   -0.180872
     12          6           0        4.417310   -0.569557    0.831781
     13          6           0        5.344064   -1.590399    0.170872
     14          1           0        2.977831   -0.503797   -0.771036
     15          1           0        4.240766    0.717838   -0.888189
     16          1           0        3.748462   -1.079543    1.536886
     17          1           0        5.010676    0.141497    1.420793
     18          1           0        6.034555   -1.094102   -0.518702
     19          1           0        4.765169   -2.322080   -0.401950
     20          1           0        5.937580   -2.133367    0.913022
     21          6           0       -4.312135    1.016237    0.463093
     22          6           0       -3.225187    1.469360   -0.291723
     23          6           0       -2.175788    0.604261   -0.615626
     24          6           0       -2.246172   -0.713485   -0.166313
     25          6           0       -3.315565   -1.194813    0.587354
     26          6           0       -4.353780   -0.312062    0.899453
     27          1           0       -5.122989    1.695123    0.710124
     28          1           0       -3.190172    2.500409   -0.631951
     29          1           0       -1.322346    0.928697   -1.198546
     30          1           0       -3.322313   -2.228141    0.912323
     31          1           0       -5.196664   -0.666725    1.485803
     32          7           0       -1.141140   -1.638671   -0.502967
     33          8           0       -1.226919   -2.794940   -0.095144
     34          8           0       -0.210160   -1.190042   -1.168283
 ---------------------------------------------------------------------

 SCF Done:  E(RHF) =  -669.536277153     A.U. after   15 cycles
 E2 =    -0.2092931031D+01 EUMP2 =    -0.67162920818405D+03

 The electronic state is 1-A.
 Alpha  occ. eigenvalues --  -20.61010 -20.61004 -15.86035 -11.31296 -11.27860
 Alpha  occ. eigenvalues --  -11.27832 -11.27582 -11.26855 -11.26835 -11.21167
 Alpha  occ. eigenvalues --  -11.21104 -11.20821 -11.20787 -11.20453 -11.20304
 Alpha  occ. eigenvalues --   -1.60067  -1.39625  -1.19464  -1.08878  -1.07773
 Alpha  occ. eigenvalues --   -1.04849  -1.03009  -0.95732  -0.95476  -0.86496
 Alpha  occ. eigenvalues --   -0.86252  -0.82565  -0.79074  -0.77678  -0.77489
 Alpha  occ. eigenvalues --   -0.72267  -0.71378  -0.70576  -0.65124  -0.64884
 Alpha  occ. eigenvalues --   -0.64352  -0.62227  -0.60359  -0.58893  -0.57076
 Alpha  occ. eigenvalues --   -0.55363  -0.54764  -0.53174  -0.52921  -0.52227
 Alpha  occ. eigenvalues --   -0.51905  -0.49472  -0.49007  -0.48972  -0.47381
 Alpha  occ. eigenvalues --   -0.46054  -0.45222  -0.45063  -0.44775  -0.43216
 Alpha  occ. eigenvalues --   -0.37442  -0.36430
 Alpha virt. eigenvalues --    0.04854   0.11172   0.16340   0.20514   0.23457
 Alpha virt. eigenvalues --    0.24432   0.26835   0.27204   0.27663   0.28433
 Alpha virt. eigenvalues --    0.29531   0.30357   0.31705   0.31855   0.32215

 Mulliken charges:
               1
     1  C   -0.293913
     2  C   -0.313418
     3  C   -0.480012
     4  H    0.149280
     5  H    0.145097
     6  H    0.170566
     7  H    0.150567
     8  H    0.157045
     9  H    0.153977
    10  H    0.149825
    11  C   -0.304935
    12  C   -0.299059
    13  C   -0.476261
    14  H    0.169974
    15  H    0.145050
    16  H    0.153425
    17  H    0.147266
    18  H    0.152498
    19  H    0.160627
    20  H    0.157483
    21  C   -0.170299
    22  C   -0.220829
    23  C   -0.170812
    24  C    0.155451
    25  C   -0.170386
    26  C   -0.218788
    27  H    0.226185
    28  H    0.225151
    29  H    0.282986
    30  H    0.275673
    31  H    0.223828
    32  N    0.490547
    33  O   -0.458665
    34  O   -0.465125
 Sum of Mulliken charges =  -0.00000

 Dipole moment (field-independent basis, Debye):
    X=             -4.0240    Y=              3.0323    Z=              1.1181  Tot=              5.1612
 Quadrupole moment (field-independent basis, Debye-Ang):
   XX=            -77.0025   YY=            -97.6273   ZZ=            -94.7764
   XY=             -1.9503   XZ=             -3.5440   YZ=             -3.7430

 Normal termination of Gaussian 16 at Thu May  6 08:58:19 2021.
