 Gaussian 16, Revision A.03,
 Gaussian 16:  EM64L-G16RevA.03 25-Dec-2016

 -------------
 #p 6-31g* mp2
 -------------

 ------------------------------------------------------
 Input file generated by CHIRIPA (05-May-2021 14:57:24)
 ------------------------------------------------------
 Symbolic Z-matrix:
 Charge =  0 Multiplicity = 1

                         Standard orientation:
 ---------------------------------------------------------------------
 Center     Atomic      Atomic             Coordinates (Angstroms)
 Number     Number       Type             X           Y           Z
 ---------------------------------------------------------------------
      1          6           0        2.349872    2.380413    0.128243
      2          6           0        3.113848    1.973304   -0.970448
      3          6           0        3.654213    0.684904   -1.021225
      4          6           0        3.409667   -0.174353    0.048899
      5          6           0        2.652650    0.201763    1.157390
      6          6           0        2.122113    1.494904    1.186790
      7          1           0        1.933920    3.383114    0.159385
      8          1           0        3.292359    2.658875   -1.793960
      9          1           0        4.249322    0.343708   -1.859585
     10          1           0        2.491878   -0.504061    1.963233
     11          1           0        1.529183    1.808341    2.041328
     12          7           0        3.976525   -1.540834    0.006460
     13          8           0        3.746579   -2.278918    0.961967
     14          8           0        4.640042   -1.847923   -0.981508
     15          6           0       -2.387001    2.292690    0.045137
     16          6           0       -1.520195    1.194934    0.055222
     17          6           0       -2.023930   -0.108026   -0.000380
     18          6           0       -3.406078   -0.277425   -0.065661
     19          6           0       -4.295444    0.795971   -0.077365
     20          6           0       -3.769421    2.090062   -0.021008
     21          1           0       -1.987030    3.301416    0.088623
     22          1           0       -0.446144    1.349294    0.106533
     23          1           0       -1.375596   -0.975806    0.005966
     24          1           0       -5.361426    0.610440   -0.129119
     25          1           0       -4.444975    2.940714   -0.028993
     26          7           0       -3.951157   -1.652117   -0.124924
     27          8           0       -5.172786   -1.774629   -0.181925
     28          8           0       -3.146439   -2.581057   -0.113249
 ---------------------------------------------------------------------

 SCF Done:  E(RHF) =  -868.336442909     A.U. after   16 cycles
 E2 =    -0.2601626211D+01 EUMP2 =    -0.87093806912016D+03

 The electronic state is 1-A.
 Alpha  occ. eigenvalues --  -20.61363 -20.61358 -20.60881 -20.60869 -15.86426
 Alpha  occ. eigenvalues --  -15.85931 -11.32086 -11.31405 -11.28688 -11.28639
 Alpha  occ. eigenvalues --  -11.28531 -11.27979 -11.27944 -11.27800 -11.27795
 Alpha  occ. eigenvalues --  -11.27729 -11.27051 -11.26897  -1.60433  -1.59951
 Alpha  occ. eigenvalues --   -1.39977  -1.39501  -1.20309  -1.19584  -1.09666
 Alpha  occ. eigenvalues --   -1.08978  -1.05735  -1.04988  -0.96431  -0.95795
 Alpha  occ. eigenvalues --   -0.87129  -0.86391  -0.83239  -0.82612  -0.78225
 Alpha  occ. eigenvalues --   -0.77631  -0.72636  -0.72147  -0.71763  -0.71404
 Alpha  occ. eigenvalues --   -0.71277  -0.70740  -0.65949  -0.65741  -0.65236
 Alpha  occ. eigenvalues --   -0.64997  -0.63038  -0.62345  -0.56250  -0.55580
 Alpha  occ. eigenvalues --   -0.54195  -0.53796  -0.53334  -0.52910  -0.49418
 Alpha  occ. eigenvalues --   -0.49374  -0.48916  -0.48897  -0.45316  -0.44882
 Alpha  occ. eigenvalues --   -0.38316  -0.37622  -0.37335  -0.36581
 Alpha virt. eigenvalues --    0.04269   0.04888   0.10146   0.11067   0.15650
 Alpha virt. eigenvalues --    0.16371   0.20001   0.21678   0.26270   0.26714
 Alpha virt. eigenvalues --    0.27697   0.28666   0.30102   0.31253   0.31665

 Mulliken charges:
               1
     1  C   -0.177506
     2  C   -0.216405
     3  C   -0.169471
     4  C    0.159725
     5  C   -0.171784
     6  C   -0.230924
     7  H    0.225116
     8  H    0.227070
     9  H    0.279784
    10  H    0.280578
    11  H    0.227710
    12  N    0.487931
    13  O   -0.456470
    14  O   -0.457009
    15  C   -0.175114
    16  C   -0.229200
    17  C   -0.175483
    18  C    0.159629
    19  C   -0.171454
    20  C   -0.217838
    21  H    0.219104
    22  H    0.234652
    23  H    0.278263
    24  H    0.276318
    25  H    0.223067
    26  N    0.487771
    27  O   -0.460254
    28  O   -0.457806
 Sum of Mulliken charges =  -0.00000

 Dipole moment (field-independent basis, Debye):
    X=              0.2463    Y=              9.4388    Z=              0.3082  Tot=              9.4470
 Quadrupole moment (field-independent basis, Debye-Ang):
   XX=           -125.9249   YY=           -109.6185   ZZ=           -101.6980
   XY=             -1.7113   XZ=             -2.4845   YZ=             -1.3758

 Normal termination of Gaussian 16 at Thu May  6 09:47:33 2021.
