 Gaussian 16, Revision A.03,
 Gaussian 16:  EM64L-G16RevA.03 25-Dec-2016

 -------------
 #p 6-31g* mp2
 -------------

 ------------------------------------------------------
 Input file generated by CHIRIPA (05-May-2021 14:51:10)
 ------------------------------------------------------
 Symbolic Z-matrix:
 Charge =  0 Multiplicity = 1

                         Standard orientation:
 ---------------------------------------------------------------------
 Center     Atomic      Atomic             Coordinates (Angstroms)
 Number     Number       Type             X           Y           Z
 ---------------------------------------------------------------------
      1          6           0       -3.077594    0.375478    0.448391
      2          6           0       -1.718553   -0.295068    0.245018
      3          6           0       -0.571599    0.487282    0.885500
      4          1           0       -3.045002    1.390380    0.029038
      5          1           0       -3.265636    0.488070    1.525126
      6          1           0       -1.533747   -0.407616   -0.830992
      7          1           0       -1.754444   -1.308561    0.664733
      8          1           0       -0.729069    0.587900    1.964240
      9          1           0       -0.507119    1.493964    0.460017
     10          1           0        0.390639   -0.009869    0.728022
     11          6           0       -4.234192   -0.394766   -0.186222
     12          6           0       -5.593233    0.275780    0.017151
     13          6           0       -6.740187   -0.506571   -0.623331
     14          1           0       -4.046150   -0.507358   -1.262957
     15          1           0       -4.266784   -1.409669    0.233131
     16          1           0       -5.557342    1.289272   -0.402564
     17          1           0       -5.778038    0.388327    1.093160
     18          1           0       -6.804667   -1.513253   -0.197849
     19          1           0       -6.582717   -0.607188   -1.702071
     20          1           0       -7.702425   -0.009419   -0.465853
     21          6           0        3.634028   -0.648563    0.255848
     22          6           0        3.988253   -1.866209   -0.598462
     23          6           0        3.940119   -3.175519    0.189691
     24          1           0        4.326570   -0.591640    1.106784
     25          1           0        2.629387   -0.786089    0.679141
     26          1           0        4.991372   -1.725803   -1.021136
     27          1           0        3.294907   -1.920131   -1.447568
     28          1           0        2.938330   -3.342457    0.598530
     29          1           0        4.644433   -3.147024    1.027384
     30          1           0        4.196682   -4.032969   -0.440243
     31          6           0        3.677757    0.667851   -0.518017
     32          6           0        3.323533    1.885498    0.336293
     33          6           0        3.371666    3.194808   -0.451859
     34          1           0        4.682399    0.805377   -0.941310
     35          1           0        2.985215    0.610929   -1.368952
     36          1           0        4.016878    1.939419    1.185400
     37          1           0        2.320414    1.745091    0.758968
     38          1           0        2.667352    3.166312   -1.289553
     39          1           0        4.373457    3.361745   -0.860699
     40          1           0        3.115103    4.052257    0.178074
 ---------------------------------------------------------------------

 SCF Done:  E(RHF) =  -470.732906243     A.U. after   11 cycles
 E2 =    -0.1583306228D+01 EUMP2 =    -0.47231621247039D+03

 The electronic state is 1-A.
 Alpha  occ. eigenvalues --  -11.21675 -11.21630 -11.21592 -11.21482 -11.21450
 Alpha  occ. eigenvalues --  -11.21389 -11.21376 -11.21311 -11.21148 -11.21094
 Alpha  occ. eigenvalues --  -11.21066 -11.21014  -1.08482  -1.08395  -1.03588
 Alpha  occ. eigenvalues --   -1.03485  -0.96043  -0.95944  -0.87064  -0.86960
 Alpha  occ. eigenvalues --   -0.79671  -0.79538  -0.78298  -0.78200  -0.65125
 Alpha  occ. eigenvalues --   -0.65053  -0.61016  -0.60856  -0.59426  -0.59299
 Alpha  occ. eigenvalues --   -0.57694  -0.57519  -0.55328  -0.55235  -0.52803
 Alpha  occ. eigenvalues --   -0.52598  -0.52481  -0.52347  -0.50005  -0.49864
 Alpha  occ. eigenvalues --   -0.47999  -0.47846  -0.46713  -0.46545  -0.45832
 Alpha  occ. eigenvalues --   -0.45767  -0.45741  -0.45680  -0.43781  -0.43698
 Alpha virt. eigenvalues --    0.21004   0.23042   0.24012   0.24669   0.25884
 Alpha virt. eigenvalues --    0.26603   0.27207   0.27276   0.27853   0.29018
 Alpha virt. eigenvalues --    0.30362   0.31429   0.31689   0.31946   0.32249

 Mulliken charges:
               1
     1  C   -0.298845
     2  C   -0.299437
     3  C   -0.484941
     4  H    0.149838
     5  H    0.149734
     6  H    0.151839
     7  H    0.152010
     8  H    0.156040
     9  H    0.155977
    10  H    0.167955
    11  C   -0.298278
    12  C   -0.299668
    13  C   -0.475732
    14  H    0.149554
    15  H    0.149740
    16  H    0.152014
    17  H    0.152011
    18  H    0.155230
    19  H    0.155217
    20  H    0.160369
    21  C   -0.305388
    22  C   -0.299235
    23  C   -0.475696
    24  H    0.150090
    25  H    0.154660
    26  H    0.152072
    27  H    0.151786
    28  H    0.154984
    29  H    0.155240
    30  H    0.160258
    31  C   -0.297790
    32  C   -0.306314
    33  C   -0.475473
    34  H    0.149473
    35  H    0.149290
    36  H    0.151249
    37  H    0.160769
    38  H    0.154587
    39  H    0.154817
    40  H    0.159992
 Sum of Mulliken charges =  -0.00000

 Dipole moment (field-independent basis, Debye):
    X=             -0.0368    Y=             -0.0040    Z=              0.0176  Tot=              0.0410
 Quadrupole moment (field-independent basis, Debye-Ang):
   XX=            -84.7369   YY=            -85.8169   ZZ=            -84.3116
   XY=             -0.2802   XZ=             -0.2224   YZ=             -0.1597

 Normal termination of Gaussian 16 at Wed May  5 23:03:25 2021.
