 Gaussian 16, Revision A.03,
 Gaussian 16:  EM64L-G16RevA.03 25-Dec-2016

 -------------
 #p 6-31g* mp2
 -------------

 ------------------------------------------------------
 Input file generated by CHIRIPA (05-May-2021 14:57:24)
 ------------------------------------------------------
 Symbolic Z-matrix:
 Charge =  0 Multiplicity = 1

                         Standard orientation:
 ---------------------------------------------------------------------
 Center     Atomic      Atomic             Coordinates (Angstroms)
 Number     Number       Type             X           Y           Z
 ---------------------------------------------------------------------
      1          6           0       -1.932613   -1.242555    0.460949
      2          6           0       -2.410801   -0.285651    1.362165
      3          6           0       -3.632177    0.355646    1.135167
      4          6           0       -4.352657    0.014204   -0.008343
      5          6           0       -3.902911   -0.934953   -0.924924
      6          6           0       -2.678879   -1.563586   -0.677712
      7          1           0       -0.982788   -1.735811    0.645138
      8          1           0       -1.833373   -0.034337    2.247300
      9          1           0       -4.025918    1.100183    1.816379
     10          1           0       -4.500976   -1.164432   -1.798466
     11          1           0       -2.309980   -2.306339   -1.379336
     12          7           0       -5.647079    0.686413   -0.259355
     13          8           0       -6.262864    0.367836   -1.274222
     14          8           0       -6.021351    1.519139    0.563521
     15          6           0        3.595800   -2.354931    0.213102
     16          6           0        2.602749   -1.393012    0.425431
     17          6           0        2.892571   -0.031872    0.291835
     18          6           0        4.191866    0.333588   -0.056822
     19          6           0        5.202930   -0.601002   -0.274956
     20          6           0        4.890439   -1.956558   -0.135798
     21          1           0        3.361854   -3.410128    0.319042
     22          1           0        1.596445   -1.699485    0.696488
     23          1           0        2.142899    0.733808    0.450403
     24          1           0        6.196888   -0.264845   -0.544145
     25          1           0        5.663658   -2.701397   -0.301304
     26          7           0        4.510688    1.771611   -0.201197
     27          8           0        5.663115    2.067706   -0.509219
     28          8           0        3.602116    2.575409   -0.003604
 ---------------------------------------------------------------------

 SCF Done:  E(RHF) =  -868.336321458     A.U. after   16 cycles
 E2 =    -0.2599596637D+01 EUMP2 =    -0.87093591809458D+03

 The electronic state is 1-A.
 Alpha  occ. eigenvalues --  -20.61291 -20.61284 -20.61071 -20.61065 -15.86352
 Alpha  occ. eigenvalues --  -15.86128 -11.31857 -11.31640 -11.28512 -11.28425
 Alpha  occ. eigenvalues --  -11.28263 -11.28207 -11.28201 -11.28144 -11.27646
 Alpha  occ. eigenvalues --  -11.27450 -11.27322 -11.27313  -1.60364  -1.60142
 Alpha  occ. eigenvalues --   -1.39913  -1.39691  -1.20064  -1.19836  -1.09435
 Alpha  occ. eigenvalues --   -1.09238  -1.05505  -1.05250  -0.96238  -0.96045
 Alpha  occ. eigenvalues --   -0.86900  -0.86661  -0.83086  -0.82857  -0.78102
 Alpha  occ. eigenvalues --   -0.77852  -0.72567  -0.72346  -0.71690  -0.71464
 Alpha  occ. eigenvalues --   -0.71172  -0.71048  -0.65724  -0.65557  -0.65503
 Alpha  occ. eigenvalues --   -0.65260  -0.62862  -0.62585  -0.56058  -0.55836
 Alpha  occ. eigenvalues --   -0.53806  -0.53611  -0.53565  -0.53355  -0.49339
 Alpha  occ. eigenvalues --   -0.49312  -0.49117  -0.49090  -0.45288  -0.45063
 Alpha  occ. eigenvalues --   -0.38050  -0.37874  -0.37106  -0.36835
 Alpha virt. eigenvalues --    0.04463   0.04661   0.10540   0.10801   0.15884
 Alpha virt. eigenvalues --    0.16054   0.17742   0.21913   0.24514   0.26777
 Alpha virt. eigenvalues --    0.27644   0.28715   0.29788   0.31541   0.32167

 Mulliken charges:
               1
     1  C   -0.174819
     2  C   -0.219635
     3  C   -0.169448
     4  C    0.159682
     5  C   -0.169917
     6  C   -0.218452
     7  H    0.219326
     8  H    0.223644
     9  H    0.278236
    10  H    0.277442
    11  H    0.223725
    12  N    0.487894
    13  O   -0.459002
    14  O   -0.458393
    15  C   -0.171512
    16  C   -0.221201
    17  C   -0.171523
    18  C    0.159085
    19  C   -0.169521
    20  C   -0.218344
    21  H    0.226152
    22  H    0.216165
    23  H    0.275949
    24  H    0.278076
    25  H    0.225851
    26  N    0.488087
    27  O   -0.458310
    28  O   -0.459236
 Sum of Mulliken charges =  -0.00000

 Dipole moment (field-independent basis, Debye):
    X=              3.4503    Y=             -7.3132    Z=              1.3234  Tot=              8.1939
 Quadrupole moment (field-independent basis, Debye-Ang):
   XX=           -148.1008   YY=           -107.7775   ZZ=           -102.0937
   XY=            -12.4485   XZ=             -2.5122   YZ=              3.5586

 Normal termination of Gaussian 16 at Thu May  6 16:20:01 2021.
