 Gaussian 16, Revision A.03,
 Gaussian 16:  EM64L-G16RevA.03 25-Dec-2016

 -------------
 #p 6-31g* mp2
 -------------

 ------------------------------------------------------
 Input file generated by CHIRIPA (05-May-2021 14:53:14)
 ------------------------------------------------------
 Symbolic Z-matrix:
 Charge =  0 Multiplicity = 1

                         Standard orientation:
 ---------------------------------------------------------------------
 Center     Atomic      Atomic             Coordinates (Angstroms)
 Number     Number       Type             X           Y           Z
 ---------------------------------------------------------------------
      1          6           0        2.807749   -0.378350   -0.006800
      2          6           0        3.548144   -1.614981    0.503638
      3          6           0        2.736448   -2.900132    0.338323
      4          1           0        1.853694   -0.282681    0.529456
      5          1           0        2.557364   -0.521146   -1.067135
      6          1           0        3.798276   -1.469315    1.562331
      7          1           0        4.500635   -1.707609   -0.033761
      8          1           0        2.498829   -3.072712   -0.716360
      9          1           0        1.792479   -2.833064    0.888801
     10          1           0        3.284520   -3.771690    0.709624
     11          6           0        3.606362    0.914260    0.151644
     12          6           0        2.865967    2.150890   -0.358793
     13          6           0        3.677663    3.436042   -0.193478
     14          1           0        3.856747    1.057056    1.211980
     15          1           0        4.560418    0.818591   -0.384611
     16          1           0        1.913476    2.243518    0.178605
     17          1           0        2.615835    2.005224   -1.417486
     18          1           0        4.621632    3.368973   -0.743956
     19          1           0        3.915282    3.608621    0.861204
     20          1           0        3.129591    4.307599   -0.564779
     21          6           0       -4.041223    1.684165    0.593156
     22          6           0       -3.801761    1.408995   -0.757200
     23          6           0       -2.952696    0.362311   -1.128803
     24          6           0       -2.357045   -0.392397   -0.119394
     25          6           0       -2.575789   -0.142970    1.234573
     26          6           0       -3.428553    0.908672    1.582987
     27          1           0       -4.702234    2.499180    0.872820
     28          1           0       -4.276202    2.009595   -1.528063
     29          1           0       -2.749808    0.127461   -2.166638
     30          1           0       -2.088451   -0.759157    1.980383
     31          1           0       -3.612687    1.120085    2.632485
     32          7           0       -1.456221   -1.503098   -0.500519
     33          8           0       -0.943603   -2.153239    0.407872
     34          8           0       -1.279829   -1.702494   -1.700421
 ---------------------------------------------------------------------

 SCF Done:  E(RHF) =  -669.536178821     A.U. after   15 cycles
 E2 =    -0.2091629833D+01 EUMP2 =    -0.67162780865406D+03

 The electronic state is 1-A.
 Alpha  occ. eigenvalues --  -20.60941 -20.60934 -15.85967 -11.31290 -11.27856
 Alpha  occ. eigenvalues --  -11.27846 -11.27588 -11.26861 -11.26850 -11.21220
 Alpha  occ. eigenvalues --  -11.20812 -11.20787 -11.20546 -11.20459 -11.19441
 Alpha  occ. eigenvalues --   -1.59989  -1.39549  -1.19457  -1.08860  -1.07692
 Alpha  occ. eigenvalues --   -1.04854  -1.02718  -0.95704  -0.95137  -0.86256
 Alpha  occ. eigenvalues --   -0.86146  -0.82540  -0.78837  -0.77595  -0.77434
 Alpha  occ. eigenvalues --   -0.72195  -0.71296  -0.70567  -0.65115  -0.64858
 Alpha  occ. eigenvalues --   -0.64334  -0.62203  -0.60120  -0.58601  -0.56736
 Alpha  occ. eigenvalues --   -0.55358  -0.54415  -0.53184  -0.52947  -0.51859
 Alpha  occ. eigenvalues --   -0.51540  -0.49149  -0.48944  -0.48875  -0.47090
 Alpha  occ. eigenvalues --   -0.45899  -0.45228  -0.44926  -0.44595  -0.42989
 Alpha  occ. eigenvalues --   -0.37433  -0.36455
 Alpha virt. eigenvalues --    0.04923   0.11195   0.16393   0.21318   0.23507
 Alpha virt. eigenvalues --    0.25194   0.27195   0.27340   0.27967   0.28334
 Alpha virt. eigenvalues --    0.29008   0.30900   0.32135   0.32315   0.32587

 Mulliken charges:
               1
     1  C   -0.298055
     2  C   -0.299589
     3  C   -0.481264
     4  H    0.148701
     5  H    0.153564
     6  H    0.146274
     7  H    0.147199
     8  H    0.159413
     9  H    0.176639
    10  H    0.151363
    11  C   -0.297583
    12  C   -0.298737
    13  C   -0.474985
    14  H    0.146819
    15  H    0.148631
    16  H    0.148321
    17  H    0.152246
    18  H    0.155390
    19  H    0.153894
    20  H    0.157228
    21  C   -0.170596
    22  C   -0.218495
    23  C   -0.170373
    24  C    0.158168
    25  C   -0.171175
    26  C   -0.218506
    27  H    0.226002
    28  H    0.223857
    29  H    0.275878
    30  H    0.275325
    31  H    0.223758
    32  N    0.490662
    33  O   -0.461345
    34  O   -0.458627
 Sum of Mulliken charges =  -0.00000

 Dipole moment (field-independent basis, Debye):
    X=             -3.4454    Y=              3.7960    Z=              1.2825  Tot=              5.2844
 Quadrupole moment (field-independent basis, Debye-Ang):
   XX=            -81.3336   YY=            -99.5845   ZZ=            -89.5447
   XY=             -8.9842   XZ=             -2.5829   YZ=             -1.9861

 Normal termination of Gaussian 16 at Wed May  5 15:35:33 2021.
