 Gaussian 16, Revision A.03,
 Gaussian 16:  EM64L-G16RevA.03 25-Dec-2016

 -------------
 #p 6-31g* mp2
 -------------

 ------------------------------------------------------
 Input file generated by CHIRIPA (05-May-2021 14:55:21)
 ------------------------------------------------------
 Symbolic Z-matrix:
 Charge =  0 Multiplicity = 1

                         Standard orientation:
 ---------------------------------------------------------------------
 Center     Atomic      Atomic             Coordinates (Angstroms)
 Number     Number       Type             X           Y           Z
 ---------------------------------------------------------------------
      1          6           0       -1.062581   -2.287631    0.879033
      2          6           0       -2.228929   -2.420071    0.118366
      3          6           0       -2.935935   -1.288896   -0.300122
      4          6           0       -2.445916   -0.034971    0.061600
      5          6           0       -1.286976    0.129666    0.818597
      6          6           0       -0.596149   -1.015428    1.226108
      7          1           0       -0.519646   -3.171762    1.199861
      8          1           0       -2.593506   -3.406823   -0.152650
      9          1           0       -3.841637   -1.362588   -0.889776
     10          1           0       -0.948206    1.126566    1.073242
     11          1           0        0.309363   -0.909551    1.816771
     12          7           0       -3.185827    1.169921   -0.375624
     13          8           0       -2.733301    2.263439   -0.043846
     14          8           0       -4.204286    0.997984   -1.041820
     15          6           0        3.335343   -0.295586   -0.487131
     16          6           0        2.714458   -1.644693   -0.123264
     17          6           0        3.447038   -2.824408   -0.763099
     18          1           0        3.333643   -0.181107   -1.579760
     19          1           0        4.388481   -0.288024   -0.173698
     20          1           0        1.662429   -1.649198   -0.436045
     21          1           0        2.717462   -1.755890    0.968634
     22          1           0        4.493414   -2.848099   -0.441951
     23          1           0        3.432386   -2.740801   -1.854610
     24          1           0        2.986570   -3.778929   -0.489749
     25          6           0        2.614018    0.893480    0.144961
     26          6           0        3.234904    2.242584   -0.218906
     27          6           0        2.502323    3.422301    0.420929
     28          1           0        1.560881    0.885916   -0.168472
     29          1           0        2.615718    0.779000    1.237589
     30          1           0        3.231899    2.353782   -1.310804
     31          1           0        4.286932    2.247091    0.093875
     32          1           0        2.516975    3.338693    1.512441
     33          1           0        1.455947    3.445992    0.099780
     34          1           0        2.962792    4.376822    0.147579
 ---------------------------------------------------------------------

 SCF Done:  E(RHF) =  -669.534273015     A.U. after   15 cycles
 E2 =    -0.2094442054D+01 EUMP2 =    -0.67162871506879D+03

 The electronic state is 1-A.
 Alpha  occ. eigenvalues --  -20.60784 -20.60779 -15.85835 -11.31199 -11.27744
 Alpha  occ. eigenvalues --  -11.27704 -11.27457 -11.26785 -11.26693 -11.22278
 Alpha  occ. eigenvalues --  -11.21999 -11.21941 -11.21906 -11.21732 -11.21257
 Alpha  occ. eigenvalues --   -1.59859  -1.39413  -1.19365  -1.09010  -1.08745
 Alpha  occ. eigenvalues --   -1.04758  -1.04033  -0.96472  -0.95592  -0.87490
 Alpha  occ. eigenvalues --   -0.86157  -0.82426  -0.80131  -0.78891  -0.77428
 Alpha  occ. eigenvalues --   -0.72052  -0.71183  -0.70453  -0.65623  -0.65007
 Alpha  occ. eigenvalues --   -0.64750  -0.62104  -0.61415  -0.59870  -0.58100
 Alpha  occ. eigenvalues --   -0.55739  -0.55246  -0.53292  -0.53043  -0.52921
 Alpha  occ. eigenvalues --   -0.52793  -0.50406  -0.48820  -0.48809  -0.48420
 Alpha  occ. eigenvalues --   -0.47149  -0.46343  -0.46257  -0.44817  -0.44298
 Alpha  occ. eigenvalues --   -0.37293  -0.36264
 Alpha virt. eigenvalues --    0.04997   0.11213   0.16416   0.20200   0.22809
 Alpha virt. eigenvalues --    0.23138   0.24547   0.26175   0.27021   0.28355
 Alpha virt. eigenvalues --    0.29377   0.31056   0.31240   0.31482   0.32015

 Mulliken charges:
               1
     1  C   -0.172734
     2  C   -0.218392
     3  C   -0.171838
     4  C    0.157967
     5  C   -0.175008
     6  C   -0.215555
     7  H    0.226466
     8  H    0.223501
     9  H    0.275444
    10  H    0.276935
    11  H    0.230030
    12  N    0.488071
    13  O   -0.460635
    14  O   -0.460306
    15  C   -0.296503
    16  C   -0.309166
    17  C   -0.474583
    18  H    0.153518
    19  H    0.150885
    20  H    0.161621
    21  H    0.141524
    22  H    0.157145
    23  H    0.158646
    24  H    0.155819
    25  C   -0.306002
    26  C   -0.299434
    27  C   -0.479249
    28  H    0.154254
    29  H    0.141912
    30  H    0.155272
    31  H    0.152410
    32  H    0.152675
    33  H    0.161613
    34  H    0.163695
 Sum of Mulliken charges =  -0.00000

 Dipole moment (field-independent basis, Debye):
    X=              2.6400    Y=             -4.1661    Z=              1.4314  Tot=              5.1357
 Quadrupole moment (field-independent basis, Debye-Ang):
   XX=           -105.4948   YY=            -93.8792   ZZ=            -93.6389
   XY=             13.2511   XZ=             -1.5761   YZ=              0.7266

 Normal termination of Gaussian 16 at Wed May  5 23:49:18 2021.
