 Gaussian 16, Revision A.03,
 Gaussian 16:  EM64L-G16RevA.03 25-Dec-2016

 -------------
 #p 6-31g* mp2
 -------------

 ------------------------------------------------------
 Input file generated by CHIRIPA (05-May-2021 14:57:25)
 ------------------------------------------------------
 Symbolic Z-matrix:
 Charge =  0 Multiplicity = 1

                         Standard orientation:
 ---------------------------------------------------------------------
 Center     Atomic      Atomic             Coordinates (Angstroms)
 Number     Number       Type             X           Y           Z
 ---------------------------------------------------------------------
      1          6           0       -2.713531    2.492921    0.870377
      2          6           0       -2.956064    2.117520   -0.455055
      3          6           0       -3.010910    0.766853   -0.811760
      4          6           0       -2.817845   -0.186326    0.186973
      5          6           0       -2.574339    0.156062    1.516170
      6          6           0       -2.523776    1.512722    1.850033
      7          1           0       -2.672589    3.544480    1.138602
      8          1           0       -3.103801    2.876589   -1.217966
      9          1           0       -3.197027    0.448317   -1.830246
     10          1           0       -2.430974   -0.623439    2.254576
     11          1           0       -2.335249    1.801338    2.880180
     12          7           0       -2.873641   -1.619389   -0.178564
     13          8           0       -2.700253   -2.439873    0.719980
     14          8           0       -3.089705   -1.895005   -1.356693
     15          6           0        4.995386   -0.128572    1.008933
     16          6           0        3.944556   -0.974236    1.379245
     17          6           0        2.728517   -0.939218    0.690354
     18          6           0        2.597245   -0.042250   -0.368657
     19          6           0        3.625607    0.812976   -0.761527
     20          6           0        4.832844    0.760767   -0.058390
     21          1           0        5.936616   -0.162452    1.549612
     22          1           0        4.067952   -1.665916    2.207736
     23          1           0        1.898584   -1.582722    0.955934
     24          1           0        3.472709    1.491857   -1.591684
     25          1           0        5.647212    1.418691   -0.348192
     26          7           0        1.314537    0.003921   -1.105496
     27          8           0        1.224121    0.803118   -2.034876
     28          8           0        0.423856   -0.759960   -0.739698
 ---------------------------------------------------------------------

 SCF Done:  E(RHF) =  -868.338371937     A.U. after   16 cycles
 E2 =    -0.2600854322D+01 EUMP2 =    -0.87093922625961D+03

 The electronic state is 1-A.
 Alpha  occ. eigenvalues --  -20.60914 -20.60875 -20.59478 -20.59425 -15.85935
 Alpha  occ. eigenvalues --  -15.84512 -11.31252 -11.29908 -11.27835 -11.27780
 Alpha  occ. eigenvalues --  -11.27564 -11.26840 -11.26805 -11.26589 -11.26451
 Alpha  occ. eigenvalues --  -11.26379 -11.25692 -11.25573  -1.59954  -1.58496
 Alpha  occ. eigenvalues --   -1.39513  -1.38066  -1.19423  -1.18114  -1.08830
 Alpha  occ. eigenvalues --   -1.07520  -1.04817  -1.03569  -0.95674  -0.94354
 Alpha  occ. eigenvalues --   -0.86217  -0.84972  -0.82512  -0.81215  -0.77554
 Alpha  occ. eigenvalues --   -0.76226  -0.72227  -0.71269  -0.70774  -0.70533
 Alpha  occ. eigenvalues --   -0.69689  -0.69312  -0.65077  -0.64820  -0.63815
 Alpha  occ. eigenvalues --   -0.63632  -0.62158  -0.60942  -0.55328  -0.54138
 Alpha  occ. eigenvalues --   -0.53158  -0.52907  -0.51871  -0.51707  -0.48912
 Alpha  occ. eigenvalues --   -0.48909  -0.47527  -0.47495  -0.44925  -0.43480
 Alpha  occ. eigenvalues --   -0.37413  -0.36423  -0.36054  -0.35158
 Alpha virt. eigenvalues --    0.04968   0.06395   0.11233   0.12495   0.16459
 Alpha virt. eigenvalues --    0.17833   0.21383   0.22402   0.27299   0.28232
 Alpha virt. eigenvalues --    0.28333   0.29324   0.30932   0.31854   0.32554

 Mulliken charges:
               1
     1  C   -0.172979
     2  C   -0.217704
     3  C   -0.160894
     4  C    0.175711
     5  C   -0.172800
     6  C   -0.220838
     7  H    0.219768
     8  H    0.220684
     9  H    0.276434
    10  H    0.269161
    11  H    0.216234
    12  N    0.494129
    13  O   -0.469663
    14  O   -0.458885
    15  C   -0.170801
    16  C   -0.219080
    17  C   -0.171669
    18  C    0.157945
    19  C   -0.171222
    20  C   -0.218865
    21  H    0.225663
    22  H    0.224510
    23  H    0.279951
    24  H    0.274627
    25  H    0.223057
    26  N    0.491311
    27  O   -0.462375
    28  O   -0.461409
 Sum of Mulliken charges =  -0.00000

 Dipole moment (field-independent basis, Debye):
    X=              4.8845    Y=              4.7192    Z=              3.6224  Tot=              7.6975
 Quadrupole moment (field-independent basis, Debye-Ang):
   XX=            -83.4401   YY=           -105.3898   ZZ=           -100.8440
   XY=            -13.5597   XZ=              2.1596   YZ=             -3.3711

 Normal termination of Gaussian 16 at Thu May  6 14:42:40 2021.
