 Gaussian 16, Revision A.03,
 Gaussian 16:  EM64L-G16RevA.03 25-Dec-2016

 -------------
 #p 6-31g* mp2
 -------------

 ------------------------------------------------------
 Input file generated by CHIRIPA (05-May-2021 14:55:24)
 ------------------------------------------------------
 Symbolic Z-matrix:
 Charge =  0 Multiplicity = 1

                         Standard orientation:
 ---------------------------------------------------------------------
 Center     Atomic      Atomic             Coordinates (Angstroms)
 Number     Number       Type             X           Y           Z
 ---------------------------------------------------------------------
      1          6           0       -4.666719   -0.011978   -1.370964
      2          6           0       -3.460616   -0.534930   -1.848831
      3          6           0       -2.354183   -0.655350   -1.002750
      4          6           0       -2.489658   -0.241202    0.321416
      5          6           0       -3.677864    0.283789    0.827222
      6          6           0       -4.771309    0.394995   -0.036814
      7          1           0       -5.521178    0.077989   -2.035194
      8          1           0       -3.376497   -0.851792   -2.884479
      9          1           0       -1.408578   -1.056707   -1.346498
     10          1           0       -3.731244    0.591203    1.864558
     11          1           0       -5.706740    0.801493    0.337051
     12          7           0       -1.325201   -0.363808    1.226629
     13          8           0       -1.470283    0.008192    2.389042
     14          8           0       -0.289468   -0.829585    0.756580
     15          6           0        3.869698   -0.298920   -0.452251
     16          6           0        3.472099   -1.639950    0.165437
     17          6           0        4.356132   -2.794144   -0.307971
     18          1           0        3.818210   -0.376998   -1.546874
     19          1           0        4.918284   -0.084909   -0.203132
     20          1           0        2.424163   -1.850710   -0.083612
     21          1           0        3.524354   -1.558613    1.258721
     22          1           0        5.403017   -2.610220   -0.045665
     23          1           0        4.296574   -2.903975   -1.395625
     24          1           0        4.054372   -3.743257    0.145886
     25          6           0        2.995132    0.864667    0.011352
     26          6           0        3.392731    2.205697   -0.606337
     27          6           0        2.508698    3.359890   -0.132929
     28          1           0        1.946546    0.650656   -0.237767
     29          1           0        3.046620    0.942744    1.105974
     30          1           0        3.340476    2.124361   -1.699621
     31          1           0        4.440667    2.416456   -0.357288
     32          1           0        2.568255    3.469722    0.954726
     33          1           0        1.461813    3.175966   -0.395234
     34          1           0        2.810458    4.309004   -0.586785
 ---------------------------------------------------------------------

 SCF Done:  E(RHF) =  -669.535919849     A.U. after   15 cycles
 E2 =    -0.2091717982D+01 EUMP2 =    -0.67162763783051D+03

 The electronic state is 1-A.
 Alpha  occ. eigenvalues --  -20.60987 -20.60980 -15.86013 -11.31330 -11.27898
 Alpha  occ. eigenvalues --  -11.27885 -11.27625 -11.26899 -11.26887 -11.20740
 Alpha  occ. eigenvalues --  -11.20366 -11.20338 -11.20274 -11.20147 -11.20074
 Alpha  occ. eigenvalues --   -1.60041  -1.39600  -1.19497  -1.08902  -1.07335
 Alpha  occ. eigenvalues --   -1.04893  -1.02549  -0.95746  -0.95023  -0.86294
 Alpha  occ. eigenvalues --   -0.86047  -0.82585  -0.78579  -0.77655  -0.77072
 Alpha  occ. eigenvalues --   -0.72235  -0.71351  -0.70606  -0.65157  -0.64896
 Alpha  occ. eigenvalues --   -0.63974  -0.62242  -0.59964  -0.58390  -0.56612
 Alpha  occ. eigenvalues --   -0.55396  -0.54333  -0.53224  -0.52985  -0.51760
 Alpha  occ. eigenvalues --   -0.51443  -0.49004  -0.48996  -0.48990  -0.46913
 Alpha  occ. eigenvalues --   -0.45645  -0.45142  -0.44645  -0.44314  -0.42764
 Alpha  occ. eigenvalues --   -0.37473  -0.36494
 Alpha virt. eigenvalues --    0.04863   0.11159   0.16336   0.21201   0.23826
 Alpha virt. eigenvalues --    0.25165   0.26920   0.27454   0.28048   0.28705
 Alpha virt. eigenvalues --    0.29175   0.31031   0.32159   0.32446   0.32744

 Mulliken charges:
               1
     1  C   -0.170586
     2  C   -0.218415
     3  C   -0.170778
     4  C    0.157695
     5  C   -0.170614
     6  C   -0.218492
     7  H    0.226166
     8  H    0.223941
     9  H    0.274865
    10  H    0.276037
    11  H    0.224007
    12  N    0.493345
    13  O   -0.458159
    14  O   -0.464076
    15  C   -0.298211
    16  C   -0.301596
    17  C   -0.475458
    18  H    0.142513
    19  H    0.144681
    20  H    0.166616
    21  H    0.154697
    22  H    0.151714
    23  H    0.149763
    24  H    0.158412
    25  C   -0.301536
    26  C   -0.299145
    27  C   -0.473740
    28  H    0.163101
    29  H    0.152947
    30  H    0.146437
    31  H    0.148904
    32  H    0.157209
    33  H    0.152044
    34  H    0.155713
 Sum of Mulliken charges =  -0.00000

 Dipole moment (field-independent basis, Debye):
    X=             -4.4489    Y=              0.3637    Z=             -3.0217  Tot=              5.3903
 Quadrupole moment (field-independent basis, Debye-Ang):
   XX=            -74.3626   YY=            -96.5644   ZZ=            -93.7695
   XY=             -0.7405   XZ=              5.6485   YZ=              2.5773

 Normal termination of Gaussian 16 at Thu May  6 03:09:12 2021.
