 Gaussian 16, Revision A.03,
 Gaussian 16:  EM64L-G16RevA.03 25-Dec-2016

 -------------
 #p 6-31g* mp2
 -------------

 ------------------------------------------------------
 Input file generated by CHIRIPA (05-May-2021 14:57:25)
 ------------------------------------------------------
 Symbolic Z-matrix:
 Charge =  0 Multiplicity = 1

                         Standard orientation:
 ---------------------------------------------------------------------
 Center     Atomic      Atomic             Coordinates (Angstroms)
 Number     Number       Type             X           Y           Z
 ---------------------------------------------------------------------
      1          6           0       -1.412187   -1.800024   -0.324449
      2          6           0       -1.300337   -0.602969    0.390442
      3          6           0       -2.408388    0.234267    0.551096
      4          6           0       -3.618443   -0.158253   -0.018979
      5          6           0       -3.761649   -1.344661   -0.736765
      6          6           0       -2.640321   -2.166404   -0.884783
      7          1           0       -0.546269   -2.444391   -0.444340
      8          1           0       -0.347807   -0.315891    0.826696
      9          1           0       -2.349829    1.166500    1.099666
     10          1           0       -4.724398   -1.604047   -1.160146
     11          1           0       -2.730123   -3.095475   -1.440487
     12          7           0       -4.798515    0.719890    0.144409
     13          8           0       -5.853413    0.351464   -0.367536
     14          8           0       -4.646211    1.759976    0.781324
     15          6           0        4.238884   -2.036870    0.522251
     16          6           0        4.783117   -1.308962   -0.540990
     17          6           0        4.339208   -0.011704   -0.814151
     18          6           0        3.345168    0.529190   -0.000143
     19          6           0        2.783290   -0.170751    1.066470
     20          6           0        3.242464   -1.466447    1.321179
     21          1           0        4.589652   -3.044005    0.727282
     22          1           0        5.557068   -1.749422   -1.163113
     23          1           0        4.743200    0.574136   -1.630851
     24          1           0        2.013026    0.295057    1.669078
     25          1           0        2.817988   -2.029412    2.147579
     26          7           0        2.867142    1.901712   -0.279559
     27          8           0        1.990335    2.355669    0.452404
     28          8           0        3.378322    2.497549   -1.225239
 ---------------------------------------------------------------------

 SCF Done:  E(RHF) =  -868.337307159     A.U. after   16 cycles
 E2 =    -0.2600252018D+01 EUMP2 =    -0.87093755917667D+03

 The electronic state is 1-A.
 Alpha  occ. eigenvalues --  -20.61573 -20.61545 -20.60551 -20.60537 -15.86616
 Alpha  occ. eigenvalues --  -15.85602 -11.32132 -11.31011 -11.28771 -11.28630
 Alpha  occ. eigenvalues --  -11.28402 -11.27772 -11.27672 -11.27619 -11.27554
 Alpha  occ. eigenvalues --  -11.27409 -11.26664 -11.26630  -1.60628  -1.59622
 Alpha  occ. eigenvalues --   -1.40181  -1.39173  -1.20299  -1.19205  -1.09650
 Alpha  occ. eigenvalues --   -1.08607  -1.05724  -1.04612  -0.96469  -0.95424
 Alpha  occ. eigenvalues --   -0.87106  -0.86022  -0.83297  -0.82252  -0.78344
 Alpha  occ. eigenvalues --   -0.77279  -0.72825  -0.71954  -0.71821  -0.71387
 Alpha  occ. eigenvalues --   -0.70944  -0.70335  -0.65939  -0.65721  -0.64863
 Alpha  occ. eigenvalues --   -0.64652  -0.63069  -0.61936  -0.56176  -0.55158
 Alpha  occ. eigenvalues --   -0.54046  -0.53808  -0.52945  -0.52686  -0.49595
 Alpha  occ. eigenvalues --   -0.49577  -0.48587  -0.48569  -0.45551  -0.44567
 Alpha  occ. eigenvalues --   -0.38258  -0.37339  -0.37214  -0.36208
 Alpha virt. eigenvalues --    0.04151   0.05256   0.10203   0.11438   0.15664
 Alpha virt. eigenvalues --    0.16720   0.19673   0.21795   0.25145   0.26959
 Alpha virt. eigenvalues --    0.28348   0.28688   0.29838   0.30832   0.32354

 Mulliken charges:
               1
     1  C   -0.172903
     2  C   -0.219940
     3  C   -0.170194
     4  C    0.158521
     5  C   -0.170949
     6  C   -0.218555
     7  H    0.222178
     8  H    0.222360
     9  H    0.280886
    10  H    0.275213
    11  H    0.221737
    12  N    0.488024
    13  O   -0.461571
    14  O   -0.458219
    15  C   -0.171779
    16  C   -0.217482
    17  C   -0.170421
    18  C    0.161348
    19  C   -0.179461
    20  C   -0.221200
    21  H    0.228255
    22  H    0.226940
    23  H    0.278892
    24  H    0.272295
    25  H    0.225049
    26  N    0.488654
    27  O   -0.462438
    28  O   -0.455240
 Sum of Mulliken charges =  -0.00000

 Dipole moment (field-independent basis, Debye):
    X=              6.0898    Y=             -7.8138    Z=              0.3175  Tot=              9.9117
 Quadrupole moment (field-independent basis, Debye-Ang):
   XX=           -119.7864   YY=           -107.7936   ZZ=           -101.3738
   XY=             -2.9023   XZ=              3.7928   YZ=              2.3012

 Normal termination of Gaussian 16 at Thu May  6 03:33:13 2021.
