 Gaussian 16, Revision A.03,
 Gaussian 16:  EM64L-G16RevA.03 25-Dec-2016

 -------------
 #p 6-31g* mp2
 -------------

 ------------------------------------------------------
 Input file generated by CHIRIPA (05-May-2021 14:53:12)
 ------------------------------------------------------
 Symbolic Z-matrix:
 Charge =  0 Multiplicity = 1

                         Standard orientation:
 ---------------------------------------------------------------------
 Center     Atomic      Atomic             Coordinates (Angstroms)
 Number     Number       Type             X           Y           Z
 ---------------------------------------------------------------------
      1          6           0       -3.469295    0.964127   -0.490711
      2          6           0       -2.893220    1.912928    0.560906
      3          6           0       -2.823668    3.361201    0.075663
      4          1           0       -2.855283    1.018556   -1.400091
      5          1           0       -4.474951    1.306375   -0.771635
      6          1           0       -1.889500    1.568202    0.840776
      7          1           0       -3.508563    1.856092    1.467955
      8          1           0       -3.821502    3.728392   -0.185295
      9          1           0       -2.193240    3.438867   -0.816038
     10          1           0       -2.408874    4.022226    0.843029
     11          6           0       -3.545205   -0.487349   -0.020412
     12          6           0       -4.121281   -1.436150   -1.072029
     13          6           0       -4.190832   -2.884423   -0.586786
     14          1           0       -2.539550   -0.829597    0.260512
     15          1           0       -4.159218   -0.541777    0.888968
     16          1           0       -3.505937   -1.379313   -1.979078
     17          1           0       -5.125000   -1.091424   -1.351899
     18          1           0       -4.821261   -2.962088    0.304914
     19          1           0       -3.192998   -3.251614   -0.325828
     20          1           0       -4.605627   -3.545447   -1.354153
     21          6           0        4.721295    0.441379   -1.230951
     22          6           0        3.776247    1.410977   -0.879833
     23          6           0        2.674545    1.074556   -0.087608
     24          6           0        2.548499   -0.246918    0.337963
     25          6           0        3.473122   -1.235561    0.004876
     26          6           0        4.566989   -0.876472   -0.788256
     27          1           0        5.574081    0.711523   -1.846723
     28          1           0        3.893522    2.435221   -1.222203
     29          1           0        1.927963    1.805237    0.198987
     30          1           0        3.329227   -2.248327    0.361270
     31          1           0        5.299358   -1.631566   -1.059390
     32          7           0        1.386323   -0.615070    1.177137
     33          8           0        1.298062   -1.786255    1.539315
     34          8           0        0.585677    0.274528    1.456813
 ---------------------------------------------------------------------

 SCF Done:  E(RHF) =  -669.536357843     A.U. after   15 cycles
 E2 =    -0.2091198704D+01 EUMP2 =    -0.67162755654743D+03

 The electronic state is 1-A.
 Alpha  occ. eigenvalues --  -20.61031 -20.61025 -15.86061 -11.31346 -11.27906
 Alpha  occ. eigenvalues --  -11.27902 -11.27637 -11.26905 -11.26896 -11.20793
 Alpha  occ. eigenvalues --  -11.20481 -11.20416 -11.20350 -11.20298 -11.20289
 Alpha  occ. eigenvalues --   -1.60088  -1.39645  -1.19512  -1.08922  -1.07469
 Alpha  occ. eigenvalues --   -1.04903  -1.02643  -0.95769  -0.95129  -0.86305
 Alpha  occ. eigenvalues --   -0.86147  -0.82606  -0.78687  -0.77666  -0.77246
 Alpha  occ. eigenvalues --   -0.72283  -0.71401  -0.70620  -0.65170  -0.64905
 Alpha  occ. eigenvalues --   -0.64096  -0.62250  -0.60042  -0.58491  -0.56724
 Alpha  occ. eigenvalues --   -0.55408  -0.54430  -0.53237  -0.52994  -0.51850
 Alpha  occ. eigenvalues --   -0.51546  -0.49098  -0.49043  -0.49012  -0.47012
 Alpha  occ. eigenvalues --   -0.45716  -0.45155  -0.44834  -0.44526  -0.42884
 Alpha  occ. eigenvalues --   -0.37489  -0.36503
 Alpha virt. eigenvalues --    0.04835   0.11152   0.16314   0.21215   0.23761
 Alpha virt. eigenvalues --    0.25029   0.27150   0.27469   0.28021   0.28752
 Alpha virt. eigenvalues --    0.28870   0.30836   0.31945   0.32415   0.32598

 Mulliken charges:
               1
     1  C   -0.296281
     2  C   -0.311489
     3  C   -0.474654
     4  H    0.144080
     5  H    0.144631
     6  H    0.178586
     7  H    0.150081
     8  H    0.151971
     9  H    0.148574
    10  H    0.157787
    11  C   -0.301511
    12  C   -0.298713
    13  C   -0.475718
    14  H    0.163090
    15  H    0.148817
    16  H    0.148164
    17  H    0.148521
    18  H    0.154843
    19  H    0.159015
    20  H    0.156044
    21  C   -0.170489
    22  C   -0.218556
    23  C   -0.170734
    24  C    0.157513
    25  C   -0.170691
    26  C   -0.218569
    27  H    0.226245
    28  H    0.224194
    29  H    0.275933
    30  H    0.275943
    31  H    0.224024
    32  N    0.492939
    33  O   -0.458516
    34  O   -0.465071
 Sum of Mulliken charges =  -0.00000

 Dipole moment (field-independent basis, Debye):
    X=              4.4069    Y=              1.1828    Z=             -2.8031  Tot=              5.3551
 Quadrupole moment (field-independent basis, Debye-Ang):
   XX=            -73.9007   YY=            -92.7682   ZZ=            -97.6164
   XY=              0.5409   XZ=             -7.1941   YZ=              1.1918

 Normal termination of Gaussian 16 at Thu May  6 04:07:26 2021.
