 Gaussian 16, Revision A.03,
 Gaussian 16:  EM64L-G16RevA.03 25-Dec-2016

 -------------
 #p 6-31g* mp2
 -------------

 ------------------------------------------------------
 Input file generated by CHIRIPA (05-May-2021 14:57:21)
 ------------------------------------------------------
 Symbolic Z-matrix:
 Charge =  0 Multiplicity = 1

                         Standard orientation:
 ---------------------------------------------------------------------
 Center     Atomic      Atomic             Coordinates (Angstroms)
 Number     Number       Type             X           Y           Z
 ---------------------------------------------------------------------
      1          6           0       -4.396081    1.920253   -0.560554
      2          6           0       -4.627137    0.738453   -1.272229
      3          6           0       -3.951995   -0.437948   -0.933391
      4          6           0       -3.048584   -0.396462    0.127466
      5          6           0       -2.796764    0.765286    0.855627
      6          6           0       -3.483241    1.929881    0.499234
      7          1           0       -4.924950    2.829524   -0.830590
      8          1           0       -5.335499    0.728026   -2.095734
      9          1           0       -4.111801   -1.366720   -1.467492
     10          1           0       -2.084714    0.744597    1.671700
     11          1           0       -3.301800    2.846230    1.053697
     12          7           0       -2.327842   -1.635616    0.495472
     13          8           0       -1.536934   -1.572825    1.434172
     14          8           0       -2.567480   -2.646193   -0.161754
     15          6           0        3.375742   -2.308558   -0.328620
     16          6           0        2.176802   -1.749836    0.126235
     17          6           0        2.050039   -0.365522    0.275085
     18          6           0        3.147227    0.434003   -0.041504
     19          6           0        4.354915   -0.092655   -0.496931
     20          6           0        4.459062   -1.479646   -0.638205
     21          1           0        3.465431   -3.384965   -0.441308
     22          1           0        1.333831   -2.391143    0.367416
     23          1           0        1.133467    0.093502    0.625240
     24          1           0        5.177835    0.572304   -0.729416
     25          1           0        5.391392   -1.910780   -0.991659
     26          7           0        3.025000    1.900930    0.112067
     27          8           0        4.006310    2.583639   -0.173548
     28          8           0        1.950203    2.340222    0.515142
 ---------------------------------------------------------------------

 SCF Done:  E(RHF) =  -868.341542895     A.U. after   16 cycles
 E2 =    -0.2598745359D+01 EUMP2 =    -0.87094028825375D+03

 The electronic state is 1-A.
 Alpha  occ. eigenvalues --  -20.61592 -20.61552 -20.60433 -20.60414 -15.86564
 Alpha  occ. eigenvalues --  -15.85465 -11.31490 -11.30543 -11.28017 -11.27973
 Alpha  occ. eigenvalues --  -11.27652 -11.27111 -11.26959 -11.26942 -11.26864
 Alpha  occ. eigenvalues --  -11.26719 -11.26098 -11.25797  -1.60628  -1.59502
 Alpha  occ. eigenvalues --   -1.40192  -1.39065  -1.19617  -1.18669  -1.09097
 Alpha  occ. eigenvalues --   -1.08120  -1.04943  -1.03996  -0.96002  -0.95008
 Alpha  occ. eigenvalues --   -0.86369  -0.85416  -0.82849  -0.81830  -0.77944
 Alpha  occ. eigenvalues --   -0.76913  -0.72792  -0.71924  -0.71696  -0.70816
 Alpha  occ. eigenvalues --   -0.70718  -0.69778  -0.65269  -0.64939  -0.64305
 Alpha  occ. eigenvalues --   -0.63958  -0.62296  -0.61322  -0.55467  -0.54528
 Alpha  occ. eigenvalues --   -0.53301  -0.53027  -0.52386  -0.52053  -0.49569
 Alpha  occ. eigenvalues --   -0.49512  -0.48463  -0.48417  -0.45679  -0.44534
 Alpha  occ. eigenvalues --   -0.37572  -0.36657  -0.36517  -0.35600
 Alpha virt. eigenvalues --    0.04494   0.05563   0.11097   0.12043   0.16079
 Alpha virt. eigenvalues --    0.17137   0.21102   0.22341   0.26541   0.27600
 Alpha virt. eigenvalues --    0.28661   0.29112   0.31081   0.31649   0.32107

 Mulliken charges:
               1
     1  C   -0.169300
     2  C   -0.218461
     3  C   -0.170787
     4  C    0.156582
     5  C   -0.170851
     6  C   -0.216511
     7  H    0.228221
     8  H    0.224446
     9  H    0.274710
    10  H    0.277450
    11  H    0.229527
    12  N    0.488281
    13  O   -0.469610
    14  O   -0.458175
    15  C   -0.171637
    16  C   -0.224883
    17  C   -0.174595
    18  C    0.158575
    19  C   -0.172964
    20  C   -0.218757
    21  H    0.225748
    22  H    0.244751
    23  H    0.274999
    24  H    0.272356
    25  H    0.220679
    26  N    0.488539
    27  O   -0.462205
    28  O   -0.466128
 Sum of Mulliken charges =  -0.00000

 Dipole moment (field-independent basis, Debye):
    X=             -2.5277    Y=             -0.8239    Z=             -1.8332  Tot=              3.2294
 Quadrupole moment (field-independent basis, Debye-Ang):
   XX=            -81.7669   YY=           -112.2029   ZZ=           -103.1241
   XY=            -27.6406   XZ=              2.4823   YZ=              2.9599

 Normal termination of Gaussian 16 at Thu May  6 06:29:19 2021.
