 Gaussian 16, Revision A.03,
 Gaussian 16:  EM64L-G16RevA.03 25-Dec-2016

 -------------
 #p 6-31g* mp2
 -------------

 ------------------------------------------------------
 Input file generated by CHIRIPA (05-May-2021 14:53:17)
 ------------------------------------------------------
 Symbolic Z-matrix:
 Charge =  0 Multiplicity = 1

                         Standard orientation:
 ---------------------------------------------------------------------
 Center     Atomic      Atomic             Coordinates (Angstroms)
 Number     Number       Type             X           Y           Z
 ---------------------------------------------------------------------
      1          6           0       -3.441780   -0.524663   -0.505090
      2          6           0       -2.529840   -1.696523   -0.140265
      3          6           0       -3.089614   -3.044893   -0.594516
      4          1           0       -4.430704   -0.683566   -0.053731
      5          1           0       -3.593273   -0.511982   -1.593338
      6          1           0       -2.378995   -1.706164    0.946827
      7          1           0       -1.542915   -1.534717   -0.592386
      8          1           0       -3.223685   -3.060056   -1.680976
      9          1           0       -4.064515   -3.232477   -0.133017
     10          1           0       -2.421863   -3.868634   -0.323555
     11          6           0       -2.895723    0.830064   -0.057582
     12          6           0       -3.807662    2.001923   -0.422406
     13          6           0       -3.247889    3.350294    0.031844
     14          1           0       -2.744230    0.817382    1.030667
     15          1           0       -1.906799    0.988966   -0.508941
     16          1           0       -4.794587    1.840117    0.029715
     17          1           0       -3.958508    2.011564   -1.509498
     18          1           0       -2.272987    3.537877   -0.429654
     19          1           0       -3.113817    3.365456    1.118304
     20          1           0       -3.915640    4.174034   -0.239116
     21          6           0        0.713714   -1.079226    1.749585
     22          6           0        1.372040    0.105171    2.096475
     23          6           0        2.349947    0.646151    1.256483
     24          6           0        2.645919   -0.026495    0.071899
     25          6           0        2.007560   -1.208194   -0.301430
     26          6           0        1.033013   -1.730980    0.553848
     27          1           0       -0.044643   -1.492406    2.408048
     28          1           0        1.126117    0.613484    3.024474
     29          1           0        2.875084    1.561609    1.500579
     30          1           0        2.274298   -1.692212   -1.233093
     31          1           0        0.523371   -2.650951    0.281886
     32          7           0        3.679406    0.536586   -0.825454
     33          8           0        3.921931   -0.075175   -1.863514
     34          8           0        4.227363    1.579027   -0.473748
 ---------------------------------------------------------------------

 SCF Done:  E(RHF) =  -669.534333278     A.U. after   15 cycles
 E2 =    -0.2093278547D+01 EUMP2 =    -0.67162761182539D+03

 The electronic state is 1-A.
 Alpha  occ. eigenvalues --  -20.60764 -20.60759 -15.85818 -11.31178 -11.27740
 Alpha  occ. eigenvalues --  -11.27733 -11.27462 -11.26759 -11.26724 -11.22364
 Alpha  occ. eigenvalues --  -11.21972 -11.21959 -11.21886 -11.21831 -11.21375
 Alpha  occ. eigenvalues --   -1.59840  -1.39394  -1.19352  -1.09003  -1.08731
 Alpha  occ. eigenvalues --   -1.04764  -1.04101  -0.96537  -0.95579  -0.87552
 Alpha  occ. eigenvalues --   -0.86157  -0.82415  -0.80206  -0.78794  -0.77455
 Alpha  occ. eigenvalues --   -0.72035  -0.71165  -0.70452  -0.65629  -0.65001
 Alpha  occ. eigenvalues --   -0.64770  -0.62135  -0.61486  -0.59929  -0.58150
 Alpha  occ. eigenvalues --   -0.55811  -0.55249  -0.53321  -0.53086  -0.52928
 Alpha  occ. eigenvalues --   -0.52841  -0.50464  -0.48800  -0.48792  -0.48486
 Alpha  occ. eigenvalues --   -0.47214  -0.46323  -0.46222  -0.44801  -0.44343
 Alpha  occ. eigenvalues --   -0.37259  -0.36310
 Alpha virt. eigenvalues --    0.05045   0.11244   0.16431   0.19967   0.22648
 Alpha virt. eigenvalues --    0.23768   0.25222   0.26101   0.26832   0.28272
 Alpha virt. eigenvalues --    0.28883   0.29843   0.31082   0.31643   0.31980

 Mulliken charges:
               1
     1  C   -0.298114
     2  C   -0.304984
     3  C   -0.476551
     4  H    0.150122
     5  H    0.152436
     6  H    0.142289
     7  H    0.157582
     8  H    0.159480
     9  H    0.158252
    10  H    0.153883
    11  C   -0.298300
    12  C   -0.300207
    13  C   -0.475991
    14  H    0.144582
    15  H    0.154204
    16  H    0.151740
    17  H    0.153897
    18  H    0.157620
    19  H    0.153008
    20  H    0.161943
    21  C   -0.167476
    22  C   -0.218823
    23  C   -0.171025
    24  C    0.158529
    25  C   -0.174062
    26  C   -0.217656
    27  H    0.225879
    28  H    0.223334
    29  H    0.275528
    30  H    0.275387
    31  H    0.226502
    32  N    0.488066
    33  O   -0.460612
    34  O   -0.460464
 Sum of Mulliken charges =  -0.00000

 Dipole moment (field-independent basis, Debye):
    X=             -3.7094    Y=             -1.9122    Z=              3.0971  Tot=              5.1969
 Quadrupole moment (field-independent basis, Debye-Ang):
   XX=           -114.5397   YY=            -93.2585   ZZ=            -91.9190
   XY=             -4.9185   XZ=              8.4418   YZ=              2.2033

 Normal termination of Gaussian 16 at Thu May  6 13:56:20 2021.
