 Gaussian 16, Revision A.03,
 Gaussian 16:  EM64L-G16RevA.03 25-Dec-2016

 -------------
 #p 6-31g* mp2
 -------------

 ------------------------------------------------------
 Input file generated by CHIRIPA (05-May-2021 14:51:07)
 ------------------------------------------------------
 Symbolic Z-matrix:
 Charge =  0 Multiplicity = 1

                         Standard orientation:
 ---------------------------------------------------------------------
 Center     Atomic      Atomic             Coordinates (Angstroms)
 Number     Number       Type             X           Y           Z
 ---------------------------------------------------------------------
      1          6           0       -3.176298    0.683471   -0.038462
      2          6           0       -4.569763    1.217236    0.295209
      3          6           0       -4.603724    2.740235    0.426029
      4          1           0       -2.472054    1.001637    0.742406
      5          1           0       -2.830920    1.140740   -0.976019
      6          1           0       -4.912984    0.758045    1.231136
      7          1           0       -5.270809    0.897601   -0.486446
      8          1           0       -4.286441    3.214325   -0.508407
      9          1           0       -3.926583    3.073977    1.218933
     10          1           0       -5.609297    3.100347    0.664781
     11          6           0       -3.126225   -0.837471   -0.172472
     12          6           0       -1.732761   -1.371236   -0.506143
     13          6           0       -1.698799   -2.894235   -0.636963
     14          1           0       -3.471603   -1.294740    0.765085
     15          1           0       -3.830469   -1.155636   -0.953341
     16          1           0       -1.031714   -1.051601    0.275511
     17          1           0       -1.389540   -0.912045   -1.442070
     18          1           0       -2.375941   -3.227977   -1.429867
     19          1           0       -2.016082   -3.368325    0.297473
     20          1           0       -0.693226   -3.254347   -0.875715
     21          6           0        3.700155    0.602738    0.181276
     22          6           0        3.342287    1.948424   -0.450424
     23          6           0        4.450298    2.989838   -0.290546
     24          1           0        3.914485    0.751287    1.248488
     25          1           0        4.626675    0.226582   -0.274204
     26          1           0        2.415967    2.321270    0.005134
     27          1           0        3.128599    1.796624   -1.516214
     28          1           0        5.375909    2.642879   -0.761148
     29          1           0        4.659229    3.170506    0.768844
     30          1           0        4.173506    3.944185   -0.749314
     31          6           0        2.602368   -0.448738    0.029658
     32          6           0        2.960237   -1.794424    0.661358
     33          6           0        1.852225   -2.835838    0.501481
     34          1           0        1.675847   -0.072583    0.485138
     35          1           0        2.388039   -0.597287   -1.037554
     36          1           0        3.173925   -1.642624    1.727149
     37          1           0        3.886557   -2.167270    0.205801
     38          1           0        1.643295   -3.016507   -0.557910
     39          1           0        0.926614   -2.488880    0.972083
     40          1           0        2.129018   -3.790185    0.960249
 ---------------------------------------------------------------------

 SCF Done:  E(RHF) =  -470.731979551     A.U. after   11 cycles
 E2 =    -0.1583932588D+01 EUMP2 =    -0.47231591213904D+03

 The electronic state is 1-A.
 Alpha  occ. eigenvalues --  -11.21595 -11.21594 -11.21587 -11.21523 -11.21399
 Alpha  occ. eigenvalues --  -11.21374 -11.21339 -11.21311 -11.21066 -11.21064
 Alpha  occ. eigenvalues --  -11.21046 -11.20878  -1.08441  -1.08379  -1.03579
 Alpha  occ. eigenvalues --   -1.03433  -0.96062  -0.95851  -0.87095  -0.86853
 Alpha  occ. eigenvalues --   -0.79606  -0.79545  -0.78302  -0.78143  -0.65119
 Alpha  occ. eigenvalues --   -0.64976  -0.61055  -0.60778  -0.59498  -0.59233
 Alpha  occ. eigenvalues --   -0.57853  -0.57269  -0.55363  -0.55133  -0.52917
 Alpha  occ. eigenvalues --   -0.52650  -0.52457  -0.51981  -0.49940  -0.49855
 Alpha  occ. eigenvalues --   -0.47933  -0.47791  -0.46738  -0.46504  -0.45934
 Alpha  occ. eigenvalues --   -0.45743  -0.45690  -0.45436  -0.43797  -0.43691
 Alpha virt. eigenvalues --    0.21374   0.23174   0.23468   0.24907   0.25314
 Alpha virt. eigenvalues --    0.26745   0.26854   0.27343   0.28593   0.29129
 Alpha virt. eigenvalues --    0.29561   0.31308   0.31620   0.31891   0.32377

 Mulliken charges:
               1
     1  C   -0.298040
     2  C   -0.299598
     3  C   -0.475662
     4  H    0.148790
     5  H    0.149655
     6  H    0.151824
     7  H    0.152004
     8  H    0.155204
     9  H    0.154967
    10  H    0.160209
    11  C   -0.297856
    12  C   -0.303297
    13  C   -0.480777
    14  H    0.149123
    15  H    0.149689
    16  H    0.154320
    17  H    0.151804
    18  H    0.153938
    19  H    0.153752
    20  H    0.168315
    21  C   -0.298280
    22  C   -0.299587
    23  C   -0.475705
    24  H    0.149463
    25  H    0.149536
    26  H    0.152104
    27  H    0.151932
    28  H    0.155138
    29  H    0.155113
    30  H    0.160274
    31  C   -0.299634
    32  C   -0.300215
    33  C   -0.479714
    34  H    0.151222
    35  H    0.149706
    36  H    0.151547
    37  H    0.151734
    38  H    0.155300
    39  H    0.161545
    40  H    0.160157
 Sum of Mulliken charges =  -0.00000

 Dipole moment (field-independent basis, Debye):
    X=              0.0323    Y=             -0.0155    Z=             -0.0019  Tot=              0.0359
 Quadrupole moment (field-independent basis, Debye-Ang):
   XX=            -85.3209   YY=            -86.6225   ZZ=            -82.9931
   XY=             -0.6165   XZ=             -0.1825   YZ=              0.0096

 Normal termination of Gaussian 16 at Wed May  5 15:01:50 2021.
