 Gaussian 16, Revision A.03,
 Gaussian 16:  EM64L-G16RevA.03 25-Dec-2016

 -------------
 #p 6-31g* mp2
 -------------

 ------------------------------------------------------
 Input file generated by CHIRIPA (05-May-2021 14:53:16)
 ------------------------------------------------------
 Symbolic Z-matrix:
 Charge =  0 Multiplicity = 1

                         Standard orientation:
 ---------------------------------------------------------------------
 Center     Atomic      Atomic             Coordinates (Angstroms)
 Number     Number       Type             X           Y           Z
 ---------------------------------------------------------------------
      1          6           0        3.830700    0.928616    0.173800
      2          6           0        2.878857    1.942234   -0.462251
      3          6           0        2.932277    3.310737    0.217558
      4          1           0        3.582928    0.820580    1.238639
      5          1           0        4.856051    1.321180    0.129731
      6          1           0        1.855785    1.547262   -0.418238
      7          1           0        3.128800    2.047727   -1.525743
      8          1           0        3.942193    3.729670    0.161306
      9          1           0        2.661945    3.226362    1.275103
     10          1           0        2.244121    4.019886   -0.252984
     11          6           0        3.788703   -0.444283   -0.494865
     12          6           0        4.740546   -1.457900    0.141186
     13          6           0        4.687126   -2.826403   -0.538622
     14          1           0        2.763352   -0.836847   -0.450795
     15          1           0        4.036475   -0.336246   -1.559704
     16          1           0        4.490603   -1.563393    1.204679
     17          1           0        5.763618   -1.062928    0.097173
     18          1           0        4.957458   -2.742028   -1.596168
     19          1           0        3.677210   -3.245337   -0.482370
     20          1           0        5.375282   -3.535553   -0.068080
     21          6           0       -0.734167   -0.348839    1.271339
     22          6           0       -0.800910   -0.157832   -0.112707
     23          6           0       -2.037756   -0.067920   -0.758210
     24          6           0       -3.193094   -0.173759    0.014632
     25          6           0       -3.159400   -0.364259    1.395163
     26          6           0       -1.911549   -0.451262    2.019537
     27          1           0        0.230921   -0.417555    1.764575
     28          1           0        0.111822   -0.077937   -0.696301
     29          1           0       -2.118375    0.079780   -1.828305
     30          1           0       -4.086525   -0.440206    1.950222
     31          1           0       -1.862748   -0.599619    3.094550
     32          7           0       -4.508313   -0.080113   -0.657549
     33          8           0       -5.511588   -0.176477    0.045864
     34          8           0       -4.511003    0.087878   -1.875091
 ---------------------------------------------------------------------

 SCF Done:  E(RHF) =  -669.535363761     A.U. after   15 cycles
 E2 =    -0.2091929300D+01 EUMP2 =    -0.67162729306110D+03

 The electronic state is 1-A.
 Alpha  occ. eigenvalues --  -20.60764 -20.60758 -15.85817 -11.31192 -11.27766
 Alpha  occ. eigenvalues --  -11.27756 -11.27515 -11.26781 -11.26744 -11.22594
 Alpha  occ. eigenvalues --  -11.22481 -11.22426 -11.22359 -11.21836 -11.21781
 Alpha  occ. eigenvalues --   -1.59839  -1.39392  -1.19367  -1.09405  -1.08761
 Alpha  occ. eigenvalues --   -1.04771  -1.04397  -0.96830  -0.95594  -0.87841
 Alpha  occ. eigenvalues --   -0.86175  -0.82425  -0.80475  -0.79242  -0.77467
 Alpha  occ. eigenvalues --   -0.72036  -0.71162  -0.70480  -0.66115  -0.65016
 Alpha  occ. eigenvalues --   -0.64741  -0.62158  -0.61755  -0.60192  -0.58445
 Alpha  occ. eigenvalues --   -0.56122  -0.55275  -0.53493  -0.53250  -0.53093
 Alpha  occ. eigenvalues --   -0.52878  -0.50775  -0.48829  -0.48790  -0.48747
 Alpha  occ. eigenvalues --   -0.47517  -0.46732  -0.46686  -0.44795  -0.44678
 Alpha  occ. eigenvalues --   -0.37346  -0.36365
 Alpha virt. eigenvalues --    0.05066   0.11150   0.16546   0.18449   0.22781
 Alpha virt. eigenvalues --    0.23584   0.24549   0.25720   0.27018   0.28242
 Alpha virt. eigenvalues --    0.30200   0.30305   0.30976   0.31337   0.31660

 Mulliken charges:
               1
     1  C   -0.298855
     2  C   -0.305162
     3  C   -0.475251
     4  H    0.146326
     5  H    0.154716
     6  H    0.146336
     7  H    0.155455
     8  H    0.158157
     9  H    0.154716
    10  H    0.164100
    11  C   -0.300906
    12  C   -0.299750
    13  C   -0.476362
    14  H    0.141037
    15  H    0.153780
    16  H    0.150527
    17  H    0.155505
    18  H    0.157328
    19  H    0.154691
    20  H    0.163113
    21  C   -0.172765
    22  C   -0.224142
    23  C   -0.171680
    24  C    0.158835
    25  C   -0.170905
    26  C   -0.218530
    27  H    0.225497
    28  H    0.231609
    29  H    0.276176
    30  H    0.275696
    31  H    0.223414
    32  N    0.487976
    33  O   -0.460417
    34  O   -0.460265
 Sum of Mulliken charges =  -0.00000

 Dipole moment (field-independent basis, Debye):
    X=              4.8284    Y=             -0.2849    Z=              2.3370  Tot=              5.3717
 Quadrupole moment (field-independent basis, Debye-Ang):
   XX=           -122.2556   YY=            -95.9943   ZZ=            -90.6274
   XY=              0.9483   XZ=            -10.4936   YZ=             -1.6579

 Normal termination of Gaussian 16 at Thu May  6 17:13:44 2021.
