 Gaussian 16, Revision A.03,
 Gaussian 16:  EM64L-G16RevA.03 25-Dec-2016

 -------------
 #p 6-31g* mp2
 -------------

 ------------------------------------------------------
 Input file generated by CHIRIPA (05-May-2021 14:55:24)
 ------------------------------------------------------
 Symbolic Z-matrix:
 Charge =  0 Multiplicity = 1

                         Standard orientation:
 ---------------------------------------------------------------------
 Center     Atomic      Atomic             Coordinates (Angstroms)
 Number     Number       Type             X           Y           Z
 ---------------------------------------------------------------------
      1          6           0       -1.427366    0.711485   -0.396334
      2          6           0       -2.504521    1.538860   -0.730562
      3          6           0       -3.819472    1.091124   -0.572500
      4          6           0       -4.021737   -0.195427   -0.075341
      5          6           0       -2.969478   -1.043434    0.266599
      6          6           0       -1.662867   -0.574753    0.100304
      7          1           0       -0.409120    1.067433   -0.522319
      8          1           0       -2.324622    2.538236   -1.116475
      9          1           0       -4.671844    1.710761   -0.823358
     10          1           0       -3.180357   -2.034751    0.649011
     11          1           0       -0.828270   -1.219493    0.360697
     12          7           0       -5.409403   -0.680512    0.096350
     13          8           0       -5.560964   -1.818110    0.536278
     14          8           0       -6.319218    0.086062   -0.212256
     15          6           0        5.198028   -0.520211   -0.007220
     16          6           0        6.700862   -0.389700   -0.257100
     17          6           0        7.372839   -1.734603   -0.535448
     18          1           0        5.031358   -1.197609    0.841483
     19          1           0        4.727747   -0.992257   -0.880950
     20          1           0        7.167963    0.083220    0.616272
     21          1           0        6.863982    0.287617   -1.105186
     22          1           0        6.933837   -2.209034   -1.419073
     23          1           0        7.239547   -2.414593    0.312166
     24          1           0        8.446788   -1.618038   -0.711250
     25          6           0        4.512138    0.815837    0.272533
     26          6           0        3.009304    0.685326    0.522414
     27          6           0        2.337327    2.030229    0.800761
     28          1           0        4.982418    1.287883    1.146262
     29          1           0        4.678808    1.493235   -0.576170
     30          1           0        2.846184    0.008008    1.370498
     31          1           0        2.542202    0.212406   -0.350959
     32          1           0        2.470619    2.710218   -0.046852
     33          1           0        2.776328    2.504660    1.684387
     34          1           0        1.263378    1.913664    0.976562
 ---------------------------------------------------------------------

 SCF Done:  E(RHF) =  -669.535578962     A.U. after   15 cycles
 E2 =    -0.2091032341D+01 EUMP2 =    -0.67162661130330D+03

 The electronic state is 1-A.
 Alpha  occ. eigenvalues --  -20.60736 -20.60731 -15.85789 -11.31153 -11.27717
 Alpha  occ. eigenvalues --  -11.27713 -11.27414 -11.26730 -11.26719 -11.22748
 Alpha  occ. eigenvalues --  -11.22274 -11.22249 -11.22179 -11.22077 -11.21553
 Alpha  occ. eigenvalues --   -1.59812  -1.39365  -1.19320  -1.09260  -1.08714
 Alpha  occ. eigenvalues --   -1.04723  -1.04380  -0.96823  -0.95549  -0.87836
 Alpha  occ. eigenvalues --   -0.86117  -0.82384  -0.80460  -0.79031  -0.77433
 Alpha  occ. eigenvalues --   -0.72007  -0.71135  -0.70451  -0.65884  -0.64970
 Alpha  occ. eigenvalues --   -0.64728  -0.62070  -0.61768  -0.60262  -0.58445
 Alpha  occ. eigenvalues --   -0.56102  -0.55214  -0.53502  -0.53223  -0.53018
 Alpha  occ. eigenvalues --   -0.52811  -0.50747  -0.48791  -0.48762  -0.48740
 Alpha  occ. eigenvalues --   -0.47490  -0.46578  -0.46474  -0.44771  -0.44617
 Alpha  occ. eigenvalues --   -0.37292  -0.36329
 Alpha virt. eigenvalues --    0.05072   0.11323   0.16479   0.19506   0.22453
 Alpha virt. eigenvalues --    0.23840   0.25736   0.26241   0.26634   0.27557
 Alpha virt. eigenvalues --    0.29297   0.30553   0.30687   0.31072   0.31581

 Mulliken charges:
               1
     1  C   -0.176898
     2  C   -0.219931
     3  C   -0.170842
     4  C    0.158542
     5  C   -0.170917
     6  C   -0.220606
     7  H    0.235080
     8  H    0.223716
     9  H    0.275433
    10  H    0.275444
    11  H    0.224101
    12  N    0.488039
    13  O   -0.460518
    14  O   -0.460499
    15  C   -0.299017
    16  C   -0.300293
    17  C   -0.476174
    18  H    0.150494
    19  H    0.149387
    20  H    0.153168
    21  H    0.152746
    22  H    0.155621
    23  H    0.155898
    24  H    0.162119
    25  C   -0.298319
    26  C   -0.302690
    27  C   -0.481808
    28  H    0.152657
    29  H    0.151181
    30  H    0.154152
    31  H    0.146400
    32  H    0.156291
    33  H    0.162814
    34  H    0.155230
 Sum of Mulliken charges =  -0.00000

 Dipole moment (field-independent basis, Debye):
    X=              5.1384    Y=              1.7257    Z=             -0.5724  Tot=              5.4506
 Quadrupole moment (field-independent basis, Debye-Ang):
   XX=           -133.3874   YY=            -92.4674   ZZ=            -93.8413
   XY=             -9.0210   XZ=              3.2304   YZ=             -2.0413

 Normal termination of Gaussian 16 at Thu May  6 12:42:17 2021.
