 Gaussian 16, Revision A.03,
 Gaussian 16:  EM64L-G16RevA.03 25-Dec-2016

 -------------
 #p 6-31g* mp2
 -------------

 ------------------------------------------------------
 Input file generated by CHIRIPA (05-May-2021 14:53:18)
 ------------------------------------------------------
 Symbolic Z-matrix:
 Charge =  0 Multiplicity = 1

                         Standard orientation:
 ---------------------------------------------------------------------
 Center     Atomic      Atomic             Coordinates (Angstroms)
 Number     Number       Type             X           Y           Z
 ---------------------------------------------------------------------
      1          6           0       -4.359549    0.170606   -0.168193
      2          6           0       -4.394093   -1.262310    0.364295
      3          6           0       -5.764839   -1.920131    0.202686
      4          1           0       -5.118521    0.767955    0.355334
      5          1           0       -4.642534    0.166728   -1.229937
      6          1           0       -4.109785   -1.255893    1.424363
      7          1           0       -3.634819   -1.856269   -0.160426
      8          1           0       -6.052913   -1.955926   -0.852934
      9          1           0       -6.530577   -1.352138    0.740859
     10          1           0       -5.767021   -2.943831    0.589847
     11          6           0       -2.995869    0.841601   -0.013692
     12          6           0       -2.961325    2.274517   -0.546181
     13          6           0       -1.590578    2.932339   -0.384571
     14          1           0       -2.712884    0.845480    1.048051
     15          1           0       -2.236897    0.244253   -0.537220
     16          1           0       -3.720598    2.868477   -0.021459
     17          1           0       -3.245633    2.268101   -1.606248
     18          1           0       -0.824841    2.364346   -0.922745
     19          1           0       -1.302505    2.968133    0.671048
     20          1           0       -1.588397    3.956039   -0.771733
     21          6           0        0.441397   -1.060109    0.172851
     22          6           0        0.986280   -0.243871    1.169535
     23          6           0        2.332425    0.130699    1.123284
     24          6           0        3.108309   -0.331131    0.061207
     25          6           0        2.594591   -1.145464   -0.946884
     26          6           0        1.245874   -1.507511   -0.880320
     27          1           0       -0.605320   -1.346221    0.216670
     28          1           0        0.363885    0.105075    1.988624
     29          1           0        2.779987    0.761639    1.881586
     30          1           0        3.240010   -1.477646   -1.750941
     31          1           0        0.825407   -2.141515   -1.655753
     32          7           0        4.534774    0.058781    0.001492
     33          8           0        5.197235   -0.361316   -0.944711
     34          8           0        4.963366    0.777108    0.902020
 ---------------------------------------------------------------------

 SCF Done:  E(RHF) =  -669.535377311     A.U. after   15 cycles
 E2 =    -0.2092355459D+01 EUMP2 =    -0.67162773277004D+03

 The electronic state is 1-A.
 Alpha  occ. eigenvalues --  -20.60727 -20.60722 -15.85781 -11.31140 -11.27716
 Alpha  occ. eigenvalues --  -11.27705 -11.27401 -11.26725 -11.26709 -11.22640
 Alpha  occ. eigenvalues --  -11.22430 -11.22326 -11.22277 -11.21875 -11.21644
 Alpha  occ. eigenvalues --   -1.59803  -1.39356  -1.19314  -1.09358  -1.08702
 Alpha  occ. eigenvalues --   -1.04716  -1.04350  -0.96784  -0.95542  -0.87795
 Alpha  occ. eigenvalues --   -0.86110  -0.82380  -0.80430  -0.79225  -0.77424
 Alpha  occ. eigenvalues --   -0.71998  -0.71126  -0.70422  -0.65980  -0.64962
 Alpha  occ. eigenvalues --   -0.64718  -0.62066  -0.61742  -0.60158  -0.58416
 Alpha  occ. eigenvalues --   -0.56086  -0.55213  -0.53444  -0.53188  -0.53053
 Alpha  occ. eigenvalues --   -0.52806  -0.50720  -0.48761  -0.48755  -0.48730
 Alpha  occ. eigenvalues --   -0.47471  -0.46696  -0.46647  -0.44764  -0.44632
 Alpha  occ. eigenvalues --   -0.37251  -0.36319
 Alpha virt. eigenvalues --    0.05078   0.11299   0.16466   0.19727   0.22666
 Alpha virt. eigenvalues --    0.22921   0.24784   0.25418   0.27056   0.27897
 Alpha virt. eigenvalues --    0.29767   0.30331   0.30991   0.31312   0.31990

 Mulliken charges:
               1
     1  C   -0.298099
     2  C   -0.301453
     3  C   -0.475920
     4  H    0.153438
     5  H    0.152326
     6  H    0.151204
     7  H    0.145185
     8  H    0.157248
     9  H    0.158227
    10  H    0.161957
    11  C   -0.302477
    12  C   -0.299917
    13  C   -0.477054
    14  H    0.144485
    15  H    0.146569
    16  H    0.154282
    17  H    0.154316
    18  H    0.159474
    19  H    0.151889
    20  H    0.163853
    21  C   -0.172340
    22  C   -0.218762
    23  C   -0.171010
    24  C    0.158371
    25  C   -0.170756
    26  C   -0.221064
    27  H    0.231508
    28  H    0.223874
    29  H    0.275444
    30  H    0.275343
    31  H    0.222914
    32  N    0.488095
    33  O   -0.460662
    34  O   -0.460488
 Sum of Mulliken charges =  -0.00000

 Dipole moment (field-independent basis, Debye):
    X=             -5.2086    Y=             -1.2883    Z=              0.1732  Tot=              5.3684
 Quadrupole moment (field-independent basis, Debye-Ang):
   XX=           -126.6254   YY=            -93.1042   ZZ=            -90.5230
   XY=             -3.6622   XZ=             -0.3586   YZ=              2.6112

 Normal termination of Gaussian 16 at Thu May  6 12:19:08 2021.
