 Gaussian 16, Revision A.03,
 Gaussian 16:  EM64L-G16RevA.03 25-Dec-2016

 -------------
 #p 6-31g* mp2
 -------------

 ------------------------------------------------------
 Input file generated by CHIRIPA (05-May-2021 14:57:24)
 ------------------------------------------------------
 Symbolic Z-matrix:
 Charge =  0 Multiplicity = 1

                         Standard orientation:
 ---------------------------------------------------------------------
 Center     Atomic      Atomic             Coordinates (Angstroms)
 Number     Number       Type             X           Y           Z
 ---------------------------------------------------------------------
      1          6           0       -1.367096   -0.543198    1.554136
      2          6           0       -1.929771   -1.614795    0.852994
      3          6           0       -3.099965   -1.439865    0.108284
      4          6           0       -3.683669   -0.174120    0.086635
      5          6           0       -3.147180    0.913155    0.774605
      6          6           0       -1.976523    0.715138    1.512777
      7          1           0       -0.457881   -0.688055    2.130106
      8          1           0       -1.458654   -2.593148    0.883306
      9          1           0       -3.556849   -2.252150   -0.443865
     10          1           0       -3.639698    1.876698    0.725328
     11          1           0       -1.541773    1.549168    2.056313
     12          7           0       -4.922747    0.023290   -0.698296
     13          8           0       -5.417670    1.148314   -0.701277
     14          8           0       -5.375551   -0.950741   -1.295680
     15          6           0        1.857880    2.139583   -0.230592
     16          6           0        3.234175    2.380948   -0.166750
     17          6           0        4.141845    1.317648   -0.158073
     18          6           0        3.636222    0.019788   -0.214590
     19          6           0        2.270671   -0.253032   -0.278845
     20          6           0        1.381360    0.825679   -0.286337
     21          1           0        1.159911    2.971566   -0.236872
     22          1           0        3.607099    3.400306   -0.123367
     23          1           0        5.212343    1.475968   -0.109220
     24          1           0        1.928991   -1.280108   -0.321140
     25          1           0        0.313037    0.635241   -0.335978
     26          7           0        4.587414   -1.114039   -0.206031
     27          8           0        4.116573   -2.248227   -0.256626
     28          8           0        5.785788   -0.847073   -0.148889
 ---------------------------------------------------------------------

 SCF Done:  E(RHF) =  -868.336946995     A.U. after   16 cycles
 E2 =    -0.2601832047D+01 EUMP2 =    -0.87093877904154D+03

 The electronic state is 1-A.
 Alpha  occ. eigenvalues --  -20.61458 -20.61450 -20.61283 -20.61268 -15.86518
 Alpha  occ. eigenvalues --  -15.86329 -11.32067 -11.31736 -11.28696 -11.28641
 Alpha  occ. eigenvalues --  -11.28399 -11.28291 -11.28255 -11.27992 -11.27717
 Alpha  occ. eigenvalues --  -11.27653 -11.27296 -11.27142  -1.60530  -1.60352
 Alpha  occ. eigenvalues --   -1.40077  -1.39905  -1.20292  -1.19884  -1.09654
 Alpha  occ. eigenvalues --   -1.09266  -1.05700  -1.05282  -0.96432  -0.96109
 Alpha  occ. eigenvalues --   -0.87086  -0.86663  -0.83255  -0.82922  -0.78262
 Alpha  occ. eigenvalues --   -0.77985  -0.72728  -0.72544  -0.71860  -0.71677
 Alpha  occ. eigenvalues --   -0.71343  -0.70995  -0.65920  -0.65668  -0.65523
 Alpha  occ. eigenvalues --   -0.65273  -0.63007  -0.62653  -0.56153  -0.55801
 Alpha  occ. eigenvalues --   -0.54271  -0.53753  -0.53610  -0.53091  -0.49502
 Alpha  occ. eigenvalues --   -0.49474  -0.49307  -0.49296  -0.45442  -0.45302
 Alpha  occ. eigenvalues --   -0.38372  -0.37841  -0.37341  -0.36794
 Alpha virt. eigenvalues --    0.04167   0.04592   0.10067   0.10917   0.15479
 Alpha virt. eigenvalues --    0.16195   0.20197   0.21455   0.25837   0.27011
 Alpha virt. eigenvalues --    0.27595   0.28273   0.30173   0.31018   0.31528

 Mulliken charges:
               1
     1  C   -0.181231
     2  C   -0.222031
     3  C   -0.169352
     4  C    0.158748
     5  C   -0.171493
     6  C   -0.226538
     7  H    0.233592
     8  H    0.229658
     9  H    0.279878
    10  H    0.277425
    11  H    0.225354
    12  N    0.488055
    13  O   -0.459099
    14  O   -0.457156
    15  C   -0.175214
    16  C   -0.217545
    17  C   -0.171562
    18  C    0.160206
    19  C   -0.177763
    20  C   -0.227725
    21  H    0.225135
    22  H    0.224988
    23  H    0.276944
    24  H    0.271419
    25  H    0.237221
    26  N    0.488020
    27  O   -0.461608
    28  O   -0.458324
 Sum of Mulliken charges =  -0.00000

 Dipole moment (field-independent basis, Debye):
    X=              0.8313    Y=              3.2464    Z=              2.7356  Tot=              4.3259
 Quadrupole moment (field-independent basis, Debye-Ang):
   XX=           -158.4606   YY=            -97.8673   ZZ=           -105.3682
   XY=             19.4440   XZ=             -9.0721   YZ=              0.2085

 Normal termination of Gaussian 16 at Wed May  5 16:20:53 2021.
