 Gaussian 16, Revision A.03,
 Gaussian 16:  EM64L-G16RevA.03 25-Dec-2016

 -------------
 #p 6-31g* mp2
 -------------

 ------------------------------------------------------
 Input file generated by CHIRIPA (05-May-2021 14:53:16)
 ------------------------------------------------------
 Symbolic Z-matrix:
 Charge =  0 Multiplicity = 1

                         Standard orientation:
 ---------------------------------------------------------------------
 Center     Atomic      Atomic             Coordinates (Angstroms)
 Number     Number       Type             X           Y           Z
 ---------------------------------------------------------------------
      1          6           0       -5.461638   -0.135763    0.075526
      2          6           0       -5.566312   -1.542215   -0.515169
      3          6           0       -6.957568   -2.153019   -0.344529
      4          1           0       -5.718810   -0.173195    1.142956
      5          1           0       -6.208796    0.512093   -0.403464
      6          1           0       -4.818247   -2.186881   -0.036191
      7          1           0       -5.308675   -1.501462   -1.581274
      8          1           0       -7.713457   -1.533452   -0.837854
      9          1           0       -7.220243   -2.222766    0.716008
     10          1           0       -7.010046   -3.158392   -0.773868
     11          6           0       -4.076740    0.488161   -0.087276
     12          6           0       -3.972066    1.894613    0.503419
     13          6           0       -2.580809    2.505418    0.332779
     14          1           0       -3.329582   -0.159695    0.391714
     15          1           0       -3.819568    0.525594   -1.154706
     16          1           0       -4.229703    1.853860    1.569524
     17          1           0       -4.720131    2.539279    0.024441
     18          1           0       -2.318135    2.575164   -0.727758
     19          1           0       -1.824920    1.885851    0.826104
     20          1           0       -2.528331    3.510790    0.762118
     21          6           0        1.307969    0.563841    0.169812
     22          6           0        1.736203   -0.620949    0.777605
     23          6           0        3.073554   -1.019449    0.692535
     24          6           0        3.959688   -0.205473   -0.011383
     25          6           0        3.563568    0.980508   -0.627683
     26          6           0        2.221409    1.359385   -0.529659
     27          1           0        0.267215    0.865783    0.240928
     28          1           0        1.029029   -1.240754    1.321472
     29          1           0        3.432024   -1.931778    1.153590
     30          1           0        4.291852    1.577550   -1.162998
     31          1           0        1.891660    2.280020   -1.002672
     32          7           0        5.378027   -0.616961   -0.108300
     33          8           0        6.139008    0.117723   -0.734227
     34          8           0        5.701883   -1.666376    0.443498
 ---------------------------------------------------------------------

 SCF Done:  E(RHF) =  -669.535598719     A.U. after   15 cycles
 E2 =    -0.2090791713D+01 EUMP2 =    -0.67162639043107D+03

 The electronic state is 1-A.
 Alpha  occ. eigenvalues --  -20.60710 -20.60704 -15.85763 -11.31113 -11.27688
 Alpha  occ. eigenvalues --  -11.27682 -11.27377 -11.26693 -11.26677 -11.22586
 Alpha  occ. eigenvalues --  -11.22372 -11.22301 -11.22214 -11.22082 -11.21569
 Alpha  occ. eigenvalues --   -1.59786  -1.39340  -1.19284  -1.09257  -1.08677
 Alpha  occ. eigenvalues --   -1.04689  -1.04368  -0.96841  -0.95516  -0.87861
 Alpha  occ. eigenvalues --   -0.86083  -0.82354  -0.80444  -0.79042  -0.77404
 Alpha  occ. eigenvalues --   -0.71981  -0.71109  -0.70400  -0.65884  -0.64934
 Alpha  occ. eigenvalues --   -0.64694  -0.62039  -0.61765  -0.60213  -0.58446
 Alpha  occ. eigenvalues --   -0.56191  -0.55177  -0.53515  -0.53229  -0.53016
 Alpha  occ. eigenvalues --   -0.52779  -0.50781  -0.48779  -0.48737  -0.48706
 Alpha  occ. eigenvalues --   -0.47463  -0.46589  -0.46490  -0.44749  -0.44604
 Alpha  occ. eigenvalues --   -0.37256  -0.36298
 Alpha virt. eigenvalues --    0.05131   0.11358   0.16615   0.19839   0.22344
 Alpha virt. eigenvalues --    0.23671   0.25307   0.26093   0.26869   0.27451
 Alpha virt. eigenvalues --    0.29109   0.30243   0.30983   0.31182   0.32375

 Mulliken charges:
               1
     1  C   -0.298859
     2  C   -0.300058
     3  C   -0.476176
     4  H    0.150928
     5  H    0.151676
     6  H    0.151145
     7  H    0.152890
     8  H    0.156302
     9  H    0.155889
    10  H    0.162010
    11  C   -0.298318
    12  C   -0.299460
    13  C   -0.482026
    14  H    0.144277
    15  H    0.150741
    16  H    0.154906
    17  H    0.156302
    18  H    0.155444
    19  H    0.148143
    20  H    0.166278
    21  C   -0.177526
    22  C   -0.221166
    23  C   -0.170728
    24  C    0.158169
    25  C   -0.170791
    26  C   -0.221615
    27  H    0.237460
    28  H    0.222918
    29  H    0.275254
    30  H    0.275313
    31  H    0.223987
    32  N    0.488022
    33  O   -0.460637
    34  O   -0.460694
 Sum of Mulliken charges =  -0.00000

 Dipole moment (field-independent basis, Debye):
    X=             -5.2843    Y=              1.4975    Z=              0.3241  Tot=              5.5020
 Quadrupole moment (field-independent basis, Debye-Ang):
   XX=           -134.5919   YY=            -92.1695   ZZ=            -93.1289
   XY=              6.9419   XZ=              1.0897   YZ=             -2.9960

 Normal termination of Gaussian 16 at Wed May  5 21:57:39 2021.
