 Gaussian 16, Revision A.03,
 Gaussian 16:  EM64L-G16RevA.03 25-Dec-2016

 -------------
 #p 6-31g* mp2
 -------------

 ------------------------------------------------------
 Input file generated by CHIRIPA (05-May-2021 14:55:24)
 ------------------------------------------------------
 Symbolic Z-matrix:
 Charge =  0 Multiplicity = 1

                         Standard orientation:
 ---------------------------------------------------------------------
 Center     Atomic      Atomic             Coordinates (Angstroms)
 Number     Number       Type             X           Y           Z
 ---------------------------------------------------------------------
      1          6           0       -5.085402    0.263849   -0.564734
      2          6           0       -4.493197   -0.956702   -0.905424
      3          6           0       -3.184550   -1.246402   -0.507851
      4          6           0       -2.494011   -0.288342    0.232803
      5          6           0       -3.056556    0.936733    0.587803
      6          6           0       -4.366459    1.205012    0.179480
      7          1           0       -6.102479    0.480574   -0.877754
      8          1           0       -5.049155   -1.689504   -1.483314
      9          1           0       -2.701834   -2.183362   -0.757869
     10          1           0       -2.477242    1.647388    1.164676
     11          1           0       -4.823831    2.153741    0.445503
     12          7           0       -1.107940   -0.583696    0.659386
     13          8           0       -0.520772    0.277104    1.311225
     14          8           0       -0.634951   -1.670402    0.333826
     15          6           0        3.313844   -0.431814   -0.301372
     16          6           0        4.459950   -1.371601    0.074429
     17          6           0        4.102809   -2.845815   -0.117764
     18          1           0        2.431680   -0.678918    0.304987
     19          1           0        3.032601   -0.608374   -1.348809
     20          1           0        4.739873   -1.192356    1.120435
     21          1           0        5.339547   -1.122106   -0.532760
     22          1           0        3.843825   -3.046432   -1.162408
     23          1           0        3.240743   -3.117081    0.500181
     24          1           0        4.936275   -3.499900    0.156770
     25          6           0        3.655635    1.045356   -0.114621
     26          6           0        2.509528    1.985143   -0.490422
     27          6           0        2.866669    3.459356   -0.298229
     28          1           0        3.936877    1.221916    0.932815
     29          1           0        4.537798    1.292459   -0.720981
     30          1           0        1.629931    1.735647    0.116767
     31          1           0        2.229606    1.805898   -1.536429
     32          1           0        3.728735    3.730622   -0.916174
     33          1           0        3.125654    3.659974    0.746415
     34          1           0        2.033204    4.113441   -0.572763
 ---------------------------------------------------------------------

 SCF Done:  E(RHF) =  -669.537168492     A.U. after   15 cycles
 E2 =    -0.2092009718D+01 EUMP2 =    -0.67162917820917D+03

 The electronic state is 1-A.
 Alpha  occ. eigenvalues --  -20.61161 -20.61151 -15.86139 -11.31392 -11.27941
 Alpha  occ. eigenvalues --  -11.27937 -11.27667 -11.26931 -11.26921 -11.20318
 Alpha  occ. eigenvalues --  -11.20247 -11.20126 -11.20058 -11.19831 -11.19736
 Alpha  occ. eigenvalues --   -1.60180  -1.39741  -1.19548  -1.08968  -1.07055
 Alpha  occ. eigenvalues --   -1.04932  -1.02283  -0.95821  -0.94746  -0.86337
 Alpha  occ. eigenvalues --   -0.85768  -0.82660  -0.78344  -0.77721  -0.76838
 Alpha  occ. eigenvalues --   -0.72359  -0.71473  -0.70658  -0.65206  -0.64936
 Alpha  occ. eigenvalues --   -0.63672  -0.62280  -0.59679  -0.58130  -0.56359
 Alpha  occ. eigenvalues --   -0.55443  -0.54029  -0.53268  -0.53023  -0.51502
 Alpha  occ. eigenvalues --   -0.51175  -0.49166  -0.49125  -0.48676  -0.46695
 Alpha  occ. eigenvalues --   -0.45521  -0.44989  -0.44422  -0.44119  -0.42500
 Alpha  occ. eigenvalues --   -0.37520  -0.36529
 Alpha virt. eigenvalues --    0.04758   0.11128   0.16241   0.21250   0.24262
 Alpha virt. eigenvalues --    0.25474   0.27189   0.27877   0.28180   0.29027
 Alpha virt. eigenvalues --    0.29273   0.30905   0.32230   0.32621   0.32835

 Mulliken charges:
               1
     1  C   -0.170296
     2  C   -0.218633
     3  C   -0.170467
     4  C    0.158904
     5  C   -0.170401
     6  C   -0.218608
     7  H    0.226387
     8  H    0.224195
     9  H    0.276160
    10  H    0.275967
    11  H    0.224226
    12  N    0.489587
    13  O   -0.460356
    14  O   -0.457883
    15  C   -0.307348
    16  C   -0.298394
    17  C   -0.475723
    18  H    0.176305
    19  H    0.143148
    20  H    0.149808
    21  H    0.145699
    22  H    0.151838
    23  H    0.163461
    24  H    0.153884
    25  C   -0.295397
    26  C   -0.310365
    27  C   -0.474086
    28  H    0.148057
    29  H    0.142551
    30  H    0.174288
    31  H    0.144508
    32  H    0.151075
    33  H    0.154150
    34  H    0.153759
 Sum of Mulliken charges =  -0.00000

 Dipole moment (field-independent basis, Debye):
    X=             -5.3649    Y=              0.8869    Z=             -1.3430  Tot=              5.6011
 Quadrupole moment (field-independent basis, Debye-Ang):
   XX=            -72.3508   YY=            -93.5182   ZZ=            -94.4082
   XY=             -1.3105   XZ=              3.0695   YZ=              3.0493

 Normal termination of Gaussian 16 at Thu May  6 03:11:09 2021.
