 Gaussian 16, Revision A.03,
 Gaussian 16:  EM64L-G16RevA.03 25-Dec-2016

 -------------
 #p 6-31g* mp2
 -------------

 ------------------------------------------------------
 Input file generated by CHIRIPA (05-May-2021 14:51:09)
 ------------------------------------------------------
 Symbolic Z-matrix:
 Charge =  0 Multiplicity = 1

                         Standard orientation:
 ---------------------------------------------------------------------
 Center     Atomic      Atomic             Coordinates (Angstroms)
 Number     Number       Type             X           Y           Z
 ---------------------------------------------------------------------
      1          6           0        2.752014   -0.653540   -0.144187
      2          6           0        1.806960   -1.022457    0.999823
      3          6           0        0.430106   -1.470075    0.508187
      4          1           0        2.297028    0.146918   -0.743521
      5          1           0        2.863608   -1.519046   -0.811901
      6          1           0        1.698271   -0.156954    1.665936
      7          1           0        2.264333   -1.821997    1.596615
      8          1           0        0.519057   -2.348347   -0.139369
      9          1           0       -0.050221   -0.673843   -0.069654
     10          1           0       -0.229399   -1.729016    1.342371
     11          6           0        4.132416   -0.204046    0.331390
     12          6           0        5.077470    0.164871   -0.812620
     13          6           0        6.454324    0.612489   -0.320984
     14          1           0        4.020822    0.661459    0.999103
     15          1           0        4.587402   -1.004504    0.930723
     16          1           0        4.620097    0.964411   -1.409413
     17          1           0        5.186159   -0.700633   -1.478734
     18          1           0        6.934651   -0.183743    0.256857
     19          1           0        6.365373    1.490760    0.326571
     20          1           0        7.113829    0.871430   -1.155168
     21          6           0       -3.031402    0.965636    0.262017
     22          6           0       -3.178056    2.353886   -0.361873
     23          6           0       -2.350203    3.417131    0.360598
     24          1           0       -3.331810    1.011487    1.317762
     25          1           0       -1.971386    0.676432    0.250942
     26          1           0       -4.237654    2.639801   -0.350882
     27          1           0       -2.877446    2.304683   -1.416306
     28          1           0       -1.286634    3.158471    0.337843
     29          1           0       -2.654571    3.495494    1.409321
     30          1           0       -2.469839    4.401848   -0.101873
     31          6           0       -3.853027   -0.108050   -0.449219
     32          6           0       -3.706374   -1.496300    0.174671
     33          6           0       -4.534226   -2.559545   -0.547800
     34          1           0       -4.913043    0.181154   -0.438144
     35          1           0       -3.552619   -0.153901   -1.504964
     36          1           0       -4.006984   -1.447096    1.229104
     37          1           0       -2.646776   -1.782215    0.163679
     38          1           0       -4.229859   -2.637908   -1.596523
     39          1           0       -5.597795   -2.300885   -0.525045
     40          1           0       -4.414590   -3.544262   -0.085330
 ---------------------------------------------------------------------

 SCF Done:  E(RHF) =  -470.732802921     A.U. after   11 cycles
 E2 =    -0.1583350734D+01 EUMP2 =    -0.47231615365561D+03

 The electronic state is 1-A.
 Alpha  occ. eigenvalues --  -11.21656 -11.21630 -11.21575 -11.21471 -11.21450
 Alpha  occ. eigenvalues --  -11.21388 -11.21329 -11.21269 -11.21139 -11.21091
 Alpha  occ. eigenvalues --  -11.21075 -11.20995  -1.08479  -1.08367  -1.03581
 Alpha  occ. eigenvalues --   -1.03473  -0.96039  -0.95926  -0.87061  -0.86945
 Alpha  occ. eigenvalues --   -0.79673  -0.79525  -0.78309  -0.78150  -0.65163
 Alpha  occ. eigenvalues --   -0.64968  -0.60987  -0.60875  -0.59426  -0.59267
 Alpha  occ. eigenvalues --   -0.57651  -0.57532  -0.55438  -0.55125  -0.52784
 Alpha  occ. eigenvalues --   -0.52595  -0.52468  -0.52343  -0.50061  -0.49819
 Alpha  occ. eigenvalues --   -0.47979  -0.47850  -0.46760  -0.46557  -0.45919
 Alpha  occ. eigenvalues --   -0.45766  -0.45706  -0.45395  -0.43795  -0.43710
 Alpha virt. eigenvalues --    0.21396   0.23034   0.24119   0.24248   0.25863
 Alpha virt. eigenvalues --    0.26703   0.27027   0.27513   0.27929   0.29579
 Alpha virt. eigenvalues --    0.29714   0.31487   0.31720   0.31935   0.32239

 Mulliken charges:
               1
     1  C   -0.298590
     2  C   -0.300896
     3  C   -0.480813
     4  H    0.149333
     5  H    0.149639
     6  H    0.152479
     7  H    0.152360
     8  H    0.155371
     9  H    0.158683
    10  H    0.162462
    11  C   -0.298360
    12  C   -0.299664
    13  C   -0.475740
    14  H    0.149706
    15  H    0.149812
    16  H    0.151944
    17  H    0.151954
    18  H    0.155234
    19  H    0.155289
    20  H    0.160350
    21  C   -0.305721
    22  C   -0.299222
    23  C   -0.475386
    24  H    0.149242
    25  H    0.156887
    26  H    0.151951
    27  H    0.151450
    28  H    0.154089
    29  H    0.155283
    30  H    0.160193
    31  C   -0.297329
    32  C   -0.307622
    33  C   -0.475292
    34  H    0.149123
    35  H    0.148941
    36  H    0.150809
    37  H    0.162656
    38  H    0.154885
    39  H    0.154689
    40  H    0.159821
 Sum of Mulliken charges =  -0.00000

 Dipole moment (field-independent basis, Debye):
    X=              0.0539    Y=             -0.0242    Z=              0.0148  Tot=              0.0609
 Quadrupole moment (field-independent basis, Debye-Ang):
   XX=            -85.6371   YY=            -84.7407   ZZ=            -84.6210
   XY=             -1.3300   XZ=             -0.9520   YZ=             -0.2870

 Normal termination of Gaussian 16 at Wed May  5 18:08:22 2021.
