 Gaussian 16, Revision A.03,
 Gaussian 16:  EM64L-G16RevA.03 25-Dec-2016

 -------------
 #p 6-31g* mp2
 -------------

 ------------------------------------------------------
 Input file generated by CHIRIPA (05-May-2021 14:51:13)
 ------------------------------------------------------
 Symbolic Z-matrix:
 Charge =  0 Multiplicity = 1

                         Standard orientation:
 ---------------------------------------------------------------------
 Center     Atomic      Atomic             Coordinates (Angstroms)
 Number     Number       Type             X           Y           Z
 ---------------------------------------------------------------------
      1          6           0        3.560227   -0.295348   -0.574709
      2          6           0        3.111928   -1.671887   -0.082618
      3          6           0        1.989956   -2.267389   -0.933706
      4          1           0        2.697952    0.385407   -0.575585
      5          1           0        3.894531   -0.377672   -1.618192
      6          1           0        2.779869   -1.587256    0.960066
      7          1           0        3.975412   -2.349392   -0.082732
      8          1           0        2.313747   -2.380649   -1.973385
      9          1           0        1.111412   -1.614183   -0.924663
     10          1           0        1.684896   -3.251418   -0.564266
     11          6           0        4.681327    0.313008    0.265985
     12          6           0        5.129625    1.689548   -0.226105
     13          6           0        6.251597    2.285050    0.624982
     14          1           0        4.347022    0.395333    1.309469
     15          1           0        5.543602   -0.367746    0.266861
     16          1           0        4.266142    2.367052   -0.225992
     17          1           0        5.461685    1.604916   -1.268789
     18          1           0        7.130142    1.631844    0.615939
     19          1           0        5.927806    2.398310    1.664661
     20          1           0        6.556657    3.269078    0.255542
     21          6           0       -3.570975   -0.480567   -0.087740
     22          6           0       -2.948246   -1.312314    1.034041
     23          6           0       -1.849938   -2.251177    0.533993
     24          1           0       -3.982736   -1.155376   -0.850648
     25          1           0       -2.783062    0.105272   -0.581078
     26          1           0       -3.737318   -1.895363    1.526014
     27          1           0       -2.538088   -0.635447    1.794460
     28          1           0       -1.042767   -1.682441    0.061114
     29          1           0       -2.248810   -2.949515   -0.208858
     30          1           0       -1.418541   -2.836143    1.352266
     31          6           0       -4.670580    0.462906    0.396463
     32          6           0       -5.293307    1.294653   -0.725317
     33          6           0       -6.391616    2.233517   -0.225269
     34          1           0       -5.458491   -0.122933    0.889801
     35          1           0       -4.258818    1.137716    1.159371
     36          1           0       -5.703465    0.617787   -1.485737
     37          1           0       -4.504235    1.877702   -1.217290
     38          1           0       -5.992744    2.931854    0.517582
     39          1           0       -7.198787    1.664781    0.247610
     40          1           0       -6.823013    2.818483   -1.043543
 ---------------------------------------------------------------------

 SCF Done:  E(RHF) =  -470.733106178     A.U. after   11 cycles
 E2 =    -0.1582304734D+01 EUMP2 =    -0.47231541091195D+03

 The electronic state is 1-A.
 Alpha  occ. eigenvalues --  -11.21606 -11.21602 -11.21583 -11.21580 -11.21405
 Alpha  occ. eigenvalues --  -11.21404 -11.21346 -11.21344 -11.21075 -11.21072
 Alpha  occ. eigenvalues --  -11.21013 -11.21010  -1.08430  -1.08420  -1.03539
 Alpha  occ. eigenvalues --   -1.03499  -0.96011  -0.95924  -0.87053  -0.86916
 Alpha  occ. eigenvalues --   -0.79642  -0.79521  -0.78252  -0.78225  -0.65092
 Alpha  occ. eigenvalues --   -0.65027  -0.61045  -0.60811  -0.59359  -0.59309
 Alpha  occ. eigenvalues --   -0.57627  -0.57537  -0.55479  -0.55066  -0.52729
 Alpha  occ. eigenvalues --   -0.52607  -0.52472  -0.52295  -0.50134  -0.49686
 Alpha  occ. eigenvalues --   -0.47976  -0.47816  -0.46736  -0.46469  -0.45818
 Alpha  occ. eigenvalues --   -0.45753  -0.45723  -0.45638  -0.43803  -0.43742
 Alpha virt. eigenvalues --    0.22027   0.23032   0.23581   0.24831   0.26092
 Alpha virt. eigenvalues --    0.26800   0.27076   0.27520   0.27661   0.29039
 Alpha virt. eigenvalues --    0.30046   0.31410   0.31735   0.31875   0.32216

 Mulliken charges:
               1
     1  C   -0.298244
     2  C   -0.299952
     3  C   -0.478700
     4  H    0.149039
     5  H    0.149592
     6  H    0.152032
     7  H    0.151902
     8  H    0.154812
     9  H    0.158326
    10  H    0.161499
    11  C   -0.298277
    12  C   -0.299628
    13  C   -0.475701
    14  H    0.149479
    15  H    0.149730
    16  H    0.151774
    17  H    0.151959
    18  H    0.155224
    19  H    0.155156
    20  H    0.160238
    21  C   -0.298152
    22  C   -0.299663
    23  C   -0.479823
    24  H    0.149852
    25  H    0.148916
    26  H    0.151773
    27  H    0.151394
    28  H    0.160379
    29  H    0.155266
    30  H    0.159845
    31  C   -0.298247
    32  C   -0.299651
    33  C   -0.475700
    34  H    0.149595
    35  H    0.149494
    36  H    0.152013
    37  H    0.151863
    38  H    0.155121
    39  H    0.155202
    40  H    0.160265
 Sum of Mulliken charges =  -0.00000

 Dipole moment (field-independent basis, Debye):
    X=              0.0067    Y=             -0.0175    Z=             -0.0076  Tot=              0.0202
 Quadrupole moment (field-independent basis, Debye-Ang):
   XX=            -85.1836   YY=            -84.8702   ZZ=            -84.7374
   XY=              0.3311   XZ=             -0.5400   YZ=             -0.0333

 Normal termination of Gaussian 16 at Wed May  5 18:21:56 2021.
