 Gaussian 16, Revision A.03,
 Gaussian 16:  EM64L-G16RevA.03 25-Dec-2016

 -------------
 #p 6-31g* mp2
 -------------

 ------------------------------------------------------
 Input file generated by CHIRIPA (05-May-2021 14:51:11)
 ------------------------------------------------------
 Symbolic Z-matrix:
 Charge =  0 Multiplicity = 1

                         Standard orientation:
 ---------------------------------------------------------------------
 Center     Atomic      Atomic             Coordinates (Angstroms)
 Number     Number       Type             X           Y           Z
 ---------------------------------------------------------------------
      1          6           0        3.858432   -0.384771   -0.387465
      2          6           0        3.181949   -1.752748   -0.482303
      3          6           0        4.184325   -2.900512   -0.607507
      4          1           0        4.485527   -0.230507   -1.276228
      5          1           0        4.535532   -0.377522    0.477912
      6          1           0        2.505285   -1.756954   -1.346435
      7          1           0        2.556241   -1.903692    0.406697
      8          1           0        4.852380   -2.924846    0.259506
      9          1           0        4.801134   -2.777275   -1.503587
     10          1           0        3.679233   -3.869188   -0.673904
     11          6           0        2.869431    0.772736   -0.261835
     12          6           0        3.545914    2.140714   -0.166997
     13          6           0        2.543538    3.288477   -0.041794
     14          1           0        2.192331    0.765488   -1.127213
     15          1           0        2.242336    0.618473    0.626928
     16          1           0        4.171622    2.291658   -1.055998
     17          1           0        4.222578    2.144920    0.697134
     18          1           0        1.926729    3.165240    0.854286
     19          1           0        1.875483    3.312812   -0.908806
     20          1           0        3.048629    4.257154    0.024604
     21          6           0       -4.001781   -0.486966    0.023419
     22          6           0       -4.822742    0.532342   -0.767163
     23          6           0       -6.095779   -0.068822   -1.363631
     24          1           0       -3.739063   -1.326414   -0.634801
     25          1           0       -4.623607   -0.903379    0.827986
     26          1           0       -4.199118    0.947721   -1.569141
     27          1           0       -5.083373    1.369551   -0.107037
     28          1           0       -6.740711   -0.466829   -0.573533
     29          1           0       -5.851431   -0.891055   -2.043946
     30          1           0       -6.667408    0.677141   -1.924559
     31          6           0       -2.726081    0.099000    0.625882
     32          6           0       -1.905121   -0.920308    1.416463
     33          6           0       -0.632084   -0.319144    2.012932
     34          1           0       -2.104255    0.515412   -0.178685
     35          1           0       -2.988799    0.938447    1.284101
     36          1           0       -1.644489   -1.757517    0.756336
     37          1           0       -2.528745   -1.335687    2.218442
     38          1           0       -0.876431    0.503089    2.693247
     39          1           0        0.012848    0.078862    1.222833
     40          1           0       -0.060455   -1.065107    2.573860
 ---------------------------------------------------------------------

 SCF Done:  E(RHF) =  -470.733293233     A.U. after   11 cycles
 E2 =    -0.1582794078D+01 EUMP2 =    -0.47231608731085D+03

 The electronic state is 1-A.
 Alpha  occ. eigenvalues --  -11.21597 -11.21594 -11.21592 -11.21586 -11.21396
 Alpha  occ. eigenvalues --  -11.21390 -11.21335 -11.21330 -11.21071 -11.21064
 Alpha  occ. eigenvalues --  -11.21060 -11.21040  -1.08436  -1.08410  -1.03527
 Alpha  occ. eigenvalues --   -1.03515  -0.95995  -0.95952  -0.87015  -0.86968
 Alpha  occ. eigenvalues --   -0.79616  -0.79562  -0.78289  -0.78187  -0.65109
 Alpha  occ. eigenvalues --   -0.65003  -0.60939  -0.60901  -0.59363  -0.59318
 Alpha  occ. eigenvalues --   -0.57641  -0.57534  -0.55359  -0.55174  -0.52690
 Alpha  occ. eigenvalues --   -0.52652  -0.52486  -0.52319  -0.50013  -0.49840
 Alpha  occ. eigenvalues --   -0.47994  -0.47837  -0.46711  -0.46597  -0.45883
 Alpha  occ. eigenvalues --   -0.45742  -0.45721  -0.45421  -0.43783  -0.43768
 Alpha virt. eigenvalues --    0.21741   0.23105   0.24003   0.24164   0.25785
 Alpha virt. eigenvalues --    0.26547   0.27143   0.27612   0.27979   0.29436
 Alpha virt. eigenvalues --    0.30807   0.31509   0.31718   0.31883   0.32199

 Mulliken charges:
               1
     1  C   -0.297591
     2  C   -0.300842
     3  C   -0.475671
     4  H    0.149545
     5  H    0.149550
     6  H    0.151268
     7  H    0.153495
     8  H    0.155251
     9  H    0.155158
    10  H    0.160164
    11  C   -0.306127
    12  C   -0.298926
    13  C   -0.476242
    14  H    0.148191
    15  H    0.158491
    16  H    0.151814
    17  H    0.151983
    18  H    0.155892
    19  H    0.154828
    20  H    0.160318
    21  C   -0.298323
    22  C   -0.299632
    23  C   -0.475698
    24  H    0.149620
    25  H    0.149478
    26  H    0.151892
    27  H    0.151974
    28  H    0.155171
    29  H    0.155135
    30  H    0.160226
    31  C   -0.298526
    32  C   -0.299184
    33  C   -0.483293
    34  H    0.149987
    35  H    0.149596
    36  H    0.152242
    37  H    0.151690
    38  H    0.154687
    39  H    0.163144
    40  H    0.159264
 Sum of Mulliken charges =  -0.00000

 Dipole moment (field-independent basis, Debye):
    X=              0.0094    Y=              0.0079    Z=              0.0055  Tot=              0.0135
 Quadrupole moment (field-independent basis, Debye-Ang):
   XX=            -85.8276   YY=            -85.7084   ZZ=            -83.3101
   XY=              0.1497   XZ=             -0.7650   YZ=             -0.0788

 Normal termination of Gaussian 16 at Thu May  6 03:51:45 2021.
