 Gaussian 16, Revision A.03,
 Gaussian 16:  EM64L-G16RevA.03 25-Dec-2016

 -------------
 #p 6-31g* mp2
 -------------

 ------------------------------------------------------
 Input file generated by CHIRIPA (05-May-2021 14:53:14)
 ------------------------------------------------------
 Symbolic Z-matrix:
 Charge =  0 Multiplicity = 1

                         Standard orientation:
 ---------------------------------------------------------------------
 Center     Atomic      Atomic             Coordinates (Angstroms)
 Number     Number       Type             X           Y           Z
 ---------------------------------------------------------------------
      1          6           0        2.617115   -0.183486   -0.726959
      2          6           0        3.715460   -1.088735   -0.168258
      3          6           0        3.725412   -2.474235   -0.814853
      4          1           0        1.641641   -0.666328   -0.577767
      5          1           0        2.752622   -0.081512   -1.812608
      6          1           0        3.578736   -1.187854    0.916223
      7          1           0        4.688416   -0.603595   -0.318625
      8          1           0        3.884877   -2.394122   -1.895017
      9          1           0        2.768891   -2.981701   -0.653153
     10          1           0        4.518295   -3.104856   -0.400712
     11          6           0        2.594372    1.205050   -0.090421
     12          6           0        1.496027    2.110299   -0.649123
     13          6           0        1.486075    3.495798   -0.002527
     14          1           0        2.458866    1.103076    0.995228
     15          1           0        3.569846    1.687892   -0.239614
     16          1           0        0.523071    1.625158   -0.498755
     17          1           0        1.632751    2.209418   -1.733603
     18          1           0        2.442596    4.003265   -0.164227
     19          1           0        1.326611    3.415685    1.077637
     20          1           0        0.693192    4.126419   -0.416668
     21          6           0       -4.004193    0.034989   -1.198182
     22          6           0       -3.469492    1.074829   -0.430491
     23          6           0       -2.378914    0.845832    0.413753
     24          6           0       -1.845435   -0.441010    0.465993
     25          6           0       -2.355836   -1.497679   -0.286489
     26          6           0       -3.446640   -1.245688   -1.123862
     27          1           0       -4.851468    0.221810   -1.851342
     28          1           0       -3.900456    2.070424   -0.486192
     29          1           0       -1.945259    1.632618    1.019004
     30          1           0       -1.904766   -2.479544   -0.209711
     31          1           0       -3.859831   -2.055152   -1.718916
     32          7           0       -0.690768   -0.695609    1.356119
     33          8           0       -0.238892   -1.838263    1.384200
     34          8           0       -0.259479    0.252310    2.008864
 ---------------------------------------------------------------------

 SCF Done:  E(RHF) =  -669.536379766     A.U. after   15 cycles
 E2 =    -0.2094612999D+01 EUMP2 =    -0.67163099276536D+03

 The electronic state is 1-A.
 Alpha  occ. eigenvalues --  -20.61145 -20.61128 -15.86116 -11.31370 -11.27920
 Alpha  occ. eigenvalues --  -11.27915 -11.27643 -11.26910 -11.26900 -11.20923
 Alpha  occ. eigenvalues --  -11.20565 -11.20542 -11.20431 -11.20307 -11.20153
 Alpha  occ. eigenvalues --   -1.60175  -1.39734  -1.19533  -1.08951  -1.07504
 Alpha  occ. eigenvalues --   -1.04914  -1.02693  -0.95805  -0.95154  -0.86321
 Alpha  occ. eigenvalues --   -0.86180  -0.82642  -0.78781  -0.77710  -0.77329
 Alpha  occ. eigenvalues --   -0.72358  -0.71534  -0.70637  -0.65192  -0.64915
 Alpha  occ. eigenvalues --   -0.64040  -0.62263  -0.60075  -0.58553  -0.56782
 Alpha  occ. eigenvalues --   -0.55420  -0.54420  -0.53245  -0.52999  -0.51904
 Alpha  occ. eigenvalues --   -0.51602  -0.49142  -0.49126  -0.49093  -0.47134
 Alpha  occ. eigenvalues --   -0.45826  -0.45146  -0.44878  -0.44565  -0.42929
 Alpha  occ. eigenvalues --   -0.37488  -0.36490
 Alpha virt. eigenvalues --    0.04769   0.11039   0.16220   0.21104   0.23609
 Alpha virt. eigenvalues --    0.24856   0.27067   0.27258   0.28025   0.28488
 Alpha virt. eigenvalues --    0.28985   0.31064   0.31579   0.32360   0.32590

 Mulliken charges:
               1
     1  C   -0.298440
     2  C   -0.298654
     3  C   -0.476925
     4  H    0.149530
     5  H    0.142573
     6  H    0.162491
     7  H    0.146992
     8  H    0.149162
     9  H    0.160696
    10  H    0.157628
    11  C   -0.303274
    12  C   -0.297359
    13  C   -0.477915
    14  H    0.169339
    15  H    0.144178
    16  H    0.145545
    17  H    0.146244
    18  H    0.154447
    19  H    0.162364
    20  H    0.151109
    21  C   -0.170165
    22  C   -0.218843
    23  C   -0.171217
    24  C    0.157808
    25  C   -0.170755
    26  C   -0.218367
    27  H    0.226455
    28  H    0.224512
    29  H    0.277071
    30  H    0.276000
    31  H    0.224265
    32  N    0.488774
    33  O   -0.457574
    34  O   -0.457696
 Sum of Mulliken charges =  -0.00000

 Dipole moment (field-independent basis, Debye):
    X=             -4.2681    Y=              0.7598    Z=             -2.8585  Tot=              5.1928
 Quadrupole moment (field-independent basis, Debye-Ang):
   XX=            -80.1228   YY=            -92.4685   ZZ=            -97.7236
   XY=              0.4040   XZ=              4.4258   YZ=              2.9429

 Normal termination of Gaussian 16 at Thu May  6 08:58:22 2021.
