 Gaussian 16, Revision A.03,
 Gaussian 16:  EM64L-G16RevA.03 25-Dec-2016

 -------------
 #p 6-31g* mp2
 -------------

 ------------------------------------------------------
 Input file generated by CHIRIPA (05-May-2021 14:53:14)
 ------------------------------------------------------
 Symbolic Z-matrix:
 Charge =  0 Multiplicity = 1

                         Standard orientation:
 ---------------------------------------------------------------------
 Center     Atomic      Atomic             Coordinates (Angstroms)
 Number     Number       Type             X           Y           Z
 ---------------------------------------------------------------------
      1          6           0        4.625813   -0.191436   -0.287410
      2          6           0        5.918173   -0.917408    0.087763
      3          6           0        6.612999   -1.549144   -1.118852
      4          1           0        3.943157   -0.900189   -0.775872
      5          1           0        4.852596    0.586273   -1.029795
      6          1           0        5.689236   -1.692597    0.830250
      7          1           0        6.597756   -0.206890    0.575561
      8          1           0        6.869808   -0.784735   -1.859343
      9          1           0        5.956126   -2.278883   -1.603207
     10          1           0        7.534598   -2.062836   -0.827927
     11          6           0        3.919659    0.445348    0.908241
     12          6           0        2.627300    1.171321    0.533068
     13          6           0        1.932473    1.803057    1.739683
     14          1           0        3.692877   -0.332360    1.650625
     15          1           0        4.602316    1.154101    1.396703
     16          1           0        1.947716    0.460802    0.045270
     17          1           0        2.856236    1.946509   -0.209419
     18          1           0        2.589347    2.532795    2.224038
     19          1           0        1.675665    1.038647    2.480174
     20          1           0        1.010875    2.316748    1.448758
     21          6           0       -1.547082    1.410811   -1.179625
     22          6           0       -1.218145    0.124901   -0.738311
     23          6           0       -2.202324   -0.720355   -0.217273
     24          6           0       -3.511222   -0.245166   -0.151915
     25          6           0       -3.870347    1.030782   -0.583513
     26          6           0       -2.869802    1.858857   -1.100956
     27          1           0       -0.776191    2.060753   -1.582984
     28          1           0       -0.191733   -0.225721   -0.798202
     29          1           0       -1.975376   -1.720483    0.131520
     30          1           0       -4.902259    1.352242   -0.511120
     31          1           0       -3.128162    2.857027   -1.442939
     32          7           0       -4.561791   -1.130906    0.397781
     33          8           0       -5.707560   -0.688574    0.444648
     34          8           0       -4.219568   -2.250709    0.771359
 ---------------------------------------------------------------------

 SCF Done:  E(RHF) =  -669.535544613     A.U. after   15 cycles
 E2 =    -0.2091388680D+01 EUMP2 =    -0.67162693329319D+03

 The electronic state is 1-A.
 Alpha  occ. eigenvalues --  -20.60756 -20.60751 -15.85809 -11.31177 -11.27744
 Alpha  occ. eigenvalues --  -11.27738 -11.27484 -11.26761 -11.26738 -11.22601
 Alpha  occ. eigenvalues --  -11.22139 -11.22118 -11.22035 -11.21822 -11.21519
 Alpha  occ. eigenvalues --   -1.59831  -1.39385  -1.19348  -1.09151  -1.08741
 Alpha  occ. eigenvalues --   -1.04753  -1.04221  -0.96634  -0.95575  -0.87648
 Alpha  occ. eigenvalues --   -0.86151  -0.82409  -0.80316  -0.78960  -0.77456
 Alpha  occ. eigenvalues --   -0.72027  -0.71154  -0.70451  -0.65814  -0.64999
 Alpha  occ. eigenvalues --   -0.64759  -0.62156  -0.61567  -0.60015  -0.58255
 Alpha  occ. eigenvalues --   -0.55908  -0.55246  -0.53345  -0.53118  -0.52999
 Alpha  occ. eigenvalues --   -0.52854  -0.50569  -0.48804  -0.48782  -0.48594
 Alpha  occ. eigenvalues --   -0.47345  -0.46491  -0.46404  -0.44790  -0.44469
 Alpha  occ. eigenvalues --   -0.37322  -0.36348
 Alpha virt. eigenvalues --    0.05069   0.11226   0.16536   0.19764   0.22534
 Alpha virt. eigenvalues --    0.23874   0.24909   0.26330   0.26995   0.28071
 Alpha virt. eigenvalues --    0.28851   0.29867   0.31074   0.31512   0.31980

 Mulliken charges:
               1
     1  C   -0.298305
     2  C   -0.300236
     3  C   -0.476106
     4  H    0.146741
     5  H    0.149657
     6  H    0.153400
     7  H    0.153356
     8  H    0.155393
     9  H    0.155343
    10  H    0.162318
    11  C   -0.298112
    12  C   -0.304169
    13  C   -0.475997
    14  H    0.151969
    15  H    0.152870
    16  H    0.143191
    17  H    0.151080
    18  H    0.158396
    19  H    0.158916
    20  H    0.159476
    21  C   -0.173272
    22  C   -0.221011
    23  C   -0.172127
    24  C    0.158902
    25  C   -0.171047
    26  C   -0.218640
    27  H    0.226652
    28  H    0.229699
    29  H    0.275584
    30  H    0.275576
    31  H    0.223405
    32  N    0.488022
    33  O   -0.460443
    34  O   -0.460481
 Sum of Mulliken charges =  -0.00000

 Dipole moment (field-independent basis, Debye):
    X=              3.8564    Y=              3.1418    Z=             -1.8646  Tot=              5.3122
 Quadrupole moment (field-independent basis, Debye-Ang):
   XX=           -118.1497   YY=            -93.4970   ZZ=            -95.3140
   XY=            -14.0312   XZ=              7.4932   YZ=             -1.1290

 Normal termination of Gaussian 16 at Wed May  5 20:15:24 2021.
