 Gaussian 16, Revision A.03,
 Gaussian 16:  EM64L-G16RevA.03 25-Dec-2016

 -------------
 #p 6-31g* mp2
 -------------

 ------------------------------------------------------
 Input file generated by CHIRIPA (05-May-2021 14:51:13)
 ------------------------------------------------------
 Symbolic Z-matrix:
 Charge =  0 Multiplicity = 1

                         Standard orientation:
 ---------------------------------------------------------------------
 Center     Atomic      Atomic             Coordinates (Angstroms)
 Number     Number       Type             X           Y           Z
 ---------------------------------------------------------------------
      1          6           0       -4.313403    0.556644    0.412749
      2          6           0       -2.914427    0.644108   -0.198154
      3          6           0       -2.037488    1.696433    0.481100
      4          1           0       -4.798582    1.539938    0.344340
      5          1           0       -4.224625    0.325707    1.483348
      6          1           0       -3.005860    0.873445   -1.267574
      7          1           0       -2.432594   -0.339556   -0.128454
      8          1           0       -1.916639    1.468661    1.545110
      9          1           0       -2.493163    2.688555    0.399518
     10          1           0       -1.041933    1.742112    0.028725
     11          6           0       -5.201924   -0.490968   -0.255657
     12          6           0       -6.600899   -0.578432    0.355245
     13          6           0       -7.477838   -1.630756   -0.324008
     14          1           0       -5.290701   -0.260031   -1.326256
     15          1           0       -4.716744   -1.474261   -0.187248
     16          1           0       -7.082732    0.405232    0.285546
     17          1           0       -6.509466   -0.807769    1.424666
     18          1           0       -7.022164   -2.622878   -0.242426
     19          1           0       -7.598687   -1.402985   -1.388018
     20          1           0       -8.473394   -1.676436    0.128367
     21          6           0        5.518320    0.017722   -0.126260
     22          6           0        6.238949   -1.262099    0.298868
     23          6           0        7.760125   -1.145375    0.197916
     24          1           0        5.800850    0.264285   -1.158893
     25          1           0        5.865430    0.851046    0.500222
     26          1           0        5.889564   -2.093029   -0.327313
     27          1           0        5.954523   -1.505750    1.330542
     28          1           0        8.127519   -0.335180    0.836045
     29          1           0        8.062191   -0.925796   -0.831231
     30          1           0        8.255190   -2.071395    0.506552
     31          6           0        3.997006   -0.083399   -0.030831
     32          6           0        3.276377    1.196423   -0.455960
     33          6           0        1.755201    1.079698   -0.355008
     34          1           0        3.649897   -0.916723   -0.657314
     35          1           0        3.714477   -0.329962    1.001801
     36          1           0        3.560804    1.440074   -1.487635
     37          1           0        3.625762    2.027353    0.170221
     38          1           0        1.453135    0.860120    0.674139
     39          1           0        1.387807    0.269504   -0.993136
     40          1           0        1.260136    2.005719   -0.663644
 ---------------------------------------------------------------------

 SCF Done:  E(RHF) =  -470.732956722     A.U. after   11 cycles
 E2 =    -0.1582414399D+01 EUMP2 =    -0.47231537112095D+03

 The electronic state is 1-A.
 Alpha  occ. eigenvalues --  -11.21618 -11.21611 -11.21562 -11.21500 -11.21420
 Alpha  occ. eigenvalues --  -11.21360 -11.21343 -11.21280 -11.21108 -11.21078
 Alpha  occ. eigenvalues --  -11.21041 -11.20870  -1.08447  -1.08360  -1.03559
 Alpha  occ. eigenvalues --   -1.03443  -0.96042  -0.95867  -0.87099  -0.86851
 Alpha  occ. eigenvalues --   -0.79655  -0.79482  -0.78258  -0.78176  -0.65075
 Alpha  occ. eigenvalues --   -0.64993  -0.60949  -0.60846  -0.59583  -0.59116
 Alpha  occ. eigenvalues --   -0.57620  -0.57501  -0.55300  -0.55177  -0.53063
 Alpha  occ. eigenvalues --   -0.52437  -0.52409  -0.52115  -0.49954  -0.49827
 Alpha  occ. eigenvalues --   -0.47932  -0.47826  -0.46648  -0.46547  -0.45799
 Alpha  occ. eigenvalues --   -0.45724  -0.45716  -0.45645  -0.43974  -0.43495
 Alpha virt. eigenvalues --    0.22530   0.22954   0.23639   0.24735   0.26616
 Alpha virt. eigenvalues --    0.26675   0.26961   0.27486   0.27580   0.28982
 Alpha virt. eigenvalues --    0.30066   0.31246   0.31471   0.31797   0.32057

 Mulliken charges:
               1
     1  C   -0.298259
     2  C   -0.298691
     3  C   -0.485578
     4  H    0.149403
     5  H    0.149250
     6  H    0.151222
     7  H    0.151696
     8  H    0.153686
     9  H    0.153587
    10  H    0.174013
    11  C   -0.298151
    12  C   -0.299567
    13  C   -0.475654
    14  H    0.149331
    15  H    0.149467
    16  H    0.151851
    17  H    0.151829
    18  H    0.155093
    19  H    0.155099
    20  H    0.160107
    21  C   -0.298349
    22  C   -0.299621
    23  C   -0.475711
    24  H    0.149691
    25  H    0.149601
    26  H    0.151928
    27  H    0.151950
    28  H    0.155214
    29  H    0.155197
    30  H    0.160281
    31  C   -0.298673
    32  C   -0.300034
    33  C   -0.478251
    34  H    0.149515
    35  H    0.149724
    36  H    0.151967
    37  H    0.152252
    38  H    0.157288
    39  H    0.155757
    40  H    0.160540
 Sum of Mulliken charges =  -0.00000

 Dipole moment (field-independent basis, Debye):
    X=              0.0631    Y=              0.0023    Z=             -0.0080  Tot=              0.0636
 Quadrupole moment (field-independent basis, Debye-Ang):
   XX=            -86.7256   YY=            -84.7254   ZZ=            -83.5667
   XY=             -0.6479   XZ=              0.0263   YZ=             -0.4471

 Normal termination of Gaussian 16 at Wed May  5 18:23:38 2021.
