 Gaussian 16, Revision A.03,
 Gaussian 16:  EM64L-G16RevA.03 25-Dec-2016

 -------------
 #p 6-31g* mp2
 -------------

 ------------------------------------------------------
 Input file generated by CHIRIPA (05-May-2021 14:55:23)
 ------------------------------------------------------
 Symbolic Z-matrix:
 Charge =  0 Multiplicity = 1

                         Standard orientation:
 ---------------------------------------------------------------------
 Center     Atomic      Atomic             Coordinates (Angstroms)
 Number     Number       Type             X           Y           Z
 ---------------------------------------------------------------------
      1          6           0        5.182249   -0.264555    0.168218
      2          6           0        4.453807    0.623020    0.967033
      3          6           0        3.058530    0.665989    0.890187
      4          6           0        2.421227   -0.196577   -0.000382
      5          6           0        3.119033   -1.092015   -0.809424
      6          6           0        4.513716   -1.117735   -0.715902
      7          1           0        6.265903   -0.291235    0.234391
      8          1           0        4.970337    1.286769    1.654549
      9          1           0        2.469925    1.343303    1.496988
     10          1           0        2.576089   -1.741469   -1.485322
     11          1           0        5.076848   -1.808066   -1.337489
     12          7           0        0.944425   -0.160217   -0.090563
     13          8           0        0.406634   -0.930443   -0.883135
     14          8           0        0.352661    0.637818    0.633034
     15          6           0       -3.725412   -0.258215    0.446855
     16          6           0       -4.004330   -1.597615   -0.235931
     17          6           0       -4.633891   -2.622545    0.707980
     18          1           0       -3.061617   -0.423337    1.306539
     19          1           0       -4.665613    0.142537    0.850356
     20          1           0       -3.064116   -1.995058   -0.639231
     21          1           0       -4.667385   -1.429259   -1.094202
     22          1           0       -5.585694   -2.250708    1.100930
     23          1           0       -3.973316   -2.819721    1.558486
     24          1           0       -4.824829   -3.572627    0.199308
     25          6           0       -3.096021    0.776793   -0.483925
     26          6           0       -2.817102    2.116193    0.198861
     27          6           0       -2.187541    3.141123   -0.745050
     28          1           0       -2.155819    0.376041   -0.887426
     29          1           0       -3.759816    0.941915   -1.343609
     30          1           0       -2.154048    1.947838    1.057133
     31          1           0       -3.757317    2.513636    0.602161
     32          1           0       -2.848117    3.338299   -1.595556
     33          1           0       -1.235738    2.769286   -1.138000
     34          1           0       -1.996604    4.091205   -0.236378
 ---------------------------------------------------------------------

 SCF Done:  E(RHF) =  -669.537209321     A.U. after   15 cycles
 E2 =    -0.2093339431D+01 EUMP2 =    -0.67163054875205D+03

 The electronic state is 1-A.
 Alpha  occ. eigenvalues --  -20.61359 -20.61346 -15.86324 -11.31513 -11.28050
 Alpha  occ. eigenvalues --  -11.28047 -11.27764 -11.27024 -11.27014 -11.20049
 Alpha  occ. eigenvalues --  -11.19882 -11.19641 -11.19617 -11.19505 -11.19174
 Alpha  occ. eigenvalues --   -1.60374  -1.39934  -1.19661  -1.09095  -1.06588
 Alpha  occ. eigenvalues --   -1.05033  -1.01877  -0.95955  -0.94366  -0.86441
 Alpha  occ. eigenvalues --   -0.85397  -0.82796  -0.77973  -0.77856  -0.76381
 Alpha  occ. eigenvalues --   -0.72540  -0.71665  -0.70768  -0.65319  -0.65046
 Alpha  occ. eigenvalues --   -0.63185  -0.62380  -0.59254  -0.57764  -0.55995
 Alpha  occ. eigenvalues --   -0.55542  -0.53652  -0.53370  -0.53121  -0.51148
 Alpha  occ. eigenvalues --   -0.50826  -0.49385  -0.49305  -0.48206  -0.46291
 Alpha  occ. eigenvalues --   -0.45355  -0.44945  -0.43937  -0.43673  -0.42078
 Alpha  occ. eigenvalues --   -0.37631  -0.36626
 Alpha virt. eigenvalues --    0.04633   0.11032   0.16157   0.21157   0.24743
 Alpha virt. eigenvalues --    0.25892   0.27113   0.27953   0.28666   0.29234
 Alpha virt. eigenvalues --    0.29589   0.30820   0.32240   0.32893   0.33172

 Mulliken charges:
               1
     1  C   -0.170017
     2  C   -0.218629
     3  C   -0.170422
     4  C    0.158995
     5  C   -0.170097
     6  C   -0.218662
     7  H    0.226866
     8  H    0.224694
     9  H    0.276349
    10  H    0.276316
    11  H    0.224635
    12  N    0.491080
    13  O   -0.458044
    14  O   -0.460225
    15  C   -0.296172
    16  C   -0.301669
    17  C   -0.474447
    18  H    0.152809
    19  H    0.140529
    20  H    0.162024
    21  H    0.146350
    22  H    0.151162
    23  H    0.153177
    24  H    0.155082
    25  C   -0.306280
    26  C   -0.296722
    27  C   -0.474527
    28  H    0.177354
    29  H    0.137137
    30  H    0.165049
    31  H    0.139864
    32  H    0.147870
    33  H    0.157533
    34  H    0.151037
 Sum of Mulliken charges =  -0.00000

 Dipole moment (field-independent basis, Debye):
    X=              5.8850    Y=             -0.2841    Z=              0.3469  Tot=              5.9020
 Quadrupole moment (field-independent basis, Debye-Ang):
   XX=            -71.4677   YY=            -94.3493   ZZ=            -93.1809
   XY=             -1.8765   XZ=              1.1947   YZ=              3.6378

 Normal termination of Gaussian 16 at Wed May  5 19:06:22 2021.
