 Gaussian 16, Revision A.03,
 Gaussian 16:  EM64L-G16RevA.03 25-Dec-2016

 -------------
 #p 6-31g* mp2
 -------------

 ------------------------------------------------------
 Input file generated by CHIRIPA (05-May-2021 14:53:18)
 ------------------------------------------------------
 Symbolic Z-matrix:
 Charge =  0 Multiplicity = 1

                         Standard orientation:
 ---------------------------------------------------------------------
 Center     Atomic      Atomic             Coordinates (Angstroms)
 Number     Number       Type             X           Y           Z
 ---------------------------------------------------------------------
      1          6           0       -3.043684    0.888787   -0.476074
      2          6           0       -2.645274    2.079599    0.396406
      3          6           0       -1.440958    2.841569   -0.157505
      4          1           0       -2.187216    0.206909   -0.567994
      5          1           0       -3.269373    1.245659   -1.490521
      6          1           0       -2.421742    1.720766    1.409268
      7          1           0       -3.502850    2.758625    0.486417
      8          1           0       -1.656515    3.227053   -1.159273
      9          1           0       -0.569264    2.183298   -0.231178
     10          1           0       -1.173287    3.688731    0.481658
     11          6           0       -4.246096    0.117042    0.064614
     12          6           0       -4.644506   -1.073770   -0.807866
     13          6           0       -5.848822   -1.835741   -0.253955
     14          1           0       -4.020408   -0.239831    1.079061
     15          1           0       -5.102565    0.798920    0.156534
     16          1           0       -3.786930   -1.752796   -0.897877
     17          1           0       -4.868038   -0.714938   -1.820728
     18          1           0       -6.720517   -1.177469   -0.180282
     19          1           0       -5.633266   -2.221224    0.747813
     20          1           0       -6.116494   -2.682902   -0.893118
     21          6           0        0.644704   -1.135388    1.141551
     22          6           0        1.507514   -2.074837    0.567516
     23          6           0        2.730584   -1.674786    0.021065
     24          6           0        3.060535   -0.321121    0.065904
     25          6           0        2.222297    0.638800    0.630880
     26          6           0        1.004216    0.216049    1.171348
     27          1           0       -0.303468   -1.454974    1.563723
     28          1           0        1.230925   -3.125047    0.542974
     29          1           0        3.417426   -2.380966   -0.429466
     30          1           0        2.525535    1.678691    0.640577
     31          1           0        0.336125    0.947851    1.616508
     32          7           0        4.352705    0.114410   -0.509433
     33          8           0        4.620158    1.312912   -0.457462
     34          8           0        5.073584   -0.750968   -1.001459
 ---------------------------------------------------------------------

 SCF Done:  E(RHF) =  -669.535052676     A.U. after   15 cycles
 E2 =    -0.2092762168D+01 EUMP2 =    -0.67162781484421D+03

 The electronic state is 1-A.
 Alpha  occ. eigenvalues --  -20.60801 -20.60795 -15.85855 -11.31255 -11.27821
 Alpha  occ. eigenvalues --  -11.27813 -11.27573 -11.26849 -11.26810 -11.22473
 Alpha  occ. eigenvalues --  -11.22267 -11.22148 -11.22089 -11.21776 -11.21661
 Alpha  occ. eigenvalues --   -1.59875  -1.39427  -1.19433  -1.09190  -1.08818
 Alpha  occ. eigenvalues --   -1.04847  -1.04261  -0.96700  -0.95647  -0.87714
 Alpha  occ. eigenvalues --   -0.86230  -0.82480  -0.80326  -0.78984  -0.77523
 Alpha  occ. eigenvalues --   -0.72072  -0.71198  -0.70533  -0.65915  -0.65082
 Alpha  occ. eigenvalues --   -0.64816  -0.62323  -0.61520  -0.60061  -0.58300
 Alpha  occ. eigenvalues --   -0.56047  -0.55296  -0.53381  -0.53241  -0.53061
 Alpha  occ. eigenvalues --   -0.52864  -0.50623  -0.48835  -0.48825  -0.48619
 Alpha  occ. eigenvalues --   -0.47383  -0.46515  -0.46467  -0.44825  -0.44514
 Alpha  occ. eigenvalues --   -0.37400  -0.36396
 Alpha virt. eigenvalues --    0.04972   0.11127   0.16326   0.19289   0.22799
 Alpha virt. eigenvalues --    0.23715   0.25578   0.26319   0.26694   0.28541
 Alpha virt. eigenvalues --    0.29055   0.30329   0.30941   0.31358   0.31742

 Mulliken charges:
               1
     1  C   -0.301028
     2  C   -0.300856
     3  C   -0.484967
     4  H    0.149176
     5  H    0.153972
     6  H    0.142595
     7  H    0.156834
     8  H    0.161511
     9  H    0.157149
    10  H    0.160229
    11  C   -0.298205
    12  C   -0.299580
    13  C   -0.475885
    14  H    0.144499
    15  H    0.152547
    16  H    0.149257
    17  H    0.154921
    18  H    0.157116
    19  H    0.153666
    20  H    0.162076
    21  C   -0.173315
    22  C   -0.218658
    23  C   -0.170765
    24  C    0.159024
    25  C   -0.172345
    26  C   -0.221020
    27  H    0.226042
    28  H    0.223807
    29  H    0.275973
    30  H    0.276901
    31  H    0.231409
    32  N    0.488052
    33  O   -0.459874
    34  O   -0.460258
 Sum of Mulliken charges =  -0.00000

 Dipole moment (field-independent basis, Debye):
    X=             -4.6151    Y=             -1.5254    Z=              1.9297  Tot=              5.2297
 Quadrupole moment (field-independent basis, Debye-Ang):
   XX=           -122.8429   YY=            -89.2685   ZZ=            -94.7434
   XY=             -5.4341   XZ=              6.5590   YZ=              0.3100

 Normal termination of Gaussian 16 at Thu May  6 15:39:45 2021.
