 Gaussian 16, Revision A.03,
 Gaussian 16:  EM64L-G16RevA.03 25-Dec-2016

 -------------
 #p 6-31g* mp2
 -------------

 ------------------------------------------------------
 Input file generated by CHIRIPA (05-May-2021 14:53:17)
 ------------------------------------------------------
 Symbolic Z-matrix:
 Charge =  0 Multiplicity = 1

                         Standard orientation:
 ---------------------------------------------------------------------
 Center     Atomic      Atomic             Coordinates (Angstroms)
 Number     Number       Type             X           Y           Z
 ---------------------------------------------------------------------
      1          6           0       -4.190860   -0.522494   -0.231045
      2          6           0       -5.111540    0.474188    0.473907
      3          6           0       -6.545594    0.430229   -0.054630
      4          1           0       -4.192196   -0.313647   -1.309621
      5          1           0       -4.596898   -1.536150   -0.108444
      6          1           0       -4.703148    1.485510    0.351190
      7          1           0       -5.107862    0.263065    1.550954
      8          1           0       -6.976236   -0.566965    0.082312
      9          1           0       -6.569221    0.662426   -1.124269
     10          1           0       -7.186550    1.150603    0.463149
     11          6           0       -2.753854   -0.490432    0.286367
     12          6           0       -1.833174   -1.487114   -0.418586
     13          6           0       -0.399120   -1.443155    0.109951
     14          1           0       -2.347816    0.523223    0.163765
     15          1           0       -2.752518   -0.699279    1.364943
     16          1           0       -1.836851   -1.275991   -1.495632
     17          1           0       -2.241566   -2.498436   -0.295868
     18          1           0       -0.375492   -1.675352    1.179590
     19          1           0        0.031522   -0.445962   -0.026991
     20          1           0        0.241837   -2.163530   -0.407828
     21          6           0        3.763720   -1.890961    0.159352
     22          6           0        3.374435   -1.396350   -1.089783
     23          6           0        2.791156   -0.130745   -1.201931
     24          6           0        2.611178    0.616737   -0.039105
     25          6           0        2.988518    0.151607    1.219688
     26          6           0        3.569860   -1.116768    1.308076
     27          1           0        4.216072   -2.875189    0.237244
     28          1           0        3.523771   -1.995391   -1.983592
     29          1           0        2.480509    0.276574   -2.156399
     30          1           0        2.826819    0.772019    2.092821
     31          1           0        3.871211   -1.498330    2.279489
     32          7           0        1.994711    1.958044   -0.145255
     33          8           0        1.846985    2.596942    0.894275
     34          8           0        1.670925    2.345064   -1.265975
 ---------------------------------------------------------------------

 SCF Done:  E(RHF) =  -669.533780946     A.U. after   15 cycles
 E2 =    -0.2093781256D+01 EUMP2 =    -0.67162756220242D+03

 The electronic state is 1-A.
 Alpha  occ. eigenvalues --  -20.60810 -20.60804 -15.85851 -11.31117 -11.27742
 Alpha  occ. eigenvalues --  -11.27723 -11.27511 -11.26768 -11.26753 -11.21433
 Alpha  occ. eigenvalues --  -11.21300 -11.21131 -11.21067 -11.20924 -11.20815
 Alpha  occ. eigenvalues --   -1.59888  -1.39440  -1.19358  -1.08768  -1.08180
 Alpha  occ. eigenvalues --   -1.04753  -1.03315  -0.95779  -0.95595  -0.86798
 Alpha  occ. eigenvalues --   -0.86158  -0.82436  -0.79391  -0.77987  -0.77483
 Alpha  occ. eigenvalues --   -0.72076  -0.71234  -0.70475  -0.65012  -0.64811
 Alpha  occ. eigenvalues --   -0.64765  -0.62104  -0.60733  -0.59156  -0.57392
 Alpha  occ. eigenvalues --   -0.55281  -0.55154  -0.53426  -0.52852  -0.52308
 Alpha  occ. eigenvalues --   -0.51991  -0.49680  -0.48836  -0.48829  -0.47703
 Alpha  occ. eigenvalues --   -0.46413  -0.45533  -0.45442  -0.44847  -0.43547
 Alpha  occ. eigenvalues --   -0.37244  -0.36313
 Alpha virt. eigenvalues --    0.05016   0.11253   0.16514   0.21412   0.23086
 Alpha virt. eigenvalues --    0.24436   0.26868   0.27316   0.27668   0.28087
 Alpha virt. eigenvalues --    0.28333   0.30721   0.31566   0.31884   0.32090

 Mulliken charges:
               1
     1  C   -0.298129
     2  C   -0.300090
     3  C   -0.475656
     4  H    0.150133
     5  H    0.147370
     6  H    0.155426
     7  H    0.151128
     8  H    0.153707
     9  H    0.155355
    10  H    0.160252
    11  C   -0.299838
    12  C   -0.299516
    13  C   -0.473905
    14  H    0.156507
    15  H    0.148216
    16  H    0.151560
    17  H    0.149011
    18  H    0.152238
    19  H    0.155728
    20  H    0.156509
    21  C   -0.170342
    22  C   -0.217204
    23  C   -0.168522
    24  C    0.155538
    25  C   -0.169645
    26  C   -0.217016
    27  H    0.225584
    28  H    0.223205
    29  H    0.274963
    30  H    0.275462
    31  H    0.223361
    32  N    0.490245
    33  O   -0.460370
    34  O   -0.461263
 Sum of Mulliken charges =  -0.00000

 Dipole moment (field-independent basis, Debye):
    X=              2.2555    Y=             -4.6707    Z=              0.3854  Tot=              5.2011
 Quadrupole moment (field-independent basis, Debye-Ang):
   XX=            -85.3762   YY=           -100.9076   ZZ=            -89.4854
   XY=            -11.2437   XZ=              0.9790   YZ=              0.6028

 Normal termination of Gaussian 16 at Wed May  5 22:00:22 2021.
