 Gaussian 16, Revision A.03,
 Gaussian 16:  EM64L-G16RevA.03 25-Dec-2016

 -------------
 #p 6-31g* mp2
 -------------

 ------------------------------------------------------
 Input file generated by CHIRIPA (05-May-2021 14:57:25)
 ------------------------------------------------------
 Symbolic Z-matrix:
 Charge =  0 Multiplicity = 1

                         Standard orientation:
 ---------------------------------------------------------------------
 Center     Atomic      Atomic             Coordinates (Angstroms)
 Number     Number       Type             X           Y           Z
 ---------------------------------------------------------------------
      1          6           0       -2.435400    2.567003    0.284979
      2          6           0       -2.020324    1.608206    1.215002
      3          6           0       -2.479349    0.290450    1.129201
      4          6           0       -3.356641   -0.035282    0.095978
      5          6           0       -3.788460    0.897337   -0.845852
      6          6           0       -3.316590    2.209139   -0.740671
      7          1           0       -2.073829    3.588354    0.359159
      8          1           0       -1.336041    1.883278    2.012585
      9          1           0       -2.174131   -0.471807    1.835759
     10          1           0       -4.471231    0.593100   -1.629868
     11          1           0       -3.640633    2.951658   -1.464347
     12          7           0       -3.849390   -1.427179   -0.005114
     13          8           0       -4.621741   -1.688793   -0.924716
     14          8           0       -3.453924   -2.230179    0.837167
     15          6           0        5.749836    0.282912    0.012563
     16          6           0        5.289339   -1.037617    0.038407
     17          6           0        3.920547   -1.313707   -0.030366
     18          6           0        3.036213   -0.240237   -0.124743
     19          6           0        3.464069    1.086204   -0.152726
     20          6           0        4.837340    1.338746   -0.082753
     21          1           0        6.814887    0.488239    0.066453
     22          1           0        5.995702   -1.859581    0.112376
     23          1           0        3.536738   -2.326516   -0.012330
     24          1           0        2.735754    1.884611   -0.227034
     25          1           0        5.192105    2.365282   -0.103030
     26          7           0        1.584763   -0.520057   -0.198185
     27          8           0        0.826077    0.443374   -0.280849
     28          8           0        1.233287   -1.697512   -0.171696
 ---------------------------------------------------------------------

 SCF Done:  E(RHF) =  -868.337249174     A.U. after   16 cycles
 E2 =    -0.2600310779D+01 EUMP2 =    -0.87093755995369D+03

 The electronic state is 1-A.
 Alpha  occ. eigenvalues --  -20.61115 -20.61072 -20.59490 -20.59461 -15.86130
 Alpha  occ. eigenvalues --  -15.84527 -11.31499 -11.29745 -11.28103 -11.28030
 Alpha  occ. eigenvalues --  -11.27795 -11.27095 -11.27046 -11.26376 -11.26278
 Alpha  occ. eigenvalues --  -11.26137 -11.25431 -11.25333  -1.60172  -1.58549
 Alpha  occ. eigenvalues --   -1.39725  -1.38109  -1.19670  -1.17916  -1.09063
 Alpha  occ. eigenvalues --   -1.07372  -1.05071  -1.03329  -0.95898  -0.94231
 Alpha  occ. eigenvalues --   -0.86468  -0.84767  -0.82729  -0.81084  -0.77784
 Alpha  occ. eigenvalues --   -0.76128  -0.72348  -0.71502  -0.70775  -0.70768
 Alpha  occ. eigenvalues --   -0.69849  -0.69131  -0.65320  -0.65071  -0.63622
 Alpha  occ. eigenvalues --   -0.63414  -0.62420  -0.60725  -0.55566  -0.53935
 Alpha  occ. eigenvalues --   -0.53402  -0.53162  -0.51651  -0.51493  -0.49109
 Alpha  occ. eigenvalues --   -0.49061  -0.47522  -0.47508  -0.45133  -0.43547
 Alpha  occ. eigenvalues --   -0.37649  -0.36676  -0.35903  -0.34803
 Alpha virt. eigenvalues --    0.04728   0.06455   0.10979   0.12767   0.16228
 Alpha virt. eigenvalues --    0.17971   0.21128   0.22583   0.27028   0.27997
 Alpha virt. eigenvalues --    0.28493   0.29471   0.30694   0.32029   0.32254

 Mulliken charges:
               1
     1  C   -0.170041
     2  C   -0.201675
     3  C   -0.156165
     4  C    0.159783
     5  C   -0.171693
     6  C   -0.218215
     7  H    0.217368
     8  H    0.215990
     9  H    0.273452
    10  H    0.270802
    11  H    0.216744
    12  N    0.488859
    13  O   -0.466044
    14  O   -0.460221
    15  C   -0.170682
    16  C   -0.218404
    17  C   -0.170626
    18  C    0.157985
    19  C   -0.171776
    20  C   -0.218333
    21  H    0.226502
    22  H    0.225095
    23  H    0.278093
    24  H    0.271886
    25  H    0.222996
    26  N    0.488132
    27  O   -0.465167
    28  O   -0.454648
 Sum of Mulliken charges =  -0.00000

 Dipole moment (field-independent basis, Debye):
    X=              7.2016    Y=              5.6854    Z=              0.6699  Tot=              9.1997
 Quadrupole moment (field-independent basis, Debye-Ang):
   XX=            -85.8744   YY=           -101.5784   ZZ=           -102.8988
   XY=            -16.5196   XZ=              1.4623   YZ=             -1.1660

 Normal termination of Gaussian 16 at Fri May  7 04:59:22 2021.
