 Gaussian 16, Revision A.03,
 Gaussian 16:  EM64L-G16RevA.03 25-Dec-2016

 -------------
 #p 6-31g* mp2
 -------------

 ------------------------------------------------------
 Input file generated by CHIRIPA (05-May-2021 14:55:22)
 ------------------------------------------------------
 Symbolic Z-matrix:
 Charge =  0 Multiplicity = 1

                         Standard orientation:
 ---------------------------------------------------------------------
 Center     Atomic      Atomic             Coordinates (Angstroms)
 Number     Number       Type             X           Y           Z
 ---------------------------------------------------------------------
      1          6           0       -3.498423   -2.269625   -0.035091
      2          6           0       -4.416554   -1.442393   -0.690258
      3          6           0       -4.274330   -0.052175   -0.650084
      4          6           0       -3.197425    0.479388    0.057735
      5          6           0       -2.266070   -0.318352    0.720667
      6          6           0       -2.427999   -1.705958    0.667043
      7          1           0       -3.616560   -3.348566   -0.071524
      8          1           0       -5.248823   -1.877367   -1.236309
      9          1           0       -4.970469    0.611581   -1.148316
     10          1           0       -1.446573    0.144520    1.256943
     11          1           0       -1.713432   -2.345951    1.176795
     12          7           0       -3.036429    1.949767    0.107386
     13          8           0       -2.079106    2.393363    0.737776
     14          8           0       -3.870612    2.630812   -0.485028
     15          6           0        3.367358   -0.257804    0.005846
     16          6           0        2.672140   -1.619136   -0.032005
     17          6           0        1.153373   -1.511385    0.107745
     18          1           0        3.119452    0.247283    0.949443
     19          1           0        2.967827    0.372693   -0.800530
     20          1           0        3.073853   -2.247359    0.773339
     21          1           0        2.921884   -2.121123   -0.975538
     22          1           0        0.733866   -0.906687   -0.702783
     23          1           0        0.886697   -1.033641    1.056031
     24          1           0        0.676615   -2.496109    0.078094
     25          6           0        4.885978   -0.349048   -0.132700
     26          6           0        5.581197    1.012284   -0.094848
     27          6           0        7.099963    0.904534   -0.234599
     28          1           0        5.285509   -0.979545    0.673676
     29          1           0        5.133884   -0.854135   -1.076297
     30          1           0        5.331453    1.514271    0.848684
     31          1           0        5.179484    1.640507   -0.900193
     32          1           0        7.366639    0.426789   -1.182885
     33          1           0        7.519472    0.299836    0.575929
     34          1           0        7.576721    1.889258   -0.204949
 ---------------------------------------------------------------------

 SCF Done:  E(RHF) =  -669.534957502     A.U. after   15 cycles
 E2 =    -0.2092018848D+01 EUMP2 =    -0.67162697635066D+03

 The electronic state is 1-A.
 Alpha  occ. eigenvalues --  -20.60708 -20.60703 -15.85760 -11.31095 -11.27670
 Alpha  occ. eigenvalues --  -11.27631 -11.27404 -11.26689 -11.26629 -11.21996
 Alpha  occ. eigenvalues --  -11.21763 -11.21612 -11.21563 -11.21474 -11.21073
 Alpha  occ. eigenvalues --   -1.59784  -1.39338  -1.19271  -1.08675  -1.08622
 Alpha  occ. eigenvalues --   -1.04675  -1.03777  -0.96261  -0.95509  -0.87298
 Alpha  occ. eigenvalues --   -0.86067  -0.82344  -0.79864  -0.78399  -0.77375
 Alpha  occ. eigenvalues --   -0.71979  -0.71107  -0.70385  -0.65251  -0.64921
 Alpha  occ. eigenvalues --   -0.64690  -0.62050  -0.61163  -0.59641  -0.57845
 Alpha  occ. eigenvalues --   -0.55548  -0.55172  -0.53251  -0.53007  -0.52640
 Alpha  occ. eigenvalues --   -0.52501  -0.50196  -0.48736  -0.48734  -0.48156
 Alpha  occ. eigenvalues --   -0.46862  -0.45950  -0.45848  -0.44748  -0.44021
 Alpha  occ. eigenvalues --   -0.37258  -0.36220
 Alpha virt. eigenvalues --    0.05123   0.11355   0.16570   0.20559   0.22787
 Alpha virt. eigenvalues --    0.24024   0.25704   0.26638   0.27023   0.27985
 Alpha virt. eigenvalues --    0.29294   0.29805   0.31348   0.31583   0.32417

 Mulliken charges:
               1
     1  C   -0.172258
     2  C   -0.218692
     3  C   -0.171344
     4  C    0.157378
     5  C   -0.170261
     6  C   -0.216220
     7  H    0.224966
     8  H    0.222930
     9  H    0.275133
    10  H    0.276961
    11  H    0.225208
    12  N    0.488155
    13  O   -0.460675
    14  O   -0.460819
    15  C   -0.299466
    16  C   -0.300778
    17  C   -0.477658
    18  H    0.151520
    19  H    0.153097
    20  H    0.151484
    21  H    0.153458
    22  H    0.163384
    23  H    0.148640
    24  H    0.153961
    25  C   -0.298620
    26  C   -0.300119
    27  C   -0.475899
    28  H    0.148916
    29  H    0.149484
    30  H    0.153376
    31  H    0.153788
    32  H    0.154895
    33  H    0.154704
    34  H    0.161373
 Sum of Mulliken charges =  -0.00000

 Dipole moment (field-independent basis, Debye):
    X=             -0.4428    Y=             -5.1378    Z=             -0.2224  Tot=              5.1616
 Quadrupole moment (field-independent basis, Debye-Ang):
   XX=            -89.1005   YY=           -100.4951   ZZ=            -92.8061
   XY=             16.0538   XZ=              3.3193   YZ=             -0.7558

 Normal termination of Gaussian 16 at Wed May  5 20:39:25 2021.
