 Gaussian 16, Revision A.03,
 Gaussian 16:  EM64L-G16RevA.03 25-Dec-2016

 -------------
 #p 6-31g* mp2
 -------------

 ------------------------------------------------------
 Input file generated by CHIRIPA (05-May-2021 14:55:22)
 ------------------------------------------------------
 Symbolic Z-matrix:
 Charge =  0 Multiplicity = 1

                         Standard orientation:
 ---------------------------------------------------------------------
 Center     Atomic      Atomic             Coordinates (Angstroms)
 Number     Number       Type             X           Y           Z
 ---------------------------------------------------------------------
      1          6           0        0.778497    0.741217    1.126098
      2          6           0        1.363179   -0.456109    1.551633
      3          6           0        2.590300   -0.872754    1.027108
      4          6           0        3.207872   -0.063943    0.074364
      5          6           0        2.650704    1.134208   -0.369807
      6          6           0        1.422989    1.531161    0.168424
      7          1           0       -0.174991    1.057228    1.538886
      8          1           0        0.864928   -1.071603    2.295245
      9          1           0        3.065323   -1.795072    1.338719
     10          1           0        3.171313    1.726547   -1.112451
     11          1           0        0.971264    2.461503   -0.163920
     12          7           0        4.507284   -0.494604   -0.488182
     13          8           0        5.031164    0.235872   -1.326390
     14          8           0        4.977280   -1.554476   -0.080246
     15          6           0       -3.644748   -0.719947   -0.421097
     16          6           0       -4.690701   -1.762418   -0.024582
     17          6           0       -4.301940   -3.179837   -0.445988
     18          1           0       -3.497485   -0.753094   -1.509288
     19          1           0       -2.680500   -0.987035    0.033090
     20          1           0       -5.653013   -1.492685   -0.478251
     21          1           0       -4.835630   -1.726654    1.062769
     22          1           0       -3.354653   -3.473447    0.017736
     23          1           0       -4.176679   -3.238150   -1.532041
     24          1           0       -5.063614   -3.909007   -0.152691
     25          6           0       -4.019157    0.701938   -0.006624
     26          6           0       -2.973204    1.744409   -0.403140
     27          6           0       -3.361965    3.161828    0.018266
     28          1           0       -4.983404    0.969027   -0.460811
     29          1           0       -4.166420    0.735085    1.081567
     30          1           0       -2.828275    1.708645   -1.490491
     31          1           0       -2.010892    1.474678    0.050530
     32          1           0       -3.487226    3.220141    1.104319
     33          1           0       -4.309252    3.455438   -0.445458
     34          1           0       -2.600291    3.890998   -0.275030
 ---------------------------------------------------------------------

 SCF Done:  E(RHF) =  -669.535334297     A.U. after   15 cycles
 E2 =    -0.2091684024D+01 EUMP2 =    -0.67162701832076D+03

 The electronic state is 1-A.
 Alpha  occ. eigenvalues --  -20.60771 -20.60765 -15.85824 -11.31203 -11.27769
 Alpha  occ. eigenvalues --  -11.27761 -11.27502 -11.26794 -11.26778 -11.22607
 Alpha  occ. eigenvalues --  -11.22221 -11.22195 -11.22074 -11.22031 -11.21560
 Alpha  occ. eigenvalues --   -1.59846  -1.39399  -1.19374  -1.09222  -1.08768
 Alpha  occ. eigenvalues --   -1.04777  -1.04305  -0.96733  -0.95604  -0.87746
 Alpha  occ. eigenvalues --   -0.86174  -0.82436  -0.80382  -0.79008  -0.77475
 Alpha  occ. eigenvalues --   -0.72042  -0.71168  -0.70515  -0.65868  -0.65027
 Alpha  occ. eigenvalues --   -0.64776  -0.62127  -0.61709  -0.60119  -0.58341
 Alpha  occ. eigenvalues --   -0.56022  -0.55299  -0.53430  -0.53154  -0.53096
 Alpha  occ. eigenvalues --   -0.52867  -0.50671  -0.48804  -0.48797  -0.48674
 Alpha  occ. eigenvalues --   -0.47422  -0.46540  -0.46467  -0.44801  -0.44550
 Alpha  occ. eigenvalues --   -0.37334  -0.36376
 Alpha virt. eigenvalues --    0.05021   0.11229   0.16401   0.19571   0.22648
 Alpha virt. eigenvalues --    0.23700   0.25556   0.26281   0.26605   0.27917
 Alpha virt. eigenvalues --    0.29221   0.29838   0.30952   0.31288   0.32309

 Mulliken charges:
               1
     1  C   -0.171303
     2  C   -0.219500
     3  C   -0.170890
     4  C    0.158704
     5  C   -0.171114
     6  C   -0.218223
     7  H    0.227599
     8  H    0.223300
     9  H    0.275660
    10  H    0.275730
    11  H    0.224400
    12  N    0.488069
    13  O   -0.460324
    14  O   -0.460355
    15  C   -0.298212
    16  C   -0.300270
    17  C   -0.475789
    18  H    0.152868
    19  H    0.146081
    20  H    0.153788
    21  H    0.151029
    22  H    0.154373
    23  H    0.157245
    24  H    0.162053
    25  C   -0.298750
    26  C   -0.304712
    27  C   -0.476281
    28  H    0.153317
    29  H    0.147948
    30  H    0.156725
    31  H    0.143803
    32  H    0.154549
    33  H    0.160499
    34  H    0.157982
 Sum of Mulliken charges =  -0.00000

 Dipole moment (field-independent basis, Debye):
    X=             -4.7184    Y=              1.4832    Z=              1.9007  Tot=              5.2987
 Quadrupole moment (field-independent basis, Debye-Ang):
   XX=           -123.9714   YY=            -92.8404   ZZ=            -92.5853
   XY=              5.4251   XZ=              6.6964   YZ=             -3.1811

 Normal termination of Gaussian 16 at Thu May  6 15:52:49 2021.
