 Gaussian 16, Revision A.03,
 Gaussian 16:  EM64L-G16RevA.03 25-Dec-2016

 -------------
 #p 6-31g* mp2
 -------------

 ------------------------------------------------------
 Input file generated by CHIRIPA (05-May-2021 14:53:16)
 ------------------------------------------------------
 Symbolic Z-matrix:
 Charge =  0 Multiplicity = 1

                         Standard orientation:
 ---------------------------------------------------------------------
 Center     Atomic      Atomic             Coordinates (Angstroms)
 Number     Number       Type             X           Y           Z
 ---------------------------------------------------------------------
      1          6           0       -3.614048   -0.162569    0.326567
      2          6           0       -4.053082   -1.555347   -0.126648
      3          6           0       -4.875143   -2.289945    0.932774
      4          1           0       -3.026990   -0.252782    1.250779
      5          1           0       -4.503880    0.430970    0.578172
      6          1           0       -3.162757   -2.145630   -0.378645
      7          1           0       -4.639002   -1.461826   -1.049994
      8          1           0       -5.780179   -1.724929    1.178271
      9          1           0       -4.295545   -2.412619    1.853435
     10          1           0       -5.178494   -3.283389    0.587944
     11          6           0       -2.791333    0.584314   -0.721781
     12          6           0       -2.352299    1.977092   -0.268566
     13          6           0       -1.530238    2.711690   -1.327988
     14          1           0       -1.901501   -0.009225   -0.973387
     15          1           0       -3.378392    0.674526   -1.645994
     16          1           0       -1.766379    1.883570    0.654780
     17          1           0       -3.242625    2.567375   -0.016570
     18          1           0       -2.109836    2.834364   -2.248650
     19          1           0       -0.625203    2.146674   -1.573486
     20          1           0       -1.226887    3.705134   -0.983158
     21          6           0        2.023216    1.090742    2.289878
     22          6           0        2.693243   -0.136286    2.334470
     23          6           0        2.963909   -0.840639    1.157537
     24          6           0        2.548399   -0.286120   -0.052072
     25          6           0        1.878933    0.934190   -0.129215
     26          6           0        1.618913    1.621128    1.060345
     27          1           0        1.817091    1.631137    3.209052
     28          1           0        3.008403   -0.550603    3.287917
     29          1           0        3.480942   -1.792512    1.163192
     30          1           0        1.577135    1.321783   -1.094672
     31          1           0        1.098385    2.573850    1.022688
     32          7           0        2.829307   -1.022569   -1.304722
     33          8           0        2.452798   -0.512577   -2.357711
     34          8           0        3.420670   -2.095846   -1.209841
 ---------------------------------------------------------------------

 SCF Done:  E(RHF) =  -669.535453250     A.U. after   15 cycles
 E2 =    -0.2092265245D+01 EUMP2 =    -0.67162771849486D+03

 The electronic state is 1-A.
 Alpha  occ. eigenvalues --  -20.60809 -20.60804 -15.85862 -11.31236 -11.27807
 Alpha  occ. eigenvalues --  -11.27792 -11.27547 -11.26825 -11.26806 -11.22082
 Alpha  occ. eigenvalues --  -11.21711 -11.21683 -11.21620 -11.21550 -11.21159
 Alpha  occ. eigenvalues --   -1.59885  -1.39438  -1.19412  -1.08804  -1.08687
 Alpha  occ. eigenvalues --   -1.04818  -1.03835  -0.96294  -0.95636  -0.87313
 Alpha  occ. eigenvalues --   -0.86210  -0.82465  -0.79902  -0.78468  -0.77516
 Alpha  occ. eigenvalues --   -0.72080  -0.71209  -0.70528  -0.65341  -0.65053
 Alpha  occ. eigenvalues --   -0.64817  -0.62262  -0.61150  -0.59676  -0.57889
 Alpha  occ. eigenvalues --   -0.55625  -0.55262  -0.53135  -0.53008  -0.52967
 Alpha  occ. eigenvalues --   -0.52645  -0.50226  -0.48839  -0.48834  -0.48210
 Alpha  occ. eigenvalues --   -0.46921  -0.46020  -0.45917  -0.44840  -0.44070
 Alpha  occ. eigenvalues --   -0.37390  -0.36399
 Alpha virt. eigenvalues --    0.04989   0.11150   0.16402   0.19962   0.22902
 Alpha virt. eigenvalues --    0.23903   0.25628   0.26378   0.26915   0.28071
 Alpha virt. eigenvalues --    0.29046   0.30182   0.31424   0.31554   0.31862

 Mulliken charges:
               1
     1  C   -0.298444
     2  C   -0.300360
     3  C   -0.475786
     4  H    0.148259
     5  H    0.148895
     6  H    0.154821
     7  H    0.153178
     8  H    0.154641
     9  H    0.154137
    10  H    0.161689
    11  C   -0.299125
    12  C   -0.300987
    13  C   -0.481320
    14  H    0.153872
    15  H    0.152089
    16  H    0.147348
    17  H    0.153373
    18  H    0.162527
    19  H    0.153450
    20  H    0.155724
    21  C   -0.171707
    22  C   -0.218445
    23  C   -0.170815
    24  C    0.159418
    25  C   -0.176767
    26  C   -0.219780
    27  H    0.225964
    28  H    0.223675
    29  H    0.275772
    30  H    0.280411
    31  H    0.226962
    32  N    0.487820
    33  O   -0.460258
    34  O   -0.460231
 Sum of Mulliken charges =  -0.00000

 Dipole moment (field-independent basis, Debye):
    X=             -1.0487    Y=              2.5290    Z=              4.3715  Tot=              5.1581
 Quadrupole moment (field-independent basis, Debye-Ang):
   XX=            -98.8794   YY=            -94.3560   ZZ=            -94.4526
   XY=              4.3851   XZ=             13.7977   YZ=             -3.3134

 Normal termination of Gaussian 16 at Thu May  6 12:15:38 2021.
