 Gaussian 16, Revision A.03,
 Gaussian 16:  EM64L-G16RevA.03 25-Dec-2016

 -------------
 #p 6-31g* mp2
 -------------

 ------------------------------------------------------
 Input file generated by CHIRIPA (05-May-2021 14:55:24)
 ------------------------------------------------------
 Symbolic Z-matrix:
 Charge =  0 Multiplicity = 1

                         Standard orientation:
 ---------------------------------------------------------------------
 Center     Atomic      Atomic             Coordinates (Angstroms)
 Number     Number       Type             X           Y           Z
 ---------------------------------------------------------------------
      1          6           0       -0.804815   -0.407490    1.408345
      2          6           0       -1.519976    0.794049    1.371349
      3          6           0       -2.751547    0.867316    0.713768
      4          6           0       -3.240469   -0.285436    0.101063
      5          6           0       -2.551615   -1.497209    0.120502
      6          6           0       -1.322006   -1.547275    0.783904
      7          1           0        0.151137   -0.455395    1.921430
      8          1           0       -1.120758    1.680808    1.855425
      9          1           0       -3.326094    1.784583    0.669756
     10          1           0       -2.975273   -2.364453   -0.371249
     11          1           0       -0.768793   -2.481761    0.811024
     12          7           0       -4.543240   -0.220152   -0.598169
     13          8           0       -4.952285   -1.249845   -1.130195
     14          8           0       -5.130638    0.859474   -0.600961
     15          6           0        4.201314   -0.303683   -0.373758
     16          6           0        5.689045   -0.316645   -0.020946
     17          6           0        6.331840   -1.689602   -0.219931
     18          1           0        3.678348   -1.047764    0.242516
     19          1           0        4.076640   -0.619979   -1.418654
     20          1           0        5.810984    0.000913    1.022559
     21          1           0        6.208499    0.427690   -0.637996
     22          1           0        6.239628   -2.010685   -1.262526
     23          1           0        5.839855   -2.439887    0.407464
     24          1           0        7.395368   -1.676165    0.038116
     25          6           0        3.544622    1.061944   -0.179984
     26          6           0        2.056892    1.074905   -0.532795
     27          6           0        1.414096    2.447863   -0.333810
     28          1           0        3.669297    1.378240    0.864912
     29          1           0        4.067589    1.806025   -0.796257
     30          1           0        1.537438    0.330572    0.084254
     31          1           0        1.934952    0.757348   -1.576302
     32          1           0        1.906082    3.198147   -0.961206
     33          1           0        1.506309    2.768946    0.708784
     34          1           0        0.350569    2.434426   -0.591858
 ---------------------------------------------------------------------

 SCF Done:  E(RHF) =  -669.534407535     A.U. after   15 cycles
 E2 =    -0.2093303049D+01 EUMP2 =    -0.67162771058403D+03

 The electronic state is 1-A.
 Alpha  occ. eigenvalues --  -20.60785 -20.60780 -15.85839 -11.31219 -11.27790
 Alpha  occ. eigenvalues --  -11.27786 -11.27534 -11.26812 -11.26792 -11.22243
 Alpha  occ. eigenvalues --  -11.22162 -11.22066 -11.22008 -11.21760 -11.21571
 Alpha  occ. eigenvalues --   -1.59861  -1.39414  -1.19404  -1.09091  -1.08793
 Alpha  occ. eigenvalues --   -1.04806  -1.04150  -0.96608  -0.95631  -0.87626
 Alpha  occ. eigenvalues --   -0.86196  -0.82466  -0.80215  -0.78894  -0.77494
 Alpha  occ. eigenvalues --   -0.72058  -0.71184  -0.70555  -0.65742  -0.65053
 Alpha  occ. eigenvalues --   -0.64799  -0.62161  -0.61561  -0.59974  -0.58219
 Alpha  occ. eigenvalues --   -0.55925  -0.55344  -0.53401  -0.53097  -0.52946
 Alpha  occ. eigenvalues --   -0.52835  -0.50555  -0.48820  -0.48811  -0.48521
 Alpha  occ. eigenvalues --   -0.47257  -0.46433  -0.46364  -0.44816  -0.44408
 Alpha  occ. eigenvalues --   -0.37300  -0.36386
 Alpha virt. eigenvalues --    0.04995   0.11205   0.16376   0.19947   0.22713
 Alpha virt. eigenvalues --    0.23982   0.25585   0.26028   0.27034   0.28295
 Alpha virt. eigenvalues --    0.28769   0.30631   0.31022   0.31221   0.32116

 Mulliken charges:
               1
     1  C   -0.169225
     2  C   -0.215908
     3  C   -0.173157
     4  C    0.158903
     5  C   -0.170722
     6  C   -0.219070
     7  H    0.225623
     8  H    0.225950
     9  H    0.275946
    10  H    0.275807
    11  H    0.223782
    12  N    0.488064
    13  O   -0.460331
    14  O   -0.460318
    15  C   -0.297141
    16  C   -0.299926
    17  C   -0.475877
    18  H    0.143495
    19  H    0.152037
    20  H    0.151478
    21  H    0.154022
    22  H    0.156474
    23  H    0.153864
    24  H    0.162042
    25  C   -0.298409
    26  C   -0.302174
    27  C   -0.478700
    28  H    0.146499
    29  H    0.152666
    30  H    0.147050
    31  H    0.156325
    32  H    0.159230
    33  H    0.147019
    34  H    0.164681
 Sum of Mulliken charges =  -0.00000

 Dipole moment (field-independent basis, Debye):
    X=              4.6266    Y=             -0.2294    Z=              2.3872  Tot=              5.2112
 Quadrupole moment (field-independent basis, Debye-Ang):
   XX=           -125.2326   YY=            -90.8090   ZZ=            -93.7217
   XY=             -0.4270   XZ=             -8.1312   YZ=              0.1947

 Normal termination of Gaussian 16 at Wed May  5 20:48:16 2021.
