 Gaussian 16, Revision A.03,
 Gaussian 16:  EM64L-G16RevA.03 25-Dec-2016

 -------------
 #p 6-31g* mp2
 -------------

 ------------------------------------------------------
 Input file generated by CHIRIPA (05-May-2021 14:53:12)
 ------------------------------------------------------
 Symbolic Z-matrix:
 Charge =  0 Multiplicity = 1

                         Standard orientation:
 ---------------------------------------------------------------------
 Center     Atomic      Atomic             Coordinates (Angstroms)
 Number     Number       Type             X           Y           Z
 ---------------------------------------------------------------------
      1          6           0       -3.161123    0.753255   -0.340781
      2          6           0       -3.126724    2.278024   -0.231774
      3          6           0       -1.759761    2.865212   -0.584500
      4          1           0       -2.395417    0.327264    0.321919
      5          1           0       -2.887720    0.459483   -1.363690
      6          1           0       -3.401457    2.568888    0.790252
      7          1           0       -3.892730    2.700427   -0.894666
      8          1           0       -1.481325    2.603797   -1.610530
      9          1           0       -0.987260    2.471510    0.083961
     10          1           0       -1.757621    3.956406   -0.499936
     11          6           0       -4.521039    0.151434    0.008748
     12          6           0       -4.555438   -1.373334   -0.100258
     13          6           0       -5.922401   -1.960522    0.252468
     14          1           0       -4.794442    0.445206    1.031658
     15          1           0       -5.286745    0.577426   -0.653951
     16          1           0       -3.789432   -1.795738    0.562634
     17          1           0       -4.280706   -1.664198   -1.122284
     18          1           0       -6.694902   -1.566821   -0.415994
     19          1           0       -6.200837   -1.699107    1.278497
     20          1           0       -5.924541   -3.051716    0.167904
     21          6           0        0.571594   -0.812628    0.633456
     22          6           0        1.301852    0.061236    1.445618
     23          6           0        2.648421    0.323088    1.175927
     24          6           0        3.235695   -0.308997    0.080999
     25          6           0        2.534727   -1.184616   -0.746785
     26          6           0        1.189274   -1.431673   -0.458229
     27          1           0       -0.474020   -1.010294    0.850286
     28          1           0        0.824757    0.543412    2.294106
     29          1           0        3.237238    0.995222    1.788257
     30          1           0        3.037739   -1.650347   -1.585529
     31          1           0        0.624607   -2.110786   -1.090685
     32          7           0        4.660658   -0.039618   -0.214497
     33          8           0        5.154898   -0.609086   -1.185100
     34          8           0        5.256321    0.735889    0.530091
 ---------------------------------------------------------------------

 SCF Done:  E(RHF) =  -669.535487729     A.U. after   15 cycles
 E2 =    -0.2091858602D+01 EUMP2 =    -0.67162734633079D+03

 The electronic state is 1-A.
 Alpha  occ. eigenvalues --  -20.60750 -20.60745 -15.85805 -11.31174 -11.27757
 Alpha  occ. eigenvalues --  -11.27746 -11.27476 -11.26779 -11.26743 -11.22516
 Alpha  occ. eigenvalues --  -11.22375 -11.22307 -11.22212 -11.21793 -11.21639
 Alpha  occ. eigenvalues --   -1.59825  -1.39379  -1.19352  -1.09288  -1.08743
 Alpha  occ. eigenvalues --   -1.04757  -1.04294  -0.96729  -0.95579  -0.87740
 Alpha  occ. eigenvalues --   -0.86153  -0.82414  -0.80365  -0.79134  -0.77456
 Alpha  occ. eigenvalues --   -0.72023  -0.71148  -0.70477  -0.65924  -0.65004
 Alpha  occ. eigenvalues --   -0.64757  -0.62106  -0.61691  -0.60100  -0.58353
 Alpha  occ. eigenvalues --   -0.56056  -0.55252  -0.53392  -0.53144  -0.53071
 Alpha  occ. eigenvalues --   -0.52848  -0.50666  -0.48783  -0.48777  -0.48670
 Alpha  occ. eigenvalues --   -0.47411  -0.46642  -0.46573  -0.44784  -0.44575
 Alpha  occ. eigenvalues --   -0.37300  -0.36358
 Alpha virt. eigenvalues --    0.05060   0.11212   0.16472   0.19508   0.22686
 Alpha virt. eigenvalues --    0.23437   0.24780   0.26131   0.26835   0.27669
 Alpha virt. eigenvalues --    0.29793   0.30660   0.31040   0.31270   0.31724

 Mulliken charges:
               1
     1  C   -0.300316
     2  C   -0.300412
     3  C   -0.476833
     4  H    0.140084
     5  H    0.151304
     6  H    0.151813
     7  H    0.155189
     8  H    0.157638
     9  H    0.153505
    10  H    0.162970
    11  C   -0.298435
    12  C   -0.299707
    13  C   -0.475935
    14  H    0.150615
    15  H    0.153607
    16  H    0.144607
    17  H    0.152435
    18  H    0.157903
    19  H    0.156528
    20  H    0.161717
    21  C   -0.170387
    22  C   -0.220762
    23  C   -0.170628
    24  C    0.158523
    25  C   -0.170668
    26  C   -0.219868
    27  H    0.229984
    28  H    0.223100
    29  H    0.275702
    30  H    0.275590
    31  H    0.223965
    32  N    0.488084
    33  O   -0.460462
    34  O   -0.460449
 Sum of Mulliken charges =  -0.00000

 Dipole moment (field-independent basis, Debye):
    X=             -5.1637    Y=             -0.8971    Z=              0.9684  Tot=              5.3298
 Quadrupole moment (field-independent basis, Debye-Ang):
   XX=           -127.9460   YY=            -92.8998   ZZ=            -90.8566
   XY=             -2.0025   XZ=              3.8546   YZ=              2.4313

 Normal termination of Gaussian 16 at Wed May  5 20:06:54 2021.
