 Gaussian 16, Revision A.03,
 Gaussian 16:  EM64L-G16RevA.03 25-Dec-2016

 -------------
 #p 6-31g* mp2
 -------------

 ------------------------------------------------------
 Input file generated by CHIRIPA (05-May-2021 14:55:23)
 ------------------------------------------------------
 Symbolic Z-matrix:
 Charge =  0 Multiplicity = 1

                         Standard orientation:
 ---------------------------------------------------------------------
 Center     Atomic      Atomic             Coordinates (Angstroms)
 Number     Number       Type             X           Y           Z
 ---------------------------------------------------------------------
      1          6           0       -5.239520    0.103404   -0.308994
      2          6           0       -4.399701   -0.353766   -1.329886
      3          6           0       -3.016861   -0.420378   -1.135295
      4          6           0       -2.505431   -0.020083    0.098193
      5          6           0       -3.316087    0.439924    1.134784
      6          6           0       -4.695990    0.498094    0.917920
      7          1           0       -6.312602    0.151871   -0.468807
      8          1           0       -4.819028   -0.660941   -2.283748
      9          1           0       -2.343692   -0.770318   -1.908473
     10          1           0       -2.868744    0.739256    2.074839
     11          1           0       -5.345793    0.853557    1.712557
     12          7           0       -1.043035   -0.086133    0.315987
     13          8           0       -0.617232    0.272331    1.411812
     14          8           0       -0.350302   -0.495117   -0.613255
     15          6           0        3.639278   -0.624469    0.324359
     16          6           0        3.236691   -1.900643   -0.415431
     17          6           0        3.490422   -3.165094    0.405898
     18          1           0        4.703478   -0.682930    0.590831
     19          1           0        3.082977   -0.566247    1.270156
     20          1           0        3.792563   -1.955743   -1.360198
     21          1           0        2.173373   -1.839055   -0.680340
     22          1           0        2.923615   -3.136535    1.342123
     23          1           0        4.552005   -3.253886    0.658402
     24          1           0        3.195525   -4.065547   -0.141896
     25          6           0        3.391638    0.648014   -0.483842
     26          6           0        3.794226    1.924188    0.255948
     27          6           0        3.540495    3.188638   -0.565381
     28          1           0        3.947940    0.589791   -1.429639
     29          1           0        2.327438    0.706476   -0.750313
     30          1           0        4.857544    1.862599    0.520858
     31          1           0        3.238353    1.979287    1.200715
     32          1           0        2.478912    3.277432   -0.817884
     33          1           0        4.107301    3.160080   -1.501604
     34          1           0        3.835392    4.089091   -0.017586
 ---------------------------------------------------------------------

 SCF Done:  E(RHF) =  -669.536991827     A.U. after   15 cycles
 E2 =    -0.2092153514D+01 EUMP2 =    -0.67162914534082D+03

 The electronic state is 1-A.
 Alpha  occ. eigenvalues --  -20.61245 -20.61228 -15.86233 -11.31456 -11.28002
 Alpha  occ. eigenvalues --  -11.27998 -11.27722 -11.26985 -11.26975 -11.20186
 Alpha  occ. eigenvalues --  -11.19964 -11.19804 -11.19716 -11.19644 -11.19556
 Alpha  occ. eigenvalues --   -1.60274  -1.39834  -1.19610  -1.09035  -1.06768
 Alpha  occ. eigenvalues --   -1.04990  -1.02050  -0.95893  -0.94531  -0.86395
 Alpha  occ. eigenvalues --   -0.85562  -0.82731  -0.78104  -0.77795  -0.76567
 Alpha  occ. eigenvalues --   -0.72450  -0.71573  -0.70718  -0.65268  -0.64995
 Alpha  occ. eigenvalues --   -0.63363  -0.62336  -0.59438  -0.57920  -0.56151
 Alpha  occ. eigenvalues --   -0.55499  -0.53819  -0.53326  -0.53080  -0.51300
 Alpha  occ. eigenvalues --   -0.50980  -0.49254  -0.49207  -0.48474  -0.46451
 Alpha  occ. eigenvalues --   -0.45370  -0.44960  -0.44129  -0.43866  -0.42249
 Alpha  occ. eigenvalues --   -0.37583  -0.36585
 Alpha virt. eigenvalues --    0.04699   0.11072   0.16212   0.21204   0.24557
 Alpha virt. eigenvalues --    0.25675   0.27145   0.27954   0.28439   0.29139
 Alpha virt. eigenvalues --    0.29525   0.30851   0.32318   0.32736   0.33131

 Mulliken charges:
               1
     1  C   -0.170169
     2  C   -0.218575
     3  C   -0.170501
     4  C    0.157349
     5  C   -0.170216
     6  C   -0.218641
     7  H    0.226643
     8  H    0.224471
     9  H    0.276218
    10  H    0.276158
    11  H    0.224410
    12  N    0.490672
    13  O   -0.458185
    14  O   -0.460584
    15  C   -0.295242
    16  C   -0.309317
    17  C   -0.474796
    18  H    0.139989
    19  H    0.156761
    20  H    0.142786
    21  H    0.177072
    22  H    0.155047
    23  H    0.149413
    24  H    0.153847
    25  C   -0.305309
    26  C   -0.299331
    27  C   -0.474364
    28  H    0.140234
    29  H    0.171702
    30  H    0.145799
    31  H    0.155814
    32  H    0.154455
    33  H    0.151399
    34  H    0.154990
 Sum of Mulliken charges =  -0.00000

 Dipole moment (field-independent basis, Debye):
    X=             -5.7536    Y=              0.2451    Z=             -0.7232  Tot=              5.8041
 Quadrupole moment (field-independent basis, Debye-Ang):
   XX=            -70.4438   YY=            -97.0656   ZZ=            -90.8031
   XY=             -0.5797   XZ=              0.5759   YZ=              2.6129

 Normal termination of Gaussian 16 at Thu May  6 01:32:45 2021.
