 Gaussian 16, Revision A.03,
 Gaussian 16:  EM64L-G16RevA.03 25-Dec-2016

 -------------
 #p 6-31g* mp2
 -------------

 ------------------------------------------------------
 Input file generated by CHIRIPA (05-May-2021 14:57:27)
 ------------------------------------------------------
 Symbolic Z-matrix:
 Charge =  0 Multiplicity = 1

                         Standard orientation:
 ---------------------------------------------------------------------
 Center     Atomic      Atomic             Coordinates (Angstroms)
 Number     Number       Type             X           Y           Z
 ---------------------------------------------------------------------
      1          6           0       -2.219663    2.693317   -0.154941
      2          6           0       -1.459966    1.890143    0.701967
      3          6           0       -1.812970    0.555574    0.923014
      4          6           0       -2.936807    0.054523    0.267859
      5          6           0       -3.713865    0.829478   -0.591743
      6          6           0       -3.342209    2.161359   -0.797927
      7          1           0       -1.938197    3.728999   -0.320883
      8          1           0       -0.587681    2.300591    1.202663
      9          1           0       -1.242619   -0.088512    1.581247
     10          1           0       -4.578123    0.392107   -1.076700
     11          1           0       -3.934065    2.782778   -1.463954
     12          7           0       -3.320390   -1.356902    0.494005
     13          8           0       -4.314949   -1.774507   -0.095144
     14          8           0       -2.619220   -2.018848    1.256124
     15          6           0        1.043853   -1.828295   -1.032363
     16          6           0        0.868200   -0.441957   -1.093482
     17          6           0        1.875259    0.421472   -0.652041
     18          6           0        3.050480   -0.138151   -0.153075
     19          6           0        3.255385   -1.515053   -0.079295
     20          6           0        2.234784   -2.359482   -0.526355
     21          1           0        0.256286   -2.491648   -1.377467
     22          1           0       -0.055645   -0.026620   -1.485974
     23          1           0        1.765655    1.498558   -0.687988
     24          1           0        4.187364   -1.899467    0.317010
     25          1           0        2.373963   -3.435728   -0.477698
     26          7           0        4.123776    0.765866    0.317234
     27          8           0        5.149823    0.247834    0.752559
     28          8           0        3.918656    1.975348    0.241631
 ---------------------------------------------------------------------

 SCF Done:  E(RHF) =  -868.338050489     A.U. after   16 cycles
 E2 =    -0.2602138042D+01 EUMP2 =    -0.87094018853091D+03

 The electronic state is 1-A.
 Alpha  occ. eigenvalues --  -20.61559 -20.61552 -20.61037 -20.61008 -15.86608
 Alpha  occ. eigenvalues --  -15.86074 -11.31940 -11.31347 -11.28535 -11.28477
 Alpha  occ. eigenvalues --  -11.28230 -11.27918 -11.27829 -11.27487 -11.27478
 Alpha  occ. eigenvalues --  -11.27429 -11.26807 -11.26794  -1.60643  -1.60103
 Alpha  occ. eigenvalues --   -1.40191  -1.39660  -1.20149  -1.19481  -1.09523
 Alpha  occ. eigenvalues --   -1.08870  -1.05528  -1.04851  -0.96353  -0.95729
 Alpha  occ. eigenvalues --   -0.86898  -0.86249  -0.83170  -0.82561  -0.78227
 Alpha  occ. eigenvalues --   -0.77653  -0.72812  -0.72291  -0.71992  -0.71429
 Alpha  occ. eigenvalues --   -0.71183  -0.70529  -0.65755  -0.65469  -0.65109
 Alpha  occ. eigenvalues --   -0.64843  -0.62829  -0.62234  -0.55972  -0.55305
 Alpha  occ. eigenvalues --   -0.54050  -0.53552  -0.53146  -0.52781  -0.49575
 Alpha  occ. eigenvalues --   -0.49574  -0.49059  -0.49031  -0.45598  -0.45087
 Alpha  occ. eigenvalues --   -0.38178  -0.37654  -0.37244  -0.36044
 Alpha virt. eigenvalues --    0.04223   0.04905   0.10092   0.11536   0.15593
 Alpha virt. eigenvalues --    0.16581   0.20570   0.21530   0.26130   0.27273
 Alpha virt. eigenvalues --    0.27723   0.28428   0.30244   0.31167   0.31729

 Mulliken charges:
               1
     1  C   -0.173215
     2  C   -0.226649
     3  C   -0.170935
     4  C    0.151887
     5  C   -0.172579
     6  C   -0.219975
     7  H    0.230592
     8  H    0.231324
     9  H    0.280332
    10  H    0.277273
    11  H    0.226507
    12  N    0.486865
    13  O   -0.459156
    14  O   -0.460003
    15  C   -0.169904
    16  C   -0.220835
    17  C   -0.178530
    18  C    0.158643
    19  C   -0.171953
    20  C   -0.217353
    21  H    0.232892
    22  H    0.228130
    23  H    0.268572
    24  H    0.276049
    25  H    0.226936
    26  N    0.488242
    27  O   -0.458430
    28  O   -0.464727
 Sum of Mulliken charges =  -0.00000

 Dipole moment (field-independent basis, Debye):
    X=             -2.5597    Y=              1.6742    Z=             -2.4179  Tot=              3.8989
 Quadrupole moment (field-independent basis, Debye-Ang):
   XX=           -132.0465   YY=           -100.4298   ZZ=           -103.7207
   XY=            -27.5281   XZ=              1.7493   YZ=              0.6992

 Normal termination of Gaussian 16 at Fri May  7 11:16:41 2021.
