 Gaussian 16, Revision A.03,
 Gaussian 16:  EM64L-G16RevA.03 25-Dec-2016

 -------------
 #p 6-31g* mp2
 -------------

 ------------------------------------------------------
 Input file generated by CHIRIPA (05-May-2021 14:55:25)
 ------------------------------------------------------
 Symbolic Z-matrix:
 Charge =  0 Multiplicity = 1

                         Standard orientation:
 ---------------------------------------------------------------------
 Center     Atomic      Atomic             Coordinates (Angstroms)
 Number     Number       Type             X           Y           Z
 ---------------------------------------------------------------------
      1          6           0       -0.932865   -0.888292    1.739310
      2          6           0       -1.853682   -1.844351    1.298211
      3          6           0       -2.902605   -1.480802    0.448424
      4          6           0       -3.001155   -0.146302    0.057670
      5          6           0       -2.099570    0.829404    0.480083
      6          6           0       -1.058526    0.443186    1.329560
      7          1           0       -0.121096   -1.179511    2.399325
      8          1           0       -1.758557   -2.879127    1.614811
      9          1           0       -3.629455   -2.200514    0.091884
     10          1           0       -2.220368    1.853206    0.147436
     11          1           0       -0.344873    1.187816    1.670545
     12          7           0       -4.107433    0.250571   -0.841798
     13          8           0       -4.172328    1.432778   -1.171662
     14          8           0       -4.888690   -0.628083   -1.199905
     15          6           0        3.767345    0.999111   -0.096496
     16          6           0        2.528229    1.893172   -0.039645
     17          6           0        2.863038    3.346880    0.295663
     18          1           0        4.288282    1.043414    0.869738
     19          1           0        4.464683    1.398041   -0.846142
     20          1           0        1.832826    1.491889    0.708689
     21          1           0        2.010076    1.846585   -1.006062
     22          1           0        3.537982    3.769860   -0.455429
     23          1           0        3.359724    3.413149    1.269066
     24          1           0        1.962788    3.968290    0.331144
     25          6           0        3.448853   -0.457130   -0.430641
     26          6           0        4.687968   -1.351191   -0.487492
     27          6           0        4.353159   -2.804899   -0.822800
     28          1           0        2.751515   -0.856060    0.319005
     29          1           0        2.927916   -0.501433   -1.396874
     30          1           0        5.206121   -1.304605    0.478925
     31          1           0        5.383371   -0.949908   -1.235826
     32          1           0        3.856473   -2.871168   -1.796203
     33          1           0        3.678216   -3.227879   -0.071708
     34          1           0        5.253410   -3.426309   -0.858282
 ---------------------------------------------------------------------

 SCF Done:  E(RHF) =  -669.535322794     A.U. after   15 cycles
 E2 =    -0.2091592415D+01 EUMP2 =    -0.67162691520894D+03

 The electronic state is 1-A.
 Alpha  occ. eigenvalues --  -20.60757 -20.60752 -15.85810 -11.31180 -11.27744
 Alpha  occ. eigenvalues --  -11.27736 -11.27499 -11.26767 -11.26742 -11.22372
 Alpha  occ. eigenvalues --  -11.22135 -11.22044 -11.21974 -11.21749 -11.21569
 Alpha  occ. eigenvalues --   -1.59832  -1.39386  -1.19350  -1.09072  -1.08747
 Alpha  occ. eigenvalues --   -1.04754  -1.04160  -0.96592  -0.95582  -0.87606
 Alpha  occ. eigenvalues --   -0.86157  -0.82415  -0.80233  -0.78883  -0.77455
 Alpha  occ. eigenvalues --   -0.72029  -0.71155  -0.70463  -0.65740  -0.65003
 Alpha  occ. eigenvalues --   -0.64758  -0.62146  -0.61525  -0.59962  -0.58206
 Alpha  occ. eigenvalues --   -0.55879  -0.55259  -0.53294  -0.53080  -0.53019
 Alpha  occ. eigenvalues --   -0.52850  -0.50527  -0.48802  -0.48783  -0.48517
 Alpha  occ. eigenvalues --   -0.47259  -0.46412  -0.46341  -0.44790  -0.44410
 Alpha  occ. eigenvalues --   -0.37323  -0.36335
 Alpha virt. eigenvalues --    0.05065   0.11203   0.16513   0.19999   0.22665
 Alpha virt. eigenvalues --    0.23545   0.25465   0.26424   0.26830   0.28122
 Alpha virt. eigenvalues --    0.29197   0.29958   0.31007   0.31335   0.31963

 Mulliken charges:
               1
     1  C   -0.171946
     2  C   -0.218314
     3  C   -0.170981
     4  C    0.158622
     5  C   -0.172065
     6  C   -0.217208
     7  H    0.225038
     8  H    0.223395
     9  H    0.275582
    10  H    0.275633
    11  H    0.226514
    12  N    0.488051
    13  O   -0.460427
    14  O   -0.460456
    15  C   -0.298667
    16  C   -0.302386
    17  C   -0.476413
    18  H    0.149007
    19  H    0.152955
    20  H    0.142347
    21  H    0.156973
    22  H    0.159628
    23  H    0.155135
    24  H    0.159310
    25  C   -0.297129
    26  C   -0.300285
    27  C   -0.475411
    28  H    0.143097
    29  H    0.153353
    30  H    0.151406
    31  H    0.154211
    32  H    0.157332
    33  H    0.152127
    34  H    0.161969
 Sum of Mulliken charges =  -0.00000

 Dipole moment (field-independent basis, Debye):
    X=              4.0108    Y=             -1.3877    Z=              3.0636  Tot=              5.2343
 Quadrupole moment (field-independent basis, Debye-Ang):
   XX=           -117.9001   YY=            -90.9402   ZZ=            -94.2002
   XY=              5.4776   XZ=             -9.7409   YZ=             -1.0410

 Normal termination of Gaussian 16 at Wed May  5 17:40:44 2021.
