 Gaussian 16, Revision A.03,
 Gaussian 16:  EM64L-G16RevA.03 25-Dec-2016

 -------------
 #p 6-31g* mp2
 -------------

 ------------------------------------------------------
 Input file generated by CHIRIPA (05-May-2021 14:53:18)
 ------------------------------------------------------
 Symbolic Z-matrix:
 Charge =  0 Multiplicity = 1

                         Standard orientation:
 ---------------------------------------------------------------------
 Center     Atomic      Atomic             Coordinates (Angstroms)
 Number     Number       Type             X           Y           Z
 ---------------------------------------------------------------------
      1          6           0       -4.180517   -0.430838    0.271725
      2          6           0       -5.449972    0.045219   -0.435267
      3          6           0       -6.679759    0.012984    0.472686
      4          1           0       -4.336820   -1.452711    0.643598
      5          1           0       -4.002487    0.199131    1.154244
      6          1           0       -5.624791   -0.584588   -1.316969
      7          1           0       -5.290562    1.066007   -0.805667
      8          1           0       -6.530630    0.655849    1.346234
      9          1           0       -6.866758   -1.004123    0.832027
     10          1           0       -7.575937    0.357251   -0.052866
     11          6           0       -2.942585   -0.404346   -0.623011
     12          6           0       -1.673130   -0.880403    0.083981
     13          6           0       -0.443343   -0.848168   -0.823972
     14          1           0       -3.120615   -1.034316   -1.505530
     15          1           0       -2.786282    0.617527   -0.994884
     16          1           0       -1.832540   -1.901191    0.454381
     17          1           0       -1.498311   -0.250597    0.965683
     18          1           0       -0.256344    0.168939   -1.183313
     19          1           0       -0.592472   -1.491033   -1.697520
     20          1           0        0.452835   -1.192435   -0.298420
     21          6           0        1.347232    2.399574    0.222905
     22          6           0        2.057483    2.087490   -0.940997
     23          6           0        2.855815    0.941296   -0.999770
     24          6           0        2.921214    0.125802    0.128938
     25          6           0        2.225505    0.409804    1.303085
     26          6           0        1.433358    1.561214    1.339263
     27          1           0        0.729471    3.291991    0.259786
     28          1           0        1.992485    2.736742   -1.809497
     29          1           0        3.416195    0.675925   -1.888010
     30          1           0        2.310190   -0.256684    2.152814
     31          1           0        0.882871    1.801091    2.244508
     32          7           0        3.763099   -1.090382    0.078676
     33          8           0        3.803923   -1.792554    1.086608
     34          8           0        4.366202   -1.318428   -0.967698
 ---------------------------------------------------------------------

 SCF Done:  E(RHF) =  -669.533117948     A.U. after   15 cycles
 E2 =    -0.2095166152D+01 EUMP2 =    -0.67162828409940D+03

 The electronic state is 1-A.
 Alpha  occ. eigenvalues --  -20.60819 -20.60812 -15.85867 -11.31201 -11.27817
 Alpha  occ. eigenvalues --  -11.27810 -11.27597 -11.26863 -11.26845 -11.21842
 Alpha  occ. eigenvalues --  -11.21702 -11.21629 -11.21560 -11.21297 -11.20863
 Alpha  occ. eigenvalues --   -1.59894  -1.39447  -1.19449  -1.08840  -1.08617
 Alpha  occ. eigenvalues --   -1.04850  -1.03664  -0.96112  -0.95660  -0.87134
 Alpha  occ. eigenvalues --   -0.86246  -0.82494  -0.79750  -0.78446  -0.77530
 Alpha  occ. eigenvalues --   -0.72090  -0.71231  -0.70555  -0.65267  -0.65094
 Alpha  occ. eigenvalues --   -0.64852  -0.62191  -0.61111  -0.59555  -0.57763
 Alpha  occ. eigenvalues --   -0.55604  -0.55356  -0.53578  -0.52939  -0.52549
 Alpha  occ. eigenvalues --   -0.52180  -0.49909  -0.48851  -0.48842  -0.48076
 Alpha  occ. eigenvalues --   -0.46766  -0.45975  -0.45923  -0.44846  -0.43942
 Alpha  occ. eigenvalues --   -0.37330  -0.36399
 Alpha virt. eigenvalues --    0.04978   0.11093   0.16443   0.21208   0.22693
 Alpha virt. eigenvalues --    0.24212   0.26296   0.26898   0.27659   0.27857
 Alpha virt. eigenvalues --    0.28269   0.30485   0.31320   0.31685   0.31814

 Mulliken charges:
               1
     1  C   -0.297775
     2  C   -0.299464
     3  C   -0.475656
     4  H    0.151339
     5  H    0.146368
     6  H    0.153096
     7  H    0.150087
     8  H    0.154112
     9  H    0.156252
    10  H    0.160623
    11  C   -0.297757
    12  C   -0.298488
    13  C   -0.478434
    14  H    0.151290
    15  H    0.145245
    16  H    0.153596
    17  H    0.144334
    18  H    0.155197
    19  H    0.154239
    20  H    0.162012
    21  C   -0.171624
    22  C   -0.218761
    23  C   -0.167693
    24  C    0.160962
    25  C   -0.173576
    26  C   -0.212583
    27  H    0.225914
    28  H    0.223954
    29  H    0.276116
    30  H    0.275862
    31  H    0.223831
    32  N    0.488216
    33  O   -0.460691
    34  O   -0.460143
 Sum of Mulliken charges =  -0.00000

 Dipole moment (field-independent basis, Debye):
    X=             -2.8441    Y=              4.3165    Z=              0.1630  Tot=              5.1718
 Quadrupole moment (field-independent basis, Debye-Ang):
   XX=           -113.4890   YY=            -93.0981   ZZ=            -90.5985
   XY=             12.9271   XZ=             -0.7271   YZ=             -0.3568

 Normal termination of Gaussian 16 at Thu May  6 10:44:49 2021.
