 Gaussian 16, Revision A.03,
 Gaussian 16:  EM64L-G16RevA.03 25-Dec-2016

 -------------
 #p 6-31g* mp2
 -------------

 ------------------------------------------------------
 Input file generated by CHIRIPA (05-May-2021 14:57:20)
 ------------------------------------------------------
 Symbolic Z-matrix:
 Charge =  0 Multiplicity = 1

                         Standard orientation:
 ---------------------------------------------------------------------
 Center     Atomic      Atomic             Coordinates (Angstroms)
 Number     Number       Type             X           Y           Z
 ---------------------------------------------------------------------
      1          6           0       -2.220411    1.627692    0.569485
      2          6           0       -2.978928    1.031970    1.582544
      3          6           0       -4.016070    0.149120    1.267171
      4          6           0       -4.268466   -0.116666   -0.077799
      5          6           0       -3.530512    0.461044   -1.109771
      6          6           0       -2.498134    1.340833   -0.771076
      7          1           0       -1.416584    2.312322    0.823532
      8          1           0       -2.765492    1.252897    2.624504
      9          1           0       -4.618973   -0.326030    2.031474
     10          1           0       -3.766964    0.221303   -2.139350
     11          1           0       -1.910704    1.802015   -1.559924
     12          7           0       -5.363920   -1.049679   -0.424015
     13          8           0       -5.566282   -1.267365   -1.616617
     14          8           0       -5.999433   -1.545623    0.503779
     15          6           0        1.993938    1.352048    0.247467
     16          6           0        2.163722    0.208155    1.034363
     17          6           0        3.319893   -0.569070    0.917157
     18          6           0        4.290361   -0.171405   -0.001181
     19          6           0        4.150379    0.962935   -0.799283
     20          6           0        2.986059    1.725129   -0.665236
     21          1           0        1.092632    1.949976    0.345057
     22          1           0        1.394893   -0.083985    1.744012
     23          1           0        3.477080   -1.459351    1.513906
     24          1           0        4.934336    1.228861   -1.497936
     25          1           0        2.856902    2.612996   -1.277654
     26          7           0        5.518660   -0.986262   -0.134176
     27          8           0        6.358827   -0.614562   -0.950631
     28          8           0        5.617977   -1.981216    0.580552
 ---------------------------------------------------------------------

 SCF Done:  E(RHF) =  -868.336295322     A.U. after   16 cycles
 E2 =    -0.2599999420D+01 EUMP2 =    -0.87093629474222D+03

 The electronic state is 1-A.
 Alpha  occ. eigenvalues --  -20.61362 -20.61356 -20.61201 -20.61195 -15.86420
 Alpha  occ. eigenvalues --  -15.86258 -11.31979 -11.31764 -11.28544 -11.28539
 Alpha  occ. eigenvalues --  -11.28479 -11.28339 -11.28326 -11.28245 -11.27676
 Alpha  occ. eigenvalues --  -11.27664 -11.27444 -11.27424  -1.60432  -1.60273
 Alpha  occ. eigenvalues --   -1.39980  -1.39822  -1.20178  -1.19960  -1.09574
 Alpha  occ. eigenvalues --   -1.09356  -1.05595  -1.05375  -0.96376  -0.96159
 Alpha  occ. eigenvalues --   -0.87004  -0.86782  -0.83190  -0.82979  -0.78167
 Alpha  occ. eigenvalues --   -0.77981  -0.72636  -0.72476  -0.71756  -0.71596
 Alpha  occ. eigenvalues --   -0.71551  -0.70987  -0.65841  -0.65626  -0.65614
 Alpha  occ. eigenvalues --   -0.65388  -0.62926  -0.62712  -0.56435  -0.55765
 Alpha  occ. eigenvalues --   -0.53926  -0.53705  -0.53692  -0.53478  -0.49411
 Alpha  occ. eigenvalues --   -0.49378  -0.49247  -0.49220  -0.45341  -0.45196
 Alpha  occ. eigenvalues --   -0.38250  -0.37960  -0.37181  -0.36964
 Alpha virt. eigenvalues --    0.04309   0.04553   0.10437   0.10679   0.15604
 Alpha virt. eigenvalues --    0.15995   0.18082   0.21915   0.24874   0.26256
 Alpha virt. eigenvalues --    0.26922   0.29383   0.29652   0.31484   0.32134

 Mulliken charges:
               1
     1  C   -0.176640
     2  C   -0.219220
     3  C   -0.170154
     4  C    0.159938
     5  C   -0.169784
     6  C   -0.216645
     7  H    0.218376
     8  H    0.224391
     9  H    0.278221
    10  H    0.278570
    11  H    0.222688
    12  N    0.487866
    13  O   -0.457918
    14  O   -0.458238
    15  C   -0.171320
    16  C   -0.217994
    17  C   -0.170051
    18  C    0.159380
    19  C   -0.170028
    20  C   -0.219262
    21  H    0.215912
    22  H    0.223226
    23  H    0.277869
    24  H    0.277384
    25  H    0.223018
    26  N    0.487894
    27  O   -0.458958
    28  O   -0.458520
 Sum of Mulliken charges =  -0.00000

 Dipole moment (field-independent basis, Debye):
    X=             -0.5432    Y=              5.9537    Z=              1.6337  Tot=              6.1976
 Quadrupole moment (field-independent basis, Debye-Ang):
   XX=           -173.6852   YY=           -105.9991   ZZ=            -98.0828
   XY=             -0.0003   XZ=             -5.9589   YZ=             -3.9087

 Normal termination of Gaussian 16 at Thu May  6 01:40:19 2021.
