 Gaussian 16, Revision A.03,
 Gaussian 16:  EM64L-G16RevA.03 25-Dec-2016

 -------------
 #p 6-31g* mp2
 -------------

 ------------------------------------------------------
 Input file generated by CHIRIPA (05-May-2021 14:51:09)
 ------------------------------------------------------
 Symbolic Z-matrix:
 Charge =  0 Multiplicity = 1

                         Standard orientation:
 ---------------------------------------------------------------------
 Center     Atomic      Atomic             Coordinates (Angstroms)
 Number     Number       Type             X           Y           Z
 ---------------------------------------------------------------------
      1          6           0       -2.345364   -1.252795   -0.224092
      2          6           0       -1.484907   -1.964038    0.820768
      3          6           0       -0.813318   -3.224471    0.274810
      4          1           0       -3.111902   -1.947834   -0.593260
      5          1           0       -1.718945   -0.990736   -1.087990
      6          1           0       -2.112465   -2.223446    1.683029
      7          1           0       -0.720449   -1.267165    1.187631
      8          1           0       -0.164281   -2.979147   -0.572048
      9          1           0       -1.564206   -3.940862   -0.073835
     10          1           0       -0.203185   -3.717089    1.038306
     11          6           0       -3.023356    0.009087    0.306670
     12          6           0       -3.883814    0.720330   -0.738190
     13          6           0       -4.555403    1.980764   -0.192232
     14          1           0       -3.649775   -0.252971    1.170568
     15          1           0       -2.256819    0.704127    0.675838
     16          1           0       -4.648271    0.023457   -1.105053
     17          1           0       -3.256256    0.979739   -1.600451
     18          1           0       -3.804515    2.697154    0.156413
     19          1           0       -5.204440    1.735440    0.654625
     20          1           0       -5.165536    2.473381   -0.955728
     21          6           0        3.080634    0.058492   -0.371475
     22          6           0        2.674650   -1.333556    0.113669
     23          6           0        3.476314   -2.450084   -0.556026
     24          1           0        2.948766    0.113109   -1.460773
     25          1           0        4.151906    0.208474   -0.178400
     26          1           0        1.604160   -1.480340   -0.079004
     27          1           0        2.807318   -1.384803    1.201966
     28          1           0        4.545625   -2.331479   -0.353273
     29          1           0        3.335631   -2.427559   -1.641522
     30          1           0        3.169866   -3.436659   -0.194612
     31          6           0        2.288087    1.185216    0.288897
     32          6           0        2.694071    2.577264   -0.196248
     33          6           0        1.892406    3.693792    0.473448
     34          1           0        1.216815    1.035234    0.095822
     35          1           0        2.419955    1.130599    1.378196
     36          1           0        2.561402    2.628511   -1.284544
     37          1           0        3.764561    2.724047   -0.003573
     38          1           0        2.033089    3.671266    1.558943
     39          1           0        0.823096    3.575187    0.270695
     40          1           0        2.198855    4.680367    0.112034
 ---------------------------------------------------------------------

 SCF Done:  E(RHF) =  -470.732944384     A.U. after   11 cycles
 E2 =    -0.1583813073D+01 EUMP2 =    -0.47231675745731D+03

 The electronic state is 1-A.
 Alpha  occ. eigenvalues --  -11.21646 -11.21628 -11.21599 -11.21552 -11.21447
 Alpha  occ. eigenvalues --  -11.21436 -11.21377 -11.21374 -11.21115 -11.21088
 Alpha  occ. eigenvalues --  -11.21069 -11.21060  -1.08487  -1.08429  -1.03603
 Alpha  occ. eigenvalues --   -1.03498  -0.96039  -0.95965  -0.87025  -0.87008
 Alpha  occ. eigenvalues --   -0.79629  -0.79595  -0.78304  -0.78244  -0.65286
 Alpha  occ. eigenvalues --   -0.64927  -0.61231  -0.60717  -0.59418  -0.59300
 Alpha  occ. eigenvalues --   -0.57629  -0.57595  -0.55429  -0.55153  -0.52718
 Alpha  occ. eigenvalues --   -0.52660  -0.52422  -0.52417  -0.50025  -0.49875
 Alpha  occ. eigenvalues --   -0.48007  -0.47847  -0.46706  -0.46558  -0.45999
 Alpha  occ. eigenvalues --   -0.45797  -0.45718  -0.45520  -0.43813  -0.43793
 Alpha virt. eigenvalues --    0.19940   0.22792   0.23606   0.24639   0.25841
 Alpha virt. eigenvalues --    0.26665   0.26915   0.27420   0.28641   0.29745
 Alpha virt. eigenvalues --    0.30604   0.31220   0.31611   0.31802   0.32633

 Mulliken charges:
               1
     1  C   -0.298178
     2  C   -0.304382
     3  C   -0.477837
     4  H    0.150004
     5  H    0.148331
     6  H    0.152503
     7  H    0.155695
     8  H    0.156395
     9  H    0.155654
    10  H    0.160988
    11  C   -0.298911
    12  C   -0.299638
    13  C   -0.475697
    14  H    0.149886
    15  H    0.149913
    16  H    0.152090
    17  H    0.151591
    18  H    0.155193
    19  H    0.155338
    20  H    0.160338
    21  C   -0.297722
    22  C   -0.308310
    23  C   -0.475908
    24  H    0.149140
    25  H    0.149615
    26  H    0.162526
    27  H    0.151402
    28  H    0.155144
    29  H    0.154495
    30  H    0.161261
    31  C   -0.299662
    32  C   -0.299642
    33  C   -0.475609
    34  H    0.149300
    35  H    0.149879
    36  H    0.151973
    37  H    0.152354
    38  H    0.155388
    39  H    0.154557
    40  H    0.160542
 Sum of Mulliken charges =  -0.00000

 Dipole moment (field-independent basis, Debye):
    X=             -0.0028    Y=             -0.0149    Z=              0.0159  Tot=              0.0220
 Quadrupole moment (field-independent basis, Debye-Ang):
   XX=            -84.1715   YY=            -86.1457   ZZ=            -84.3664
   XY=              1.4705   XZ=              0.6221   YZ=             -0.7313

 Normal termination of Gaussian 16 at Wed May  5 21:21:44 2021.
