 Gaussian 16, Revision A.03,
 Gaussian 16:  EM64L-G16RevA.03 25-Dec-2016

 -------------
 #p 6-31g* mp2
 -------------

 ------------------------------------------------------
 Input file generated by CHIRIPA (05-May-2021 14:51:11)
 ------------------------------------------------------
 Symbolic Z-matrix:
 Charge =  0 Multiplicity = 1

                         Standard orientation:
 ---------------------------------------------------------------------
 Center     Atomic      Atomic             Coordinates (Angstroms)
 Number     Number       Type             X           Y           Z
 ---------------------------------------------------------------------
      1          6           0       -2.131927    0.181208    0.698859
      2          6           0       -2.855467   -1.147569    0.477891
      3          6           0       -2.849618   -2.037728    1.721023
      4          1           0       -1.095515   -0.019119    1.003267
      5          1           0       -2.605775    0.714149    1.534823
      6          1           0       -2.381267   -1.677221   -0.358302
      7          1           0       -3.890222   -0.944054    0.173789
      8          1           0       -3.340968   -1.532574    2.558875
      9          1           0       -1.823439   -2.269906    2.023761
     10          1           0       -3.372140   -2.982378    1.540835
     11          6           0       -2.129281    1.082055   -0.534914
     12          6           0       -1.405741    2.410832   -0.313946
     13          6           0       -1.411589    3.300991   -1.557078
     14          1           0       -1.655433    0.549114   -1.370878
     15          1           0       -3.165693    1.282382   -0.839321
     16          1           0       -0.370986    2.207317   -0.009844
     17          1           0       -1.879941    2.940484    0.522247
     18          1           0       -2.437769    3.533169   -1.859816
     19          1           0       -0.920240    2.795837   -2.394930
     20          1           0       -0.889068    4.245640   -1.376890
     21          6           0        2.054883    0.028614    0.294556
     22          6           0        3.391116    0.690580    0.632589
     23          6           0        3.223131    2.010523    1.385799
     24          1           0        1.451482    0.721741   -0.307462
     25          1           0        1.495210   -0.147016    1.223705
     26          1           0        3.948696    0.863649   -0.296802
     27          1           0        3.991484   -0.004277    1.233712
     28          1           0        2.688912    1.851107    2.328030
     29          1           0        2.645882    2.723965    0.788820
     30          1           0        4.190734    2.466572    1.617365
     31          6           0        2.206325   -1.291877   -0.458502
     32          6           0        0.870092   -1.953843   -0.796534
     33          6           0        1.038077   -3.273786   -1.549745
     34          1           0        2.765998   -1.116247   -1.387650
     35          1           0        2.809726   -1.985004    0.143517
     36          1           0        0.269725   -1.258986   -1.397657
     37          1           0        0.312512   -2.126912    0.132858
     38          1           0        1.615327   -3.987228   -0.952764
     39          1           0        1.572295   -3.114370   -2.491975
     40          1           0        0.070474   -3.729835   -1.781311
 ---------------------------------------------------------------------

 SCF Done:  E(RHF) =  -470.731989362     A.U. after   11 cycles
 E2 =    -0.1586529771D+01 EUMP2 =    -0.47231851913367D+03

 The electronic state is 1-A.
 Alpha  occ. eigenvalues --  -11.21697 -11.21682 -11.21518 -11.21507 -11.21500
 Alpha  occ. eigenvalues --  -11.21448 -11.21321 -11.21217 -11.21153 -11.21133
 Alpha  occ. eigenvalues --  -11.21062 -11.21053  -1.08585  -1.08316  -1.03642
 Alpha  occ. eigenvalues --   -1.03462  -0.96074  -0.95931  -0.87090  -0.86948
 Alpha  occ. eigenvalues --   -0.79710  -0.79539  -0.78488  -0.78080  -0.65233
 Alpha  occ. eigenvalues --   -0.64965  -0.61048  -0.60912  -0.59406  -0.59294
 Alpha  occ. eigenvalues --   -0.57704  -0.57526  -0.55404  -0.55190  -0.52757
 Alpha  occ. eigenvalues --   -0.52644  -0.52489  -0.52362  -0.50036  -0.49878
 Alpha  occ. eigenvalues --   -0.48123  -0.47798  -0.46889  -0.46596  -0.46416
 Alpha  occ. eigenvalues --   -0.45772  -0.45467  -0.45022  -0.43874  -0.43713
 Alpha virt. eigenvalues --    0.19961   0.21704   0.23194   0.23924   0.25570
 Alpha virt. eigenvalues --    0.25983   0.26712   0.27635   0.28131   0.30526
 Alpha virt. eigenvalues --    0.30939   0.31341   0.31515   0.31741   0.32262

 Mulliken charges:
               1
     1  C   -0.304636
     2  C   -0.302162
     3  C   -0.477047
     4  H    0.158299
     5  H    0.148683
     6  H    0.155435
     7  H    0.151588
     8  H    0.155229
     9  H    0.154574
    10  H    0.160125
    11  C   -0.300464
    12  C   -0.307000
    13  C   -0.475616
    14  H    0.150604
    15  H    0.149542
    16  H    0.158468
    17  H    0.152101
    18  H    0.155467
    19  H    0.153950
    20  H    0.159920
    21  C   -0.306995
    22  C   -0.299148
    23  C   -0.477126
    24  H    0.156277
    25  H    0.151023
    26  H    0.152129
    27  H    0.152267
    28  H    0.155660
    29  H    0.156089
    30  H    0.160797
    31  C   -0.297553
    32  C   -0.308010
    33  C   -0.476172
    34  H    0.149708
    35  H    0.149983
    36  H    0.155594
    37  H    0.156588
    38  H    0.155638
    39  H    0.155449
    40  H    0.160740
 Sum of Mulliken charges =  -0.00000

 Dipole moment (field-independent basis, Debye):
    X=              0.0716    Y=             -0.0206    Z=              0.0057  Tot=              0.0747
 Quadrupole moment (field-independent basis, Debye-Ang):
   XX=            -84.0791   YY=            -85.9035   ZZ=            -84.8866
   XY=             -0.4605   XZ=             -0.1726   YZ=             -0.1647

 Normal termination of Gaussian 16 at Thu May  6 02:16:57 2021.
