 Gaussian 16, Revision A.03,
 Gaussian 16:  EM64L-G16RevA.03 25-Dec-2016

 -------------
 #p 6-31g* mp2
 -------------

 ------------------------------------------------------
 Input file generated by CHIRIPA (05-May-2021 14:57:25)
 ------------------------------------------------------
 Symbolic Z-matrix:
 Charge =  0 Multiplicity = 1

                         Standard orientation:
 ---------------------------------------------------------------------
 Center     Atomic      Atomic             Coordinates (Angstroms)
 Number     Number       Type             X           Y           Z
 ---------------------------------------------------------------------
      1          6           0        2.041951   -2.202567    1.334057
      2          6           0        2.758907   -1.227777    2.035682
      3          6           0        3.193390   -0.065242    1.392031
      4          6           0        2.892060    0.090646    0.039926
      5          6           0        2.179654   -0.862363   -0.686394
      6          6           0        1.755118   -2.017077   -0.022351
      7          1           0        1.708298   -3.102614    1.841981
      8          1           0        2.983104   -1.369156    3.089149
      9          1           0        3.750124    0.705466    1.911140
     10          1           0        1.971320   -0.693243   -1.735877
     11          1           0        1.198497   -2.772429   -0.569764
     12          7           0        3.346762    1.317230   -0.652273
     13          8           0        3.068494    1.430772   -1.844041
     14          8           0        3.972816    2.141858    0.010057
     15          6           0       -3.514408    2.256976    0.975897
     16          6           0       -2.426888    2.250488    0.096249
     17          6           0       -2.031672    1.067550   -0.535426
     18          6           0       -2.749708   -0.095906   -0.263244
     19          6           0       -3.837520   -0.121612    0.608132
     20          6           0       -4.215017    1.072993    1.228585
     21          1           0       -3.814539    3.180442    1.462238
     22          1           0       -1.880935    3.168488   -0.101881
     23          1           0       -1.193535    1.034140   -1.220865
     24          1           0       -4.362259   -1.052484    0.785735
     25          1           0       -5.059996    1.075057    1.911265
     26          7           0       -2.340689   -1.354405   -0.926029
     27          8           0       -2.989737   -2.366103   -0.669434
     28          8           0       -1.378797   -1.305289   -1.689565
 ---------------------------------------------------------------------

 SCF Done:  E(RHF) =  -868.340613237     A.U. after   16 cycles
 E2 =    -0.2599410199D+01 EUMP2 =    -0.87094002343550D+03

 The electronic state is 1-A.
 Alpha  occ. eigenvalues --  -20.61389 -20.61377 -20.60580 -20.60575 -15.86404
 Alpha  occ. eigenvalues --  -15.85618 -11.31463 -11.30740 -11.28024 -11.27953
 Alpha  occ. eigenvalues --  -11.27688 -11.27320 -11.27136 -11.26976 -11.26932
 Alpha  occ. eigenvalues --  -11.26895 -11.26315 -11.26025  -1.60447  -1.59665
 Alpha  occ. eigenvalues --   -1.40010  -1.39222  -1.19610  -1.18876  -1.09064
 Alpha  occ. eigenvalues --   -1.08323  -1.04961  -1.04198  -0.95950  -0.95195
 Alpha  occ. eigenvalues --   -0.86375  -0.85621  -0.82797  -0.82003  -0.77873
 Alpha  occ. eigenvalues --   -0.77083  -0.72648  -0.71836  -0.71749  -0.70995
 Alpha  occ. eigenvalues --   -0.70715  -0.69970  -0.65266  -0.64957  -0.64503
 Alpha  occ. eigenvalues --   -0.64163  -0.62306  -0.61518  -0.55481  -0.54732
 Alpha  occ. eigenvalues --   -0.53316  -0.53046  -0.52599  -0.52254  -0.49405
 Alpha  occ. eigenvalues --   -0.49370  -0.48607  -0.48572  -0.45480  -0.44679
 Alpha  occ. eigenvalues --   -0.37580  -0.36885  -0.36551  -0.35772
 Alpha virt. eigenvalues --    0.04580   0.05411   0.11095   0.11815   0.16127
 Alpha virt. eigenvalues --    0.16982   0.21211   0.22116   0.27057   0.27636
 Alpha virt. eigenvalues --    0.28401   0.28983   0.30878   0.31623   0.32055

 Mulliken charges:
               1
     1  C   -0.173687
     2  C   -0.218988
     3  C   -0.173817
     4  C    0.154698
     5  C   -0.172365
     6  C   -0.218797
     7  H    0.225874
     8  H    0.220588
     9  H    0.272132
    10  H    0.280863
    11  H    0.239976
    12  N    0.487238
    13  O   -0.462136
    14  O   -0.463293
    15  C   -0.170107
    16  C   -0.219302
    17  C   -0.170551
    18  C    0.157692
    19  C   -0.171547
    20  C   -0.218938
    21  H    0.227354
    22  H    0.229061
    23  H    0.278708
    24  H    0.274409
    25  H    0.223742
    26  N    0.489059
    27  O   -0.460583
    28  O   -0.467284
 Sum of Mulliken charges =  -0.00000

 Dipole moment (field-independent basis, Debye):
    X=             -3.2816    Y=              0.0515    Z=              4.6818  Tot=              5.7175
 Quadrupole moment (field-independent basis, Debye-Ang):
   XX=           -104.1900   YY=           -105.2989   ZZ=           -102.1422
   XY=            -22.7092   XZ=              0.5179   YZ=             -0.8855

 Normal termination of Gaussian 16 at Fri May  7 06:32:34 2021.
