 Gaussian 16, Revision A.03,
 Gaussian 16:  EM64L-G16RevA.03 25-Dec-2016

 -------------
 #p 6-31g* mp2
 -------------

 ------------------------------------------------------
 Input file generated by CHIRIPA (05-May-2021 14:51:09)
 ------------------------------------------------------
 Symbolic Z-matrix:
 Charge =  0 Multiplicity = 1

                         Standard orientation:
 ---------------------------------------------------------------------
 Center     Atomic      Atomic             Coordinates (Angstroms)
 Number     Number       Type             X           Y           Z
 ---------------------------------------------------------------------
      1          6           0       -3.483691    0.607353    0.281350
      2          6           0       -3.797052    1.987609   -0.297169
      3          6           0       -4.310204    2.968167    0.757808
      4          1           0       -4.388648    0.200378    0.752911
      5          1           0       -2.735914    0.713153    1.079492
      6          1           0       -4.542993    1.879075   -1.094921
      7          1           0       -2.891295    2.391264   -0.767576
      8          1           0       -3.566834    3.105950    1.549652
      9          1           0       -5.227917    2.590851    1.220448
     10          1           0       -4.527943    3.948486    0.322577
     11          6           0       -2.969671   -0.384003   -0.761111
     12          6           0       -2.656311   -1.764259   -0.182592
     13          6           0       -2.143159   -2.744817   -1.237569
     14          1           0       -3.717449   -0.489803   -1.559253
     15          1           0       -2.064715    0.022973   -1.232672
     16          1           0       -3.562068   -2.167914    0.287815
     17          1           0       -1.910369   -1.655725    0.615159
     18          1           0       -1.225445   -2.367500   -1.700209
     19          1           0       -2.886528   -2.882600   -2.029413
     20          1           0       -1.925420   -3.725135   -0.802338
     21          6           0        3.549973    0.290749   -0.323120
     22          6           0        4.776942    1.084794    0.126353
     23          6           0        5.412640    1.884715   -1.011103
     24          1           0        3.839162   -0.390279   -1.135226
     25          1           0        2.808208    0.983018   -0.744954
     26          1           0        5.515602    0.391393    0.548481
     27          1           0        4.484839    1.763873    0.937614
     28          1           0        4.694983    2.598779   -1.427855
     29          1           0        5.731603    1.218500   -1.819200
     30          1           0        6.288005    2.444764   -0.667678
     31          6           0        2.903390   -0.514100    0.802881
     32          6           0        1.676421   -1.308144    0.353407
     33          6           0        1.040723   -2.108066    1.490864
     34          1           0        3.645155   -1.206368    1.224714
     35          1           0        2.614201    0.166928    1.614987
     36          1           0        1.968523   -1.987223   -0.457853
     37          1           0        0.937760   -0.614743   -0.068719
     38          1           0        0.721760   -1.441851    2.298961
     39          1           0        1.758380   -2.822129    1.907617
     40          1           0        0.165358   -2.668115    1.147440
 ---------------------------------------------------------------------

 SCF Done:  E(RHF) =  -470.733074441     A.U. after   11 cycles
 E2 =    -0.1583344483D+01 EUMP2 =    -0.47231641892458D+03

 The electronic state is 1-A.
 Alpha  occ. eigenvalues --  -11.21664 -11.21632 -11.21612 -11.21539 -11.21448
 Alpha  occ. eigenvalues --  -11.21404 -11.21388 -11.21344 -11.21095 -11.21084
 Alpha  occ. eigenvalues --  -11.21083 -11.21061  -1.08482  -1.08418  -1.03607
 Alpha  occ. eigenvalues --   -1.03491  -0.96051  -0.95948  -0.87037  -0.86993
 Alpha  occ. eigenvalues --   -0.79666  -0.79558  -0.78289  -0.78236  -0.65180
 Alpha  occ. eigenvalues --   -0.65008  -0.61128  -0.60867  -0.59481  -0.59217
 Alpha  occ. eigenvalues --   -0.57711  -0.57484  -0.55317  -0.55238  -0.52741
 Alpha  occ. eigenvalues --   -0.52639  -0.52433  -0.52395  -0.49977  -0.49903
 Alpha  occ. eigenvalues --   -0.47972  -0.47895  -0.46687  -0.46582  -0.45861
 Alpha  occ. eigenvalues --   -0.45780  -0.45732  -0.45664  -0.43807  -0.43770
 Alpha virt. eigenvalues --    0.20128   0.23182   0.23468   0.25256   0.25801
 Alpha virt. eigenvalues --    0.26623   0.26764   0.27442   0.28174   0.29123
 Alpha virt. eigenvalues --    0.30450   0.31359   0.31438   0.31794   0.32469

 Mulliken charges:
               1
     1  C   -0.298298
     2  C   -0.299601
     3  C   -0.475680
     4  H    0.149816
     5  H    0.149263
     6  H    0.152056
     7  H    0.151615
     8  H    0.155008
     9  H    0.155287
    10  H    0.160258
    11  C   -0.298608
    12  C   -0.306507
    13  C   -0.477703
    14  H    0.149486
    15  H    0.149669
    16  H    0.151728
    17  H    0.159515
    18  H    0.157367
    19  H    0.155374
    20  H    0.159546
    21  C   -0.298297
    22  C   -0.299683
    23  C   -0.475735
    24  H    0.149819
    25  H    0.149210
    26  H    0.152065
    27  H    0.151956
    28  H    0.155167
    29  H    0.155267
    30  H    0.160376
    31  C   -0.298373
    32  C   -0.301300
    33  C   -0.481156
    34  H    0.149962
    35  H    0.149609
    36  H    0.152573
    37  H    0.152203
    38  H    0.154307
    39  H    0.155632
    40  H    0.166808
 Sum of Mulliken charges =  -0.00000

 Dipole moment (field-independent basis, Debye):
    X=              0.0170    Y=             -0.0150    Z=              0.0049  Tot=              0.0232
 Quadrupole moment (field-independent basis, Debye-Ang):
   XX=            -83.9548   YY=            -85.1247   ZZ=            -85.6480
   XY=             -0.2647   XZ=              0.6790   YZ=              0.1505

 Normal termination of Gaussian 16 at Wed May  5 15:08:06 2021.
