 Gaussian 16, Revision A.03,
 Gaussian 16:  EM64L-G16RevA.03 25-Dec-2016

 -------------
 #p 6-31g* mp2
 -------------

 ------------------------------------------------------
 Input file generated by CHIRIPA (05-May-2021 14:51:10)
 ------------------------------------------------------
 Symbolic Z-matrix:
 Charge =  0 Multiplicity = 1

                         Standard orientation:
 ---------------------------------------------------------------------
 Center     Atomic      Atomic             Coordinates (Angstroms)
 Number     Number       Type             X           Y           Z
 ---------------------------------------------------------------------
      1          6           0       -3.898357    0.100860    0.226865
      2          6           0       -5.043335   -0.221449   -0.733930
      3          6           0       -6.216022    0.750954   -0.603425
      4          1           0       -4.277534    0.083996    1.257829
      5          1           0       -3.548850    1.125546    0.039093
      6          1           0       -5.389658   -1.245709   -0.545334
      7          1           0       -4.661345   -0.204004   -1.762713
      8          1           0       -5.891866    1.775627   -0.812158
      9          1           0       -6.624317    0.728004    0.412139
     10          1           0       -7.023271    0.502088   -1.299325
     11          6           0       -2.718670   -0.862474    0.108309
     12          6           0       -1.573692   -0.540165    1.069104
     13          6           0       -0.401005   -1.512568    0.938600
     14          1           0       -3.068177   -1.887160    0.296081
     15          1           0       -2.339493   -0.845610   -0.922654
     16          1           0       -1.955682   -0.557609    2.097888
     17          1           0       -1.227369    0.484095    0.880508
     18          1           0        0.007289   -1.489617   -0.076964
     19          1           0       -0.725162   -2.537240    1.147332
     20          1           0        0.406243   -1.263702    1.634499
     21          6           0        3.455343    1.119605   -0.294280
     22          6           0        2.409042    2.057783    0.308264
     23          6           0        2.716615    3.532443    0.046406
     24          1           0        4.442683    1.368564    0.118183
     25          1           0        3.515484    1.295897   -1.377191
     26          1           0        2.349905    1.878806    1.389507
     27          1           0        1.424049    1.806436   -0.105535
     28          1           0        2.755501    3.732760   -1.029216
     29          1           0        3.686618    3.805541    0.474321
     30          1           0        1.956035    4.185359    0.485815
     31          6           0        3.161684   -0.357991   -0.040895
     32          6           0        4.207986   -1.296169   -0.643439
     33          6           0        3.900413   -2.770829   -0.381580
     34          1           0        3.101543   -0.534284    1.042017
     35          1           0        2.174344   -0.606951   -0.453357
     36          1           0        5.192979   -1.044822   -0.229639
     37          1           0        4.267122   -1.117192   -1.724681
     38          1           0        2.930409   -3.043928   -0.809495
     39          1           0        3.861527   -2.971146    0.694042
     40          1           0        4.660992   -3.423746   -0.820988
 ---------------------------------------------------------------------

 SCF Done:  E(RHF) =  -470.732631355     A.U. after   11 cycles
 E2 =    -0.1583499757D+01 EUMP2 =    -0.47231613111156D+03

 The electronic state is 1-A.
 Alpha  occ. eigenvalues --  -11.21612 -11.21603 -11.21573 -11.21550 -11.21402
 Alpha  occ. eigenvalues --  -11.21360 -11.21343 -11.21259 -11.21081 -11.21073
 Alpha  occ. eigenvalues --  -11.21019 -11.20990  -1.08436  -1.08385  -1.03522
 Alpha  occ. eigenvalues --   -1.03499  -0.95998  -0.95918  -0.87029  -0.86925
 Alpha  occ. eigenvalues --   -0.79657  -0.79506  -0.78264  -0.78174  -0.65137
 Alpha  occ. eigenvalues --   -0.64965  -0.60940  -0.60890  -0.59354  -0.59302
 Alpha  occ. eigenvalues --   -0.57607  -0.57533  -0.55371  -0.55148  -0.52743
 Alpha  occ. eigenvalues --   -0.52621  -0.52392  -0.52327  -0.50044  -0.49797
 Alpha  occ. eigenvalues --   -0.47911  -0.47893  -0.46752  -0.46504  -0.45869
 Alpha  occ. eigenvalues --   -0.45712  -0.45703  -0.45447  -0.43769  -0.43715
 Alpha virt. eigenvalues --    0.21059   0.23113   0.23847   0.24119   0.25231
 Alpha virt. eigenvalues --    0.26366   0.27159   0.27409   0.27922   0.29874
 Alpha virt. eigenvalues --    0.30309   0.31168   0.31647   0.31880   0.32250

 Mulliken charges:
               1
     1  C   -0.298223
     2  C   -0.299620
     3  C   -0.475700
     4  H    0.149723
     5  H    0.149408
     6  H    0.151956
     7  H    0.151792
     8  H    0.155164
     9  H    0.155208
    10  H    0.160239
    11  C   -0.298343
    12  C   -0.301939
    13  C   -0.477205
    14  H    0.149614
    15  H    0.149084
    16  H    0.151887
    17  H    0.153245
    18  H    0.155390
    19  H    0.154453
    20  H    0.163503
    21  C   -0.297992
    22  C   -0.301162
    23  C   -0.475633
    24  H    0.149398
    25  H    0.148981
    26  H    0.151894
    27  H    0.152717
    28  H    0.155079
    29  H    0.155379
    30  H    0.160127
    31  C   -0.302816
    32  C   -0.299511
    33  C   -0.475831
    34  H    0.148918
    35  H    0.157276
    36  H    0.151451
    37  H    0.151276
    38  H    0.155686
    39  H    0.155213
    40  H    0.159910
 Sum of Mulliken charges =  -0.00000

 Dipole moment (field-independent basis, Debye):
    X=             -0.0019    Y=             -0.0101    Z=              0.0133  Tot=              0.0168
 Quadrupole moment (field-independent basis, Debye-Ang):
   XX=            -85.3522   YY=            -86.0787   ZZ=            -83.5190
   XY=              0.7437   XZ=              0.1819   YZ=             -0.2792

 Normal termination of Gaussian 16 at Thu May  6 03:48:54 2021.
