 Gaussian 16, Revision A.03,
 Gaussian 16:  EM64L-G16RevA.03 25-Dec-2016

 -------------
 #p 6-31g* mp2
 -------------

 ------------------------------------------------------
 Input file generated by CHIRIPA (05-May-2021 14:55:20)
 ------------------------------------------------------
 Symbolic Z-matrix:
 Charge =  0 Multiplicity = 1

                         Standard orientation:
 ---------------------------------------------------------------------
 Center     Atomic      Atomic             Coordinates (Angstroms)
 Number     Number       Type             X           Y           Z
 ---------------------------------------------------------------------
      1          6           0       -4.412343   -1.670366   -1.095624
      2          6           0       -3.461300   -1.935207   -0.104716
      3          6           0       -2.697213   -0.899404    0.441022
      4          6           0       -2.911224    0.395197   -0.029613
      5          6           0       -3.851110    0.690983   -1.015724
      6          6           0       -4.603875   -0.360425   -1.547169
      7          1           0       -5.001507   -2.481064   -1.514015
      8          1           0       -3.310410   -2.951551    0.247878
      9          1           0       -1.954187   -1.076273    1.209168
     10          1           0       -3.978932    1.714381   -1.346986
     11          1           0       -5.341759   -0.151794   -2.316613
     12          7           0       -2.108312    1.500016    0.540570
     13          8           0       -2.315930    2.631901    0.108868
     14          8           0       -1.286575    1.213167    1.408385
     15          6           0        4.307680    0.204451   -0.273080
     16          6           0        5.500709   -0.468733   -0.952412
     17          6           0        6.315059    0.498877   -1.811691
     18          1           0        3.659932    0.649567   -1.040700
     19          1           0        4.669540    1.034061    0.349976
     20          1           0        5.136832   -1.297698   -1.572917
     21          1           0        6.145593   -0.912463   -0.183098
     22          1           0        6.705717    1.320127   -1.202154
     23          1           0        5.691224    0.932704   -2.599869
     24          1           0        7.162952   -0.003254   -2.287928
     25          6           0        3.483816   -0.750013    0.589460
     26          6           0        2.290787   -0.076828    1.268791
     27          6           0        1.476437   -1.044438    2.128071
     28          1           0        3.121956   -1.579623   -0.033596
     29          1           0        4.131564   -1.195128    1.357079
     30          1           0        1.645903    0.366902    0.499478
     31          1           0        2.654665    0.752137    1.889296
     32          1           0        2.100272   -1.478265    2.916248
     33          1           0        1.085780   -1.865689    1.518534
     34          1           0        0.628545   -0.542307    2.604307
 ---------------------------------------------------------------------

 SCF Done:  E(RHF) =  -669.536118127     A.U. after   15 cycles
 E2 =    -0.2091526462D+01 EUMP2 =    -0.67162764458927D+03

 The electronic state is 1-A.
 Alpha  occ. eigenvalues --  -20.60917 -20.60912 -15.85949 -11.31255 -11.27825
 Alpha  occ. eigenvalues --  -11.27801 -11.27562 -11.26830 -11.26816 -11.21219
 Alpha  occ. eigenvalues --  -11.20875 -11.20793 -11.20734 -11.20711 -11.20347
 Alpha  occ. eigenvalues --   -1.59978  -1.39534  -1.19427  -1.08835  -1.07863
 Alpha  occ. eigenvalues --   -1.04820  -1.02943  -0.95689  -0.95417  -0.86462
 Alpha  occ. eigenvalues --   -0.86220  -0.82513  -0.79018  -0.77652  -0.77565
 Alpha  occ. eigenvalues --   -0.72183  -0.71291  -0.70535  -0.65086  -0.64827
 Alpha  occ. eigenvalues --   -0.64503  -0.62171  -0.60356  -0.58768  -0.56981
 Alpha  occ. eigenvalues --   -0.55331  -0.54754  -0.53156  -0.52915  -0.52100
 Alpha  occ. eigenvalues --   -0.51850  -0.49417  -0.48926  -0.48915  -0.47319
 Alpha  occ. eigenvalues --   -0.46072  -0.45241  -0.45167  -0.44837  -0.43197
 Alpha  occ. eigenvalues --   -0.37409  -0.36422
 Alpha virt. eigenvalues --    0.04944   0.11222   0.16430   0.20991   0.23316
 Alpha virt. eigenvalues --    0.24352   0.26824   0.27259   0.27672   0.28071
 Alpha virt. eigenvalues --    0.29330   0.30926   0.31780   0.31977   0.32357

 Mulliken charges:
               1
     1  C   -0.170437
     2  C   -0.219626
     3  C   -0.172533
     4  C    0.157068
     5  C   -0.170750
     6  C   -0.218772
     7  H    0.225859
     8  H    0.224115
     9  H    0.280410
    10  H    0.275628
    11  H    0.223642
    12  N    0.491974
    13  O   -0.459163
    14  O   -0.464446
    15  C   -0.297790
    16  C   -0.299007
    17  C   -0.475374
    18  H    0.150070
    19  H    0.150649
    20  H    0.149829
    21  H    0.150963
    22  H    0.155585
    23  H    0.154969
    24  H    0.158493
    25  C   -0.298395
    26  C   -0.296013
    27  C   -0.483665
    28  H    0.144762
    29  H    0.147110
    30  H    0.158811
    31  H    0.154783
    32  H    0.150396
    33  H    0.141602
    34  H    0.179255
 Sum of Mulliken charges =  -0.00000

 Dipole moment (field-independent basis, Debye):
    X=             -3.0148    Y=             -3.7227    Z=             -1.9677  Tot=              5.1787
 Quadrupole moment (field-independent basis, Debye-Ang):
   XX=            -78.4292   YY=            -96.6011   ZZ=            -93.1596
   XY=              8.7988   XZ=              8.7860   YZ=             -2.1025

 Normal termination of Gaussian 16 at Wed May  5 18:56:23 2021.
