 Gaussian 16, Revision A.03,
 Gaussian 16:  EM64L-G16RevA.03 25-Dec-2016

 -------------
 #p 6-31g* mp2
 -------------

 ------------------------------------------------------
 Input file generated by CHIRIPA (05-May-2021 14:51:09)
 ------------------------------------------------------
 Symbolic Z-matrix:
 Charge =  0 Multiplicity = 1

                         Standard orientation:
 ---------------------------------------------------------------------
 Center     Atomic      Atomic             Coordinates (Angstroms)
 Number     Number       Type             X           Y           Z
 ---------------------------------------------------------------------
      1          6           0       -2.853690   -1.040066   -0.348000
      2          6           0       -1.422703   -0.767852    0.116930
      3          6           0       -0.401713   -1.700614   -0.535244
      4          1           0       -3.112945   -2.083873   -0.123945
      5          1           0       -2.903439   -0.933232   -1.440477
      6          1           0       -1.375974   -0.873813    1.208353
      7          1           0       -1.166891    0.275481   -0.108084
      8          1           0       -0.419017   -1.589603   -1.624270
      9          1           0       -0.629289   -2.745428   -0.300353
     10          1           0        0.614565   -1.488576   -0.188717
     11          6           0       -3.885851   -0.115572    0.295182
     12          6           0       -5.316839   -0.387786   -0.169748
     13          6           0       -6.337829    0.544975    0.482426
     14          1           0       -3.836102   -0.222407    1.387659
     15          1           0       -3.626596    0.928234    0.071127
     16          1           0       -5.572651   -1.431120    0.055266
     17          1           0       -5.363567   -0.281826   -1.261171
     18          1           0       -6.110253    1.589789    0.247535
     19          1           0       -6.320525    0.433964    1.571452
     20          1           0       -7.354106    0.332938    0.135899
     21          6           0        2.866915    0.976996   -0.387386
     22          6           0        2.249984    2.150215    0.374807
     23          6           0        1.246015    2.939147   -0.466282
     24          1           0        3.361811    1.355474   -1.292249
     25          1           0        2.064905    0.306941   -0.726798
     26          1           0        3.053020    2.817135    0.713872
     27          1           0        1.756663    1.768922    1.278060
     28          1           0        0.425016    2.292727   -0.792935
     29          1           0        1.728739    3.346896   -1.360329
     30          1           0        0.817236    3.773158    0.098018
     31          6           0        3.872626    0.178643    0.440204
     32          6           0        4.489558   -0.994576   -0.321989
     33          6           0        5.493526   -1.783508    0.519100
     34          1           0        4.674636    0.848697    0.779616
     35          1           0        3.377730   -0.199835    1.345067
     36          1           0        4.982879   -0.613283   -1.225242
     37          1           0        3.686522   -1.661497   -0.661054
     38          1           0        5.010803   -2.191257    1.413147
     39          1           0        6.314526   -1.137089    0.845753
     40          1           0        5.922305   -2.617519   -0.045200
 ---------------------------------------------------------------------

 SCF Done:  E(RHF) =  -470.733064742     A.U. after   11 cycles
 E2 =    -0.1583575713D+01 EUMP2 =    -0.47231664045501D+03

 The electronic state is 1-A.
 Alpha  occ. eigenvalues --  -11.21685 -11.21624 -11.21589 -11.21581 -11.21451
 Alpha  occ. eigenvalues --  -11.21387 -11.21378 -11.21300 -11.21155 -11.21086
 Alpha  occ. eigenvalues --  -11.21077 -11.21058  -1.08486  -1.08409  -1.03592
 Alpha  occ. eigenvalues --   -1.03510  -0.96043  -0.95962  -0.87065  -0.86973
 Alpha  occ. eigenvalues --   -0.79649  -0.79579  -0.78289  -0.78227  -0.65185
 Alpha  occ. eigenvalues --   -0.65019  -0.61084  -0.60826  -0.59406  -0.59326
 Alpha  occ. eigenvalues --   -0.57668  -0.57556  -0.55319  -0.55282  -0.52764
 Alpha  occ. eigenvalues --   -0.52654  -0.52494  -0.52347  -0.50043  -0.49851
 Alpha  occ. eigenvalues --   -0.47975  -0.47882  -0.46726  -0.46558  -0.45836
 Alpha  occ. eigenvalues --   -0.45778  -0.45735  -0.45643  -0.43812  -0.43753
 Alpha virt. eigenvalues --    0.19772   0.22658   0.23489   0.24862   0.26108
 Alpha virt. eigenvalues --    0.26269   0.26945   0.27397   0.28341   0.29163
 Alpha virt. eigenvalues --    0.30308   0.31439   0.31724   0.31941   0.32394

 Mulliken charges:
               1
     1  C   -0.298082
     2  C   -0.305429
     3  C   -0.480717
     4  H    0.149962
     5  H    0.149761
     6  H    0.152182
     7  H    0.156480
     8  H    0.155532
     9  H    0.155893
    10  H    0.164354
    11  C   -0.298426
    12  C   -0.299713
    13  C   -0.475761
    14  H    0.149590
    15  H    0.149962
    16  H    0.151963
    17  H    0.152047
    18  H    0.155352
    19  H    0.155198
    20  H    0.160341
    21  C   -0.305809
    22  C   -0.299153
    23  C   -0.479539
    24  H    0.149545
    25  H    0.157326
    26  H    0.151920
    27  H    0.152304
    28  H    0.157948
    29  H    0.155246
    30  H    0.160300
    31  C   -0.298410
    32  C   -0.301068
    33  C   -0.475618
    34  H    0.149673
    35  H    0.149214
    36  H    0.152106
    37  H    0.152926
    38  H    0.155131
    39  H    0.155151
    40  H    0.160321
 Sum of Mulliken charges =  -0.00000

 Dipole moment (field-independent basis, Debye):
    X=             -0.0262    Y=             -0.0118    Z=             -0.0069  Tot=              0.0295
 Quadrupole moment (field-independent basis, Debye-Ang):
   XX=            -85.4836   YY=            -84.7925   ZZ=            -84.4642
   XY=              1.5429   XZ=             -0.3946   YZ=             -0.6327

 Normal termination of Gaussian 16 at Thu May  6 00:32:25 2021.
