 Gaussian 16, Revision A.03,
 Gaussian 16:  EM64L-G16RevA.03 25-Dec-2016

 -------------
 #p 6-31g* mp2
 -------------

 ------------------------------------------------------
 Input file generated by CHIRIPA (05-May-2021 14:51:11)
 ------------------------------------------------------
 Symbolic Z-matrix:
 Charge =  0 Multiplicity = 1

                         Standard orientation:
 ---------------------------------------------------------------------
 Center     Atomic      Atomic             Coordinates (Angstroms)
 Number     Number       Type             X           Y           Z
 ---------------------------------------------------------------------
      1          6           0        2.581684    1.282130   -0.294846
      2          6           0        2.074798    1.930451    0.993848
      3          6           0        1.844802    3.434974    0.847888
      4          1           0        3.517826    1.769757   -0.599481
      5          1           0        1.856766    1.466797   -1.099698
      6          1           0        2.799789    1.743433    1.796361
      7          1           0        1.139854    1.441094    1.295554
      8          1           0        1.105315    3.637615    0.066417
      9          1           0        2.774681    3.941672    0.570070
     10          1           0        1.482628    3.878107    1.780800
     11          6           0        2.816355   -0.221776   -0.164754
     12          6           0        3.323241   -0.870097   -1.453447
     13          6           0        3.553237   -2.374621   -1.307488
     14          1           0        3.541272   -0.406444    0.640098
     15          1           0        1.880213   -0.709404    0.139881
     16          1           0        4.258185   -0.380741   -1.755154
     17          1           0        2.598250   -0.683079   -2.255961
     18          1           0        2.623358   -2.881318   -1.029670
     19          1           0        4.292724   -2.577262   -0.526017
     20          1           0        3.915411   -2.817753   -2.240400
     21          6           0       -2.951561   -0.335968   -0.464417
     22          6           0       -4.152775    0.609491   -0.430113
     23          6           0       -4.646500    0.988920   -1.826560
     24          1           0       -2.135744    0.138206   -1.027043
     25          1           0       -3.225187   -1.245318   -1.017234
     26          1           0       -3.877395    1.516196    0.123664
     27          1           0       -4.965760    0.133090    0.132660
     28          1           0       -4.947979    0.096365   -2.384284
     29          1           0       -3.853430    1.487329   -2.393331
     30          1           0       -5.505627    1.665279   -1.778603
     31          6           0       -2.446478   -0.724386    0.924017
     32          6           0       -1.245263   -1.669844    0.889713
     33          6           0       -0.751539   -2.049274    2.286159
     34          1           0       -2.172851    0.184964    1.476833
     35          1           0       -3.262295   -1.198560    1.486643
     36          1           0       -0.432279   -1.193444    0.326940
     37          1           0       -1.520644   -2.576549    0.335936
     38          1           0       -1.544608   -2.547683    2.852931
     39          1           0       -0.450060   -1.156719    2.843884
     40          1           0        0.107588   -2.725632    2.238203
 ---------------------------------------------------------------------

 SCF Done:  E(RHF) =  -470.733376820     A.U. after   11 cycles
 E2 =    -0.1583391091D+01 EUMP2 =    -0.47231676791074D+03

 The electronic state is 1-A.
 Alpha  occ. eigenvalues --  -11.21657 -11.21656 -11.21639 -11.21608 -11.21460
 Alpha  occ. eigenvalues --  -11.21429 -11.21401 -11.21355 -11.21118 -11.21108
 Alpha  occ. eigenvalues --  -11.21103 -11.21071  -1.08497  -1.08446  -1.03579
 Alpha  occ. eigenvalues --   -1.03554  -0.96028  -0.95998  -0.87037  -0.87019
 Alpha  occ. eigenvalues --   -0.79663  -0.79602  -0.78350  -0.78222  -0.65295
 Alpha  occ. eigenvalues --   -0.64937  -0.60986  -0.60948  -0.59410  -0.59353
 Alpha  occ. eigenvalues --   -0.57663  -0.57586  -0.55362  -0.55242  -0.52715
 Alpha  occ. eigenvalues --   -0.52696  -0.52445  -0.52428  -0.50006  -0.49914
 Alpha  occ. eigenvalues --   -0.47990  -0.47932  -0.46825  -0.46599  -0.46051
 Alpha  occ. eigenvalues --   -0.45785  -0.45773  -0.45373  -0.43830  -0.43808
 Alpha virt. eigenvalues --    0.19490   0.23139   0.23930   0.24156   0.25947
 Alpha virt. eigenvalues --    0.26755   0.27202   0.27606   0.28323   0.29516
 Alpha virt. eigenvalues --    0.30105   0.31577   0.31745   0.31938   0.32421

 Mulliken charges:
               1
     1  C   -0.297813
     2  C   -0.301020
     3  C   -0.475694
     4  H    0.150039
     5  H    0.148808
     6  H    0.152466
     7  H    0.151973
     8  H    0.154940
     9  H    0.155556
    10  H    0.160312
    11  C   -0.307856
    12  C   -0.299112
    13  C   -0.475950
    14  H    0.149859
    15  H    0.158859
    16  H    0.151980
    17  H    0.151757
    18  H    0.155455
    19  H    0.155160
    20  H    0.160304
    21  C   -0.298235
    22  C   -0.299755
    23  C   -0.475727
    24  H    0.148998
    25  H    0.149746
    26  H    0.152108
    27  H    0.152137
    28  H    0.155260
    29  H    0.155076
    30  H    0.160466
    31  C   -0.298147
    32  C   -0.307526
    33  C   -0.476103
    34  H    0.149649
    35  H    0.150101
    36  H    0.157343
    37  H    0.152243
    38  H    0.155485
    39  H    0.155960
    40  H    0.160897
 Sum of Mulliken charges =  -0.00000

 Dipole moment (field-independent basis, Debye):
    X=             -0.0043    Y=             -0.0104    Z=              0.0125  Tot=              0.0169
 Quadrupole moment (field-independent basis, Debye-Ang):
   XX=            -83.6283   YY=            -85.4079   ZZ=            -85.5775
   XY=              1.1173   XZ=             -0.1424   YZ=              0.3187

 Normal termination of Gaussian 16 at Wed May  5 21:27:39 2021.
