 Gaussian 16, Revision A.03,
 Gaussian 16:  EM64L-G16RevA.03 25-Dec-2016

 -------------
 #p 6-31g* mp2
 -------------

 ------------------------------------------------------
 Input file generated by CHIRIPA (05-May-2021 14:53:16)
 ------------------------------------------------------
 Symbolic Z-matrix:
 Charge =  0 Multiplicity = 1

                         Standard orientation:
 ---------------------------------------------------------------------
 Center     Atomic      Atomic             Coordinates (Angstroms)
 Number     Number       Type             X           Y           Z
 ---------------------------------------------------------------------
      1          6           0       -4.877900   -0.393114   -0.084903
      2          6           0       -5.296092    1.049966   -0.368844
      3          6           0       -6.805615    1.201459   -0.559069
      4          1           0       -5.210772   -1.034233   -0.912616
      5          1           0       -5.399252   -0.748329    0.814769
      6          1           0       -4.773051    1.402814   -1.266921
      7          1           0       -4.962018    1.687754    0.459549
      8          1           0       -7.341594    0.875610    0.338233
      9          1           0       -7.151553    0.589051   -1.398047
     10          1           0       -7.082501    2.240904   -0.760927
     11          6           0       -3.371714   -0.560659    0.107605
     12          6           0       -2.953522   -2.003738    0.391546
     13          6           0       -1.444000   -2.155231    0.581771
     14          1           0       -2.850362   -0.205443   -0.792067
     15          1           0       -3.038843    0.080461    0.935318
     16          1           0       -3.287596   -2.641527   -0.436847
     17          1           0       -3.476563   -2.356586    1.289623
     18          1           0       -1.098062   -1.542823    1.420749
     19          1           0       -0.908021   -1.829383   -0.315531
     20          1           0       -1.167113   -3.194677    0.783629
     21          6           0        1.409135    2.047301    0.513510
     22          6           0        2.729550    2.475872    0.342183
     23          6           0        3.742410    1.556779    0.052479
     24          6           0        3.397815    0.210661   -0.059369
     25          6           0        2.091583   -0.247339    0.105801
     26          6           0        1.094920    0.689457    0.394981
     27          1           0        0.628612    2.768151    0.738356
     28          1           0        2.976490    3.529769    0.433657
     29          1           0        4.772862    1.861209   -0.085033
     30          1           0        1.876152   -1.304480    0.008530
     31          1           0        0.070331    0.353754    0.527525
     32          7           0        4.461512   -0.771713   -0.365789
     33          8           0        4.131978   -1.952104   -0.459190
     34          8           0        5.604629   -0.342707   -0.506757
 ---------------------------------------------------------------------

 SCF Done:  E(RHF) =  -669.535179937     A.U. after   15 cycles
 E2 =    -0.2092017544D+01 EUMP2 =    -0.67162719748103D+03

 The electronic state is 1-A.
 Alpha  occ. eigenvalues --  -20.60668 -20.60662 -15.85718 -11.31056 -11.27631
 Alpha  occ. eigenvalues --  -11.27583 -11.27345 -11.26646 -11.26512 -11.22484
 Alpha  occ. eigenvalues --  -11.22330 -11.22259 -11.22177 -11.22092 -11.21598
 Alpha  occ. eigenvalues --   -1.59743  -1.39297  -1.19220  -1.09251  -1.08621
 Alpha  occ. eigenvalues --   -1.04630  -1.04323  -0.96811  -0.95462  -0.87838
 Alpha  occ. eigenvalues --   -0.86015  -0.82305  -0.80419  -0.79070  -0.77330
 Alpha  occ. eigenvalues --   -0.71937  -0.71066  -0.70334  -0.65869  -0.64870
 Alpha  occ. eigenvalues --   -0.64639  -0.62027  -0.61720  -0.60146  -0.58388
 Alpha  occ. eigenvalues --   -0.56108  -0.55130  -0.53467  -0.53305  -0.52953
 Alpha  occ. eigenvalues --   -0.52621  -0.50746  -0.48767  -0.48694  -0.48610
 Alpha  occ. eigenvalues --   -0.47430  -0.46585  -0.46502  -0.44709  -0.44578
 Alpha  occ. eigenvalues --   -0.37208  -0.36214
 Alpha virt. eigenvalues --    0.05165   0.11414   0.16608   0.20283   0.22379
 Alpha virt. eigenvalues --    0.23695   0.25391   0.25811   0.26492   0.27975
 Alpha virt. eigenvalues --    0.29150   0.30288   0.30794   0.31235   0.31558

 Mulliken charges:
               1
     1  C   -0.298511
     2  C   -0.300248
     3  C   -0.476150
     4  H    0.152801
     5  H    0.151826
     6  H    0.152092
     7  H    0.150343
     8  H    0.156366
     9  H    0.156878
    10  H    0.161448
    11  C   -0.301966
    12  C   -0.299205
    13  C   -0.487365
    14  H    0.149327
    15  H    0.144811
    16  H    0.157124
    17  H    0.156035
    18  H    0.152859
    19  H    0.154038
    20  H    0.170550
    21  C   -0.172345
    22  C   -0.218545
    23  C   -0.171378
    24  C    0.159108
    25  C   -0.176282
    26  C   -0.225871
    27  H    0.225281
    28  H    0.222690
    29  H    0.275029
    30  H    0.277855
    31  H    0.234852
    32  N    0.488223
    33  O   -0.460655
    34  O   -0.461014
 Sum of Mulliken charges =  -0.00000

 Dipole moment (field-independent basis, Debye):
    X=             -4.0399    Y=              3.3267    Z=              1.0661  Tot=              5.3408
 Quadrupole moment (field-independent basis, Debye-Ang):
   XX=           -118.6281   YY=            -90.5266   ZZ=            -94.7967
   XY=             14.4473   XZ=              3.6235   YZ=              0.0981

 Normal termination of Gaussian 16 at Thu May  6 02:44:31 2021.
