 Gaussian 16, Revision A.03,
 Gaussian 16:  EM64L-G16RevA.03 25-Dec-2016

 -------------
 #p 6-31g* mp2
 -------------

 ------------------------------------------------------
 Input file generated by CHIRIPA (05-May-2021 14:53:11)
 ------------------------------------------------------
 Symbolic Z-matrix:
 Charge =  0 Multiplicity = 1

                         Standard orientation:
 ---------------------------------------------------------------------
 Center     Atomic      Atomic             Coordinates (Angstroms)
 Number     Number       Type             X           Y           Z
 ---------------------------------------------------------------------
      1          6           0       -3.799362   -0.307121   -0.540955
      2          6           0       -3.840514   -1.559034    0.335973
      3          6           0       -4.322842   -2.796179   -0.422068
      4          1           0       -4.801780   -0.120595   -0.949993
      5          1           0       -3.140336   -0.491607   -1.400631
      6          1           0       -4.498178   -1.371762    1.194473
      7          1           0       -2.837924   -1.742492    0.743125
      8          1           0       -3.662777   -3.010856   -1.268726
      9          1           0       -5.332465   -2.638019   -0.814813
     10          1           0       -4.344546   -3.679569    0.223696
     11          6           0       -3.319182    0.937923    0.202699
     12          6           0       -3.278030    2.189837   -0.674229
     13          6           0       -2.795702    3.426981    0.083812
     14          1           0       -3.978208    1.122410    1.062375
     15          1           0       -2.316764    0.751397    0.611737
     16          1           0       -4.280620    2.373294   -1.081381
     17          1           0       -2.620366    2.002564   -1.532729
     18          1           0       -1.786079    3.268822    0.476557
     19          1           0       -3.455767    3.641658    0.930470
     20          1           0       -2.773998    4.310371   -0.561951
     21          6           0        0.494892   -1.065320    0.818039
     22          6           0        0.836424    0.280415    0.987967
     23          6           0        2.100046    0.745246    0.611485
     24          6           0        3.001663   -0.167238    0.065820
     25          6           0        2.691115   -1.513995   -0.116104
     26          6           0        1.421693   -1.956658    0.267516
     27          1           0       -0.488973   -1.417801    1.113272
     28          1           0        0.118671    0.974899    1.415248
     29          1           0        2.390681    1.781802    0.731900
     30          1           0        3.427831   -2.182490   -0.544802
     31          1           0        1.159204   -3.002325    0.134381
     32          7           0        4.342473    0.313125   -0.336523
     33          8           0        5.118880   -0.510868   -0.814922
     34          8           0        4.591606    1.504529   -0.165863
 ---------------------------------------------------------------------

 SCF Done:  E(RHF) =  -669.535124048     A.U. after   15 cycles
 E2 =    -0.2092624663D+01 EUMP2 =    -0.67162774871111D+03

 The electronic state is 1-A.
 Alpha  occ. eigenvalues --  -20.60767 -20.60762 -15.85821 -11.31195 -11.27767
 Alpha  occ. eigenvalues --  -11.27763 -11.27486 -11.26777 -11.26766 -11.22736
 Alpha  occ. eigenvalues --  -11.22431 -11.22367 -11.22308 -11.21982 -11.21855
 Alpha  occ. eigenvalues --   -1.59843  -1.39396  -1.19369  -1.09400  -1.08759
 Alpha  occ. eigenvalues --   -1.04774  -1.04449  -0.96879  -0.95596  -0.87896
 Alpha  occ. eigenvalues --   -0.86173  -0.82431  -0.80521  -0.79233  -0.77472
 Alpha  occ. eigenvalues --   -0.72039  -0.71166  -0.70506  -0.66072  -0.65018
 Alpha  occ. eigenvalues --   -0.64743  -0.62157  -0.61825  -0.60251  -0.58495
 Alpha  occ. eigenvalues --   -0.56169  -0.55295  -0.53552  -0.53306  -0.53097
 Alpha  occ. eigenvalues --   -0.52869  -0.50827  -0.48866  -0.48794  -0.48760
 Alpha  occ. eigenvalues --   -0.47553  -0.46762  -0.46646  -0.44800  -0.44706
 Alpha  occ. eigenvalues --   -0.37337  -0.36374
 Alpha virt. eigenvalues --    0.05048   0.11174   0.16477   0.18579   0.21992
 Alpha virt. eigenvalues --    0.23002   0.25056   0.26012   0.26358   0.27479
 Alpha virt. eigenvalues --    0.29337   0.30672   0.30962   0.31360   0.32143

 Mulliken charges:
               1
     1  C   -0.299368
     2  C   -0.303547
     3  C   -0.476271
     4  H    0.154350
     5  H    0.152704
     6  H    0.155825
     7  H    0.141804
     8  H    0.156155
     9  H    0.159598
    10  H    0.161358
    11  C   -0.301201
    12  C   -0.300813
    13  C   -0.475741
    14  H    0.151827
    15  H    0.141138
    16  H    0.155429
    17  H    0.155698
    18  H    0.148931
    19  H    0.156803
    20  H    0.165344
    21  C   -0.176901
    22  C   -0.224635
    23  C   -0.171137
    24  C    0.158415
    25  C   -0.170669
    26  C   -0.221354
    27  H    0.236543
    28  H    0.227211
    29  H    0.275760
    30  H    0.275668
    31  H    0.223815
    32  N    0.487965
    33  O   -0.460393
    34  O   -0.460313
 Sum of Mulliken charges =  -0.00000

 Dipole moment (field-independent basis, Debye):
    X=             -4.9454    Y=             -1.6497    Z=              1.2977  Tot=              5.3724
 Quadrupole moment (field-independent basis, Debye-Ang):
   XX=           -121.5849   YY=            -90.5500   ZZ=            -94.9895
   XY=             -6.2377   XZ=              3.5029   YZ=              0.8529

 Normal termination of Gaussian 16 at Wed May  5 21:41:22 2021.
