 Gaussian 16, Revision A.03,
 Gaussian 16:  EM64L-G16RevA.03 25-Dec-2016

 -------------
 #p 6-31g* mp2
 -------------

 ------------------------------------------------------
 Input file generated by CHIRIPA (05-May-2021 14:57:23)
 ------------------------------------------------------
 Symbolic Z-matrix:
 Charge =  0 Multiplicity = 1

                         Standard orientation:
 ---------------------------------------------------------------------
 Center     Atomic      Atomic             Coordinates (Angstroms)
 Number     Number       Type             X           Y           Z
 ---------------------------------------------------------------------
      1          6           0       -1.226207   -0.179054   -0.733603
      2          6           0       -1.710357    0.799129    0.141198
      3          6           0       -3.066618    0.842169    0.477728
      4          6           0       -3.914437   -0.112723   -0.081445
      5          6           0       -3.462345   -1.099690   -0.955974
      6          6           0       -2.102202   -1.123676   -1.278437
      7          1           0       -0.171123   -0.205088   -0.989564
      8          1           0       -1.032356    1.534006    0.565834
      9          1           0       -3.468149    1.588523    1.152373
     10          1           0       -4.162532   -1.818860   -1.363345
     11          1           0       -1.729005   -1.884491   -1.958091
     12          7           0       -5.352304   -0.077244    0.267378
     13          8           0       -6.078700   -0.929812   -0.238701
     14          8           0       -5.725684    0.802460    1.040259
     15          6           0        4.571597   -2.209549    0.521431
     16          6           0        5.180517   -1.371485   -0.418456
     17          6           0        4.693580   -0.079605   -0.638653
     18          6           0        3.591016    0.343645    0.101958
     19          6           0        2.962619   -0.467718    1.045407
     20          6           0        3.466540   -1.755790    1.249080
     21          1           0        4.956458   -3.211633    0.686068
     22          1           0        6.038864   -1.721212   -0.985004
     23          1           0        5.145824    0.590038   -1.360090
     24          1           0        2.108504   -0.090986    1.594932
     25          1           0        2.991636   -2.404456    1.979657
     26          7           0        3.066529    1.709284   -0.122408
     27          8           0        2.093879    2.058437    0.542935
     28          8           0        3.638016    2.404661   -0.959362
 ---------------------------------------------------------------------

 SCF Done:  E(RHF) =  -868.339670518     A.U. after   16 cycles
 E2 =    -0.2599232034D+01 EUMP2 =    -0.87093890255227D+03

 The electronic state is 1-A.
 Alpha  occ. eigenvalues --  -20.61983 -20.61912 -20.60466 -20.60457 -15.86980
 Alpha  occ. eigenvalues --  -15.85511 -11.32182 -11.30801 -11.28731 -11.28676
 Alpha  occ. eigenvalues --  -11.28374 -11.27666 -11.27645 -11.27380 -11.27278
 Alpha  occ. eigenvalues --  -11.27035 -11.26407 -11.26157  -1.61010  -1.59541
 Alpha  occ. eigenvalues --   -1.40570  -1.39096  -1.20321  -1.18946  -1.09738
 Alpha  occ. eigenvalues --   -1.08351  -1.05684  -1.04320  -0.96601  -0.95206
 Alpha  occ. eigenvalues --   -0.87087  -0.85710  -0.83433  -0.82030  -0.78514
 Alpha  occ. eigenvalues --   -0.77090  -0.73195  -0.72336  -0.71729  -0.71398
 Alpha  occ. eigenvalues --   -0.70863  -0.70047  -0.65963  -0.65661  -0.64584
 Alpha  occ. eigenvalues --   -0.64271  -0.63024  -0.61645  -0.56163  -0.54828
 Alpha  occ. eigenvalues --   -0.54027  -0.53755  -0.52681  -0.52375  -0.49964
 Alpha  occ. eigenvalues --   -0.49923  -0.48492  -0.48479  -0.45999  -0.44519
 Alpha  occ. eigenvalues --   -0.38284  -0.37291  -0.36929  -0.35931
 Alpha virt. eigenvalues --    0.03968   0.05409   0.10311   0.11708   0.15487
 Alpha virt. eigenvalues --    0.16931   0.20445   0.21865   0.26320   0.27008
 Alpha virt. eigenvalues --    0.28228   0.28300   0.30407   0.31204   0.31724

 Mulliken charges:
               1
     1  C   -0.174081
     2  C   -0.226149
     3  C   -0.172459
     4  C    0.158630
     5  C   -0.172672
     6  C   -0.218974
     7  H    0.223833
     8  H    0.243585
     9  H    0.275802
    10  H    0.273481
    11  H    0.220180
    12  N    0.488021
    13  O   -0.462215
    14  O   -0.460504
    15  C   -0.170396
    16  C   -0.218292
    17  C   -0.170920
    18  C    0.155638
    19  C   -0.175680
    20  C   -0.218495
    21  H    0.229145
    22  H    0.226780
    23  H    0.277697
    24  H    0.274472
    25  H    0.227216
    26  N    0.489355
    27  O   -0.469542
    28  O   -0.453454
 Sum of Mulliken charges =  -0.00000

 Dipole moment (field-independent basis, Debye):
    X=              7.3487    Y=             -4.8958    Z=             -0.4073  Tot=              8.8396
 Quadrupole moment (field-independent basis, Debye-Ang):
   XX=           -128.8848   YY=           -105.4026   ZZ=           -101.3170
   XY=            -16.1309   XZ=              4.9614   YZ=              1.7734

 Normal termination of Gaussian 16 at Thu May  6 08:11:50 2021.
