 Gaussian 16, Revision A.03,
 Gaussian 16:  EM64L-G16RevA.03 25-Dec-2016

 -------------
 #p 6-31g* mp2
 -------------

 ------------------------------------------------------
 Input file generated by CHIRIPA (05-May-2021 14:57:21)
 ------------------------------------------------------
 Symbolic Z-matrix:
 Charge =  0 Multiplicity = 1

                         Standard orientation:
 ---------------------------------------------------------------------
 Center     Atomic      Atomic             Coordinates (Angstroms)
 Number     Number       Type             X           Y           Z
 ---------------------------------------------------------------------
      1          6           0        3.706946    1.885455   -1.239095
      2          6           0        3.024552    2.091595   -0.035615
      3          6           0        2.557031    1.005657    0.710516
      4          6           0        2.790440   -0.278675    0.221332
      5          6           0        3.467030   -0.516529   -0.974051
      6          6           0        3.925622    0.584345   -1.703654
      7          1           0        4.066659    2.734839   -1.812288
      8          1           0        2.853288    3.100944    0.327603
      9          1           0        2.025837    1.136592    1.645453
     10          1           0        3.622613   -1.534390   -1.310461
     11          1           0        4.455273    0.421250   -2.637953
     12          7           0        2.300223   -1.436215    1.002478
     13          8           0        2.518639   -2.557843    0.549839
     14          8           0        1.706858   -1.199949    2.052589
     15          6           0       -2.895345   -2.325486   -0.828056
     16          6           0       -1.739576   -1.777816   -0.261686
     17          6           0       -1.714830   -0.441803    0.149415
     18          6           0       -2.868902    0.321216   -0.021487
     19          6           0       -4.035762   -0.195594   -0.582412
     20          6           0       -4.037736   -1.534023   -0.986333
     21          1           0       -2.905724   -3.364272   -1.144621
     22          1           0       -0.850912   -2.390116   -0.137544
     23          1           0       -0.833606    0.007639    0.590850
     24          1           0       -4.906148    0.439663   -0.693289
     25          1           0       -4.936739   -1.956683   -1.425873
     26          7           0       -2.854759    1.736871    0.409927
     27          8           0       -3.884565    2.388083    0.248493
     28          8           0       -1.814134    2.168447    0.901335
 ---------------------------------------------------------------------

 SCF Done:  E(RHF) =  -868.340621361     A.U. after   16 cycles
 E2 =    -0.2599678836D+01 EUMP2 =    -0.87094030019660D+03

 The electronic state is 1-A.
 Alpha  occ. eigenvalues --  -20.61532 -20.61524 -20.60590 -20.60572 -15.86527
 Alpha  occ. eigenvalues --  -15.85628 -11.31517 -11.30760 -11.28061 -11.27960
 Alpha  occ. eigenvalues --  -11.27678 -11.27337 -11.27229 -11.26990 -11.26989
 Alpha  occ. eigenvalues --  -11.26871 -11.26321 -11.26143  -1.60605  -1.59657
 Alpha  occ. eigenvalues --   -1.40158  -1.39219  -1.19647  -1.18907  -1.09116
 Alpha  occ. eigenvalues --   -1.08346  -1.04966  -1.04263  -0.96005  -0.95222
 Alpha  occ. eigenvalues --   -0.86392  -0.85673  -0.82834  -0.82058  -0.77932
 Alpha  occ. eigenvalues --   -0.77134  -0.72731  -0.71957  -0.71847  -0.70971
 Alpha  occ. eigenvalues --   -0.70729  -0.70010  -0.65286  -0.64950  -0.64556
 Alpha  occ. eigenvalues --   -0.64244  -0.62308  -0.61593  -0.55483  -0.54781
 Alpha  occ. eigenvalues --   -0.53344  -0.53038  -0.52621  -0.52335  -0.49522
 Alpha  occ. eigenvalues --   -0.49468  -0.48619  -0.48587  -0.45615  -0.44676
 Alpha  occ. eigenvalues --   -0.37617  -0.36888  -0.36543  -0.35852
 Alpha virt. eigenvalues --    0.04508   0.05378   0.11002   0.11801   0.16091
 Alpha virt. eigenvalues --    0.16924   0.21146   0.21963   0.26688   0.27451
 Alpha virt. eigenvalues --    0.28313   0.28794   0.31045   0.31126   0.32009

 Mulliken charges:
               1
     1  C   -0.169760
     2  C   -0.216322
     3  C   -0.173012
     4  C    0.153550
     5  C   -0.171814
     6  C   -0.218389
     7  H    0.228223
     8  H    0.231094
     9  H    0.281828
    10  H    0.273812
    11  H    0.224121
    12  N    0.484854
    13  O   -0.462537
    14  O   -0.459660
    15  C   -0.171291
    16  C   -0.223043
    17  C   -0.171902
    18  C    0.157374
    19  C   -0.171903
    20  C   -0.219042
    21  H    0.226151
    22  H    0.236218
    23  H    0.275291
    24  H    0.273286
    25  H    0.221573
    26  N    0.488557
    27  O   -0.461549
    28  O   -0.465709
 Sum of Mulliken charges =  -0.00000

 Dipole moment (field-independent basis, Debye):
    X=              1.9471    Y=             -0.8153    Z=             -4.2598  Tot=              4.7542
 Quadrupole moment (field-independent basis, Debye-Ang):
   XX=            -90.4047   YY=           -108.8995   ZZ=           -104.2264
   XY=             24.4409   XZ=             -2.9745   YZ=              3.5344

 Normal termination of Gaussian 16 at Thu May  6 16:10:55 2021.
