 Gaussian 16, Revision A.03,
 Gaussian 16:  EM64L-G16RevA.03 25-Dec-2016

 -------------
 #p 6-31g* mp2
 -------------

 ------------------------------------------------------
 Input file generated by CHIRIPA (05-May-2021 14:53:11)
 ------------------------------------------------------
 Symbolic Z-matrix:
 Charge =  0 Multiplicity = 1

                         Standard orientation:
 ---------------------------------------------------------------------
 Center     Atomic      Atomic             Coordinates (Angstroms)
 Number     Number       Type             X           Y           Z
 ---------------------------------------------------------------------
      1          6           0        3.203171    0.310116   -0.026608
      2          6           0        2.889734    1.806240    0.010217
      3          6           0        1.388444    2.095483    0.026394
      4          1           0        2.733009   -0.134792   -0.914273
      5          1           0        2.744732   -0.175049    0.846228
      6          1           0        3.349794    2.288664   -0.861694
      7          1           0        3.360858    2.247675    0.897794
      8          1           0        0.917906    1.640530    0.904012
      9          1           0        0.906780    1.681752   -0.865473
     10          1           0        1.187058    3.170941    0.052715
     11          6           0        4.699944    0.004952   -0.043128
     12          6           0        5.013381   -1.491172   -0.079953
     13          6           0        6.514671   -1.780415   -0.096131
     14          1           0        5.158383    0.490117   -0.915965
     15          1           0        5.170107    0.449861    0.844536
     16          1           0        4.542258   -1.932606   -0.967530
     17          1           0        4.553321   -1.973595    0.791957
     18          1           0        6.996335   -1.366683    0.795737
     19          1           0        6.985209   -1.325461   -0.973748
     20          1           0        6.716058   -2.855873   -0.122451
     21          6           0       -2.237845    2.252288    0.074716
     22          6           0       -2.723420    1.706212   -1.117987
     23          6           0       -3.196486    0.391179   -1.155980
     24          6           0       -3.169262   -0.352715    0.022651
     25          6           0       -2.691646    0.163057    1.226459
     26          6           0       -2.223534    1.480329    1.241076
     27          1           0       -1.872280    3.274707    0.095150
     28          1           0       -2.735734    2.303393   -2.025329
     29          1           0       -3.577849   -0.056544   -2.065664
     30          1           0       -2.692005   -0.456830    2.114805
     31          1           0       -1.847001    1.901801    2.168777
     32          7           0       -3.667455   -1.746066   -0.005197
     33          8           0       -3.632803   -2.380680    1.046802
     34          8           0       -4.083156   -2.177180   -1.078497
 ---------------------------------------------------------------------

 SCF Done:  E(RHF) =  -669.535299072     A.U. after   15 cycles
 E2 =    -0.2091857921D+01 EUMP2 =    -0.67162715699297D+03

 The electronic state is 1-A.
 Alpha  occ. eigenvalues --  -20.60742 -20.60737 -15.85797 -11.31151 -11.27742
 Alpha  occ. eigenvalues --  -11.27735 -11.27465 -11.26737 -11.26724 -11.22016
 Alpha  occ. eigenvalues --  -11.21731 -11.21676 -11.21645 -11.21580 -11.21173
 Alpha  occ. eigenvalues --   -1.59818  -1.39372  -1.19336  -1.08743  -1.08688
 Alpha  occ. eigenvalues --   -1.04743  -1.03829  -0.96299  -0.95556  -0.87320
 Alpha  occ. eigenvalues --   -0.86136  -0.82397  -0.79898  -0.78494  -0.77446
 Alpha  occ. eigenvalues --   -0.72016  -0.71142  -0.70436  -0.65335  -0.64988
 Alpha  occ. eigenvalues --   -0.64746  -0.62095  -0.61223  -0.59686  -0.57900
 Alpha  occ. eigenvalues --   -0.55580  -0.55235  -0.53358  -0.52938  -0.52835
 Alpha  occ. eigenvalues --   -0.52496  -0.50232  -0.48773  -0.48770  -0.48198
 Alpha  occ. eigenvalues --   -0.46920  -0.46041  -0.45955  -0.44781  -0.44092
 Alpha  occ. eigenvalues --   -0.37239  -0.36334
 Alpha virt. eigenvalues --    0.05086   0.11233   0.16527   0.20932   0.22671
 Alpha virt. eigenvalues --    0.24069   0.26298   0.26835   0.26996   0.27487
 Alpha virt. eigenvalues --    0.28610   0.30002   0.31168   0.31751   0.32538

 Mulliken charges:
               1
     1  C   -0.298400
     2  C   -0.300783
     3  C   -0.476180
     4  H    0.151258
     5  H    0.150099
     6  H    0.152125
     7  H    0.151425
     8  H    0.155107
     9  H    0.158307
    10  H    0.150994
    11  C   -0.298495
    12  C   -0.300034
    13  C   -0.475905
    14  H    0.149507
    15  H    0.149363
    16  H    0.153154
    17  H    0.152906
    18  H    0.154953
    19  H    0.155059
    20  H    0.161521
    21  C   -0.163451
    22  C   -0.220860
    23  C   -0.170830
    24  C    0.158356
    25  C   -0.171724
    26  C   -0.218345
    27  H    0.226693
    28  H    0.223295
    29  H    0.275453
    30  H    0.275356
    31  H    0.223257
    32  N    0.488141
    33  O   -0.460644
    34  O   -0.460679
 Sum of Mulliken charges =  -0.00000

 Dipole moment (field-independent basis, Debye):
    X=              1.7809    Y=              4.8726    Z=              0.0825  Tot=              5.1885
 Quadrupole moment (field-independent basis, Debye-Ang):
   XX=           -107.5311   YY=            -99.1822   ZZ=            -88.9929
   XY=            -16.3377   XZ=              0.8856   YZ=             -0.4977

 Normal termination of Gaussian 16 at Thu May  6 05:39:04 2021.
