 Gaussian 16, Revision A.03,
 Gaussian 16:  EM64L-G16RevA.03 25-Dec-2016

 -------------
 #p 6-31g* mp2
 -------------

 ------------------------------------------------------
 Input file generated by CHIRIPA (05-May-2021 14:55:21)
 ------------------------------------------------------
 Symbolic Z-matrix:
 Charge =  0 Multiplicity = 1

                         Standard orientation:
 ---------------------------------------------------------------------
 Center     Atomic      Atomic             Coordinates (Angstroms)
 Number     Number       Type             X           Y           Z
 ---------------------------------------------------------------------
      1          6           0       -2.544166    1.749567    0.998880
      2          6           0       -1.727355    0.904264    1.757038
      3          6           0       -1.398959   -0.371977    1.290228
      4          6           0       -1.907045   -0.772376    0.055392
      5          6           0       -2.723215    0.046726   -0.723215
      6          6           0       -3.038618    1.318859   -0.236649
      7          1           0       -2.794226    2.739386    1.369182
      8          1           0       -1.341929    1.236100    2.716921
      9          1           0       -0.768694   -1.046760    1.856667
     10          1           0       -3.092368   -0.312060   -1.676324
     11          1           0       -3.673182    1.973197   -0.827593
     12          7           0       -1.566265   -2.121301   -0.449257
     13          8           0       -2.026603   -2.450418   -1.540315
     14          8           0       -0.845275   -2.823930    0.255814
     15          6           0        2.289783    1.241232   -0.672445
     16          6           0        1.407587    2.318834   -0.041187
     17          6           0        0.969266    3.386368   -1.044203
     18          1           0        3.175927    1.715349   -1.116189
     19          1           0        1.742430    0.766702   -1.498654
     20          1           0        1.955923    2.790245    0.784474
     21          1           0        0.523536    1.842077    0.401274
     22          1           0        0.399714    2.934954   -1.863006
     23          1           0        1.840240    3.888511   -1.477629
     24          1           0        0.339563    4.146714   -0.571755
     25          6           0        2.736034    0.166914    0.317722
     26          6           0        3.618230   -0.910688   -0.313537
     27          6           0        4.056552   -1.978221    0.689480
     28          1           0        3.283387    0.641445    1.143930
     29          1           0        1.849890   -0.307203    0.761466
     30          1           0        4.502281   -0.433930   -0.755997
     31          1           0        3.069894   -1.382099   -1.139197
     32          1           0        3.185576   -2.480364    1.122905
     33          1           0        4.626103   -1.526808    1.508282
     34          1           0        4.686254   -2.738567    0.217032
 ---------------------------------------------------------------------

 SCF Done:  E(RHF) =  -669.534975827     A.U. after   15 cycles
 E2 =    -0.2094494832D+01 EUMP2 =    -0.67162947065936D+03

 The electronic state is 1-A.
 Alpha  occ. eigenvalues --  -20.60924 -20.60918 -15.85973 -11.31362 -11.27911
 Alpha  occ. eigenvalues --  -11.27904 -11.27638 -11.26933 -11.26904 -11.21547
 Alpha  occ. eigenvalues --  -11.21331 -11.21290 -11.21270 -11.21236 -11.20661
 Alpha  occ. eigenvalues --   -1.59995  -1.39548  -1.19536  -1.08920  -1.08322
 Alpha  occ. eigenvalues --   -1.04936  -1.03400  -0.95876  -0.95743  -0.86891
 Alpha  occ. eigenvalues --   -0.86320  -0.82576  -0.79488  -0.78155  -0.77617
 Alpha  occ. eigenvalues --   -0.72188  -0.71319  -0.70617  -0.65175  -0.64986
 Alpha  occ. eigenvalues --   -0.64906  -0.62270  -0.60816  -0.59280  -0.57487
 Alpha  occ. eigenvalues --   -0.55416  -0.55156  -0.53325  -0.53010  -0.52549
 Alpha  occ. eigenvalues --   -0.52299  -0.49801  -0.48949  -0.48944  -0.47791
 Alpha  occ. eigenvalues --   -0.46496  -0.45686  -0.45599  -0.44925  -0.43671
 Alpha  occ. eigenvalues --   -0.37474  -0.36429
 Alpha virt. eigenvalues --    0.04870   0.11004   0.16362   0.20993   0.22974
 Alpha virt. eigenvalues --    0.24191   0.26005   0.27019   0.27760   0.28071
 Alpha virt. eigenvalues --    0.28868   0.30605   0.31469   0.31769   0.31982

 Mulliken charges:
               1
     1  C   -0.168402
     2  C   -0.221946
     3  C   -0.170464
     4  C    0.159717
     5  C   -0.171571
     6  C   -0.217134
     7  H    0.226898
     8  H    0.225713
     9  H    0.276430
    10  H    0.276220
    11  H    0.224630
    12  N    0.488208
    13  O   -0.459524
    14  O   -0.460803
    15  C   -0.297291
    16  C   -0.310213
    17  C   -0.473462
    18  H    0.149262
    19  H    0.150865
    20  H    0.147261
    21  H    0.162297
    22  H    0.155086
    23  H    0.155906
    24  H    0.152881
    25  C   -0.300188
    26  C   -0.299295
    27  C   -0.477337
    28  H    0.146475
    29  H    0.147921
    30  H    0.150064
    31  H    0.157658
    32  H    0.161825
    33  H    0.151049
    34  H    0.161266
 Sum of Mulliken charges =  -0.00000

 Dipole moment (field-independent basis, Debye):
    X=             -1.3580    Y=              4.6092    Z=              1.7689  Tot=              5.1204
 Quadrupole moment (field-independent basis, Debye-Ang):
   XX=            -88.7677   YY=           -103.3459   ZZ=            -91.6605
   XY=             -8.4375   XZ=             -1.1654   YZ=             -1.1642

 Normal termination of Gaussian 16 at Thu May  6 03:01:18 2021.
