 Gaussian 16, Revision A.03,
 Gaussian 16:  EM64L-G16RevA.03 25-Dec-2016

 -------------
 #p 6-31g* mp2
 -------------

 ------------------------------------------------------
 Input file generated by CHIRIPA (05-May-2021 14:55:24)
 ------------------------------------------------------
 Symbolic Z-matrix:
 Charge =  0 Multiplicity = 1

                         Standard orientation:
 ---------------------------------------------------------------------
 Center     Atomic      Atomic             Coordinates (Angstroms)
 Number     Number       Type             X           Y           Z
 ---------------------------------------------------------------------
      1          6           0       -1.257998    2.017557   -0.064005
      2          6           0       -1.043302    0.676468   -0.398529
      3          6           0       -2.106368   -0.231448   -0.409806
      4          6           0       -3.376802    0.238032   -0.079841
      5          6           0       -3.622675    1.568012    0.257782
      6          6           0       -2.544731    2.458272    0.262508
      7          1           0       -0.426404    2.715990   -0.057789
      8          1           0       -0.045078    0.331393   -0.652533
      9          1           0       -1.968363   -1.275127   -0.664965
     10          1           0       -4.629029    1.882388    0.506451
     11          1           0       -2.714423    3.499208    0.522704
     12          7           0       -4.510097   -0.713792   -0.088311
     13          8           0       -5.619831   -0.275180    0.206216
     14          8           0       -4.267181   -1.880422   -0.389317
     15          6           0        3.629221   -1.077681   -0.122959
     16          6           0        2.380168   -1.234843    0.744886
     17          6           0        1.481867   -2.383673    0.285497
     18          1           0        3.325091   -0.912808   -1.165681
     19          1           0        4.198113   -2.017648   -0.108190
     20          1           0        1.814517   -0.294407    0.729596
     21          1           0        2.687303   -1.399169    1.785693
     22          1           0        2.024811   -3.333818    0.317730
     23          1           0        1.147065   -2.222778   -0.744369
     24          1           0        0.594917   -2.478075    0.919743
     25          6           0        4.537234    0.066726    0.323777
     26          6           0        5.786285    0.223889   -0.544067
     27          6           0        6.684586    1.372719   -0.084678
     28          1           0        3.968340    1.006693    0.309009
     29          1           0        4.841361   -0.098146    1.366498
     30          1           0        5.479150    0.388215   -1.584876
     31          1           0        6.351937   -0.716548   -0.528778
     32          1           0        7.019388    1.211823    0.945186
     33          1           0        6.141643    2.322863   -0.116911
     34          1           0        7.571536    1.467121   -0.718924
 ---------------------------------------------------------------------

 SCF Done:  E(RHF) =  -669.535363322     A.U. after   15 cycles
 E2 =    -0.2091807627D+01 EUMP2 =    -0.67162717094815D+03

 The electronic state is 1-A.
 Alpha  occ. eigenvalues --  -20.60737 -20.60732 -15.85790 -11.31155 -11.27732
 Alpha  occ. eigenvalues --  -11.27708 -11.27476 -11.26749 -11.26701 -11.22507
 Alpha  occ. eigenvalues --  -11.22206 -11.22179 -11.22088 -11.21949 -11.21601
 Alpha  occ. eigenvalues --   -1.59813  -1.39366  -1.19330  -1.09198  -1.08727
 Alpha  occ. eigenvalues --   -1.04738  -1.04272  -0.96715  -0.95561  -0.87727
 Alpha  occ. eigenvalues --   -0.86134  -0.82391  -0.80338  -0.78991  -0.77441
 Alpha  occ. eigenvalues --   -0.72009  -0.71136  -0.70442  -0.65922  -0.64982
 Alpha  occ. eigenvalues --   -0.64721  -0.62265  -0.61489  -0.60067  -0.58308
 Alpha  occ. eigenvalues --   -0.56023  -0.55223  -0.53399  -0.53138  -0.53040
 Alpha  occ. eigenvalues --   -0.52809  -0.50673  -0.48784  -0.48763  -0.48621
 Alpha  occ. eigenvalues --   -0.47389  -0.46522  -0.46461  -0.44772  -0.44518
 Alpha  occ. eigenvalues --   -0.37314  -0.36324
 Alpha virt. eigenvalues --    0.05086   0.11237   0.16527   0.19151   0.22684
 Alpha virt. eigenvalues --    0.23679   0.25616   0.25972   0.26834   0.28514
 Alpha virt. eigenvalues --    0.29337   0.29808   0.31134   0.31208   0.32093

 Mulliken charges:
               1
     1  C   -0.172351
     2  C   -0.221522
     3  C   -0.173652
     4  C    0.158776
     5  C   -0.170930
     6  C   -0.218448
     7  H    0.225171
     8  H    0.230678
     9  H    0.276923
    10  H    0.275519
    11  H    0.223278
    12  N    0.488064
    13  O   -0.460627
    14  O   -0.460293
    15  C   -0.299308
    16  C   -0.303965
    17  C   -0.480690
    18  H    0.147307
    19  H    0.153908
    20  H    0.144351
    21  H    0.158114
    22  H    0.162538
    23  H    0.148976
    24  H    0.165891
    25  C   -0.297489
    26  C   -0.300163
    27  C   -0.475905
    28  H    0.144874
    29  H    0.152204
    30  H    0.151885
    31  H    0.154142
    32  H    0.156448
    33  H    0.154037
    34  H    0.162259
 Sum of Mulliken charges =  -0.00000

 Dipole moment (field-independent basis, Debye):
    X=              4.1692    Y=              3.2539    Z=              0.0932  Tot=              5.2895
 Quadrupole moment (field-independent basis, Debye-Ang):
   XX=           -119.7691   YY=            -90.6284   ZZ=            -94.8597
   XY=            -14.2718   XZ=             -1.1063   YZ=              0.2064

 Normal termination of Gaussian 16 at Thu May  6 20:52:46 2021.
