 Gaussian 16, Revision A.03,
 Gaussian 16:  EM64L-G16RevA.03 25-Dec-2016

 -------------
 #p 6-31g* mp2
 -------------

 ------------------------------------------------------
 Input file generated by CHIRIPA (05-May-2021 14:57:24)
 ------------------------------------------------------
 Symbolic Z-matrix:
 Charge =  0 Multiplicity = 1

                         Standard orientation:
 ---------------------------------------------------------------------
 Center     Atomic      Atomic             Coordinates (Angstroms)
 Number     Number       Type             X           Y           Z
 ---------------------------------------------------------------------
      1          6           0       -1.366584    2.302522    0.047952
      2          6           0       -0.925586    1.109946   -0.534974
      3          6           0       -1.799006    0.029113   -0.688224
      4          6           0       -3.112619    0.176117   -0.245391
      5          6           0       -3.581926    1.351357    0.339289
      6          6           0       -2.691012    2.419216    0.482457
      7          1           0       -0.681295    3.137100    0.163084
      8          1           0        0.102432    1.016477   -0.873335
      9          1           0       -1.484009   -0.905569   -1.136068
     10          1           0       -4.612501    1.414575    0.666912
     11          1           0       -3.036265    3.344189    0.935526
     12          7           0       -4.046531   -0.961245   -0.402294
     13          8           0       -5.198932   -0.806442   -0.003992
     14          8           0       -3.608445   -1.985975   -0.920604
     15          6           0        1.236222   -1.852549    1.306698
     16          6           0        1.298278   -0.495331    1.639311
     17          6           0        2.248556    0.339046    1.043213
     18          6           0        3.125222   -0.219619    0.114428
     19          6           0        3.088451   -1.567897   -0.237826
     20          6           0        2.129930   -2.383563    0.370841
     21          1           0        0.494821   -2.493445    1.774643
     22          1           0        0.605484   -0.080201    2.365773
     23          1           0        2.318707    1.393244    1.282300
     24          1           0        3.792470   -1.952872   -0.965541
     25          1           0        2.084054   -3.437232    0.110600
     26          7           0        4.135603    0.653795   -0.523287
     27          8           0        4.896626    0.137255   -1.338557
     28          8           0        4.147383    1.838379   -0.195782
 ---------------------------------------------------------------------

 SCF Done:  E(RHF) =  -868.337309161     A.U. after   16 cycles
 E2 =    -0.2602598682D+01 EUMP2 =    -0.87093990784320D+03

 The electronic state is 1-A.
 Alpha  occ. eigenvalues --  -20.61516 -20.61488 -20.61225 -20.61208 -15.86558
 Alpha  occ. eigenvalues --  -15.86267 -11.31968 -11.31600 -11.28477 -11.28418
 Alpha  occ. eigenvalues --  -11.28106 -11.28083 -11.28078 -11.27807 -11.27435
 Alpha  occ. eigenvalues --  -11.27423 -11.27155 -11.27035  -1.60584  -1.60296
 Alpha  occ. eigenvalues --   -1.40135  -1.39850  -1.20107  -1.19741  -1.09458
 Alpha  occ. eigenvalues --   -1.09148  -1.05502  -1.05095  -0.96297  -0.95986
 Alpha  occ. eigenvalues --   -0.86849  -0.86520  -0.83112  -0.82806  -0.78190
 Alpha  occ. eigenvalues --   -0.77869  -0.72759  -0.72481  -0.71924  -0.71625
 Alpha  occ. eigenvalues --   -0.71120  -0.70820  -0.65710  -0.65424  -0.65371
 Alpha  occ. eigenvalues --   -0.65107  -0.62803  -0.62474  -0.55880  -0.55623
 Alpha  occ. eigenvalues --   -0.54134  -0.53552  -0.53335  -0.52981  -0.49531
 Alpha  occ. eigenvalues --   -0.49515  -0.49244  -0.49233  -0.45529  -0.45262
 Alpha  occ. eigenvalues --   -0.38195  -0.37922  -0.37329  -0.36100
 Alpha virt. eigenvalues --    0.04259   0.04637   0.10463   0.10895   0.15828
 Alpha virt. eigenvalues --    0.16217   0.20576   0.21394   0.26375   0.27000
 Alpha virt. eigenvalues --    0.27377   0.28557   0.30532   0.30709   0.31887

 Mulliken charges:
               1
     1  C   -0.179615
     2  C   -0.216349
     3  C   -0.175135
     4  C    0.157593
     5  C   -0.173176
     6  C   -0.218311
     7  H    0.228380
     8  H    0.231167
     9  H    0.274526
    10  H    0.275912
    11  H    0.224788
    12  N    0.487811
    13  O   -0.459075
    14  O   -0.462031
    15  C   -0.175005
    16  C   -0.210927
    17  C   -0.185034
    18  C    0.157548
    19  C   -0.173209
    20  C   -0.219248
    21  H    0.233017
    22  H    0.227957
    23  H    0.272429
    24  H    0.278121
    25  H    0.229057
    26  N    0.487758
    27  O   -0.456662
    28  O   -0.462286
 Sum of Mulliken charges =  -0.00000

 Dipole moment (field-independent basis, Debye):
    X=             -0.1859    Y=              0.7818    Z=              2.8448  Tot=              2.9562
 Quadrupole moment (field-independent basis, Debye-Ang):
   XX=           -145.3887   YY=            -97.8406   ZZ=           -103.4007
   XY=            -25.0328   XZ=              1.2475   YZ=              1.7355

 Normal termination of Gaussian 16 at Fri May  7 03:24:17 2021.
