 Gaussian 16, Revision A.03,
 Gaussian 16:  EM64L-G16RevA.03 25-Dec-2016

 -------------
 #p 6-31g* mp2
 -------------

 ------------------------------------------------------
 Input file generated by CHIRIPA (05-May-2021 14:51:10)
 ------------------------------------------------------
 Symbolic Z-matrix:
 Charge =  0 Multiplicity = 1

                         Standard orientation:
 ---------------------------------------------------------------------
 Center     Atomic      Atomic             Coordinates (Angstroms)
 Number     Number       Type             X           Y           Z
 ---------------------------------------------------------------------
      1          6           0       -3.051851    0.778707   -0.643086
      2          6           0       -2.975897    1.974713    0.306538
      3          6           0       -2.658291    3.284141   -0.416177
      4          1           0       -2.096974    0.681855   -1.177666
      5          1           0       -3.818701    0.973025   -1.405697
      6          1           0       -2.210382    1.777604    1.067952
      7          1           0       -3.930999    2.068613    0.839060
      8          1           0       -3.426299    3.507669   -1.163706
      9          1           0       -1.695906    3.215006   -0.933514
     10          1           0       -2.608723    4.125963    0.281490
     11          6           0       -3.368615   -0.537573    0.064584
     12          6           0       -3.444568   -1.733578   -0.885040
     13          6           0       -3.762175   -3.043007   -0.162325
     14          1           0       -2.601764   -0.731891    0.827195
     15          1           0       -4.323491   -0.440720    0.599164
     16          1           0       -2.489466   -1.827479   -1.417562
     17          1           0       -4.210083   -1.536470   -1.646454
     18          1           0       -4.724559   -2.973872    0.355012
     19          1           0       -2.994166   -3.266535    0.585204
     20          1           0       -3.811743   -3.884828   -0.859992
     21          6           0        2.460742    0.021519    0.250425
     22          6           0        1.711022   -0.321603    1.538125
     23          6           0        0.212643   -0.031839    1.444903
     24          1           0        2.305109    1.083229    0.014854
     25          1           0        2.026862   -0.550134   -0.581655
     26          1           0        2.147089    0.249487    2.367774
     27          1           0        1.868615   -1.382575    1.770761
     28          1           0       -0.242482   -0.612724    0.636179
     29          1           0        0.037574    1.028611    1.236584
     30          1           0       -0.303805   -0.284398    2.376223
     31          6           0        3.959723   -0.262653    0.328078
     32          6           0        4.709443    0.080469   -0.959623
     33          6           0        6.207823   -0.209295   -0.866402
     34          1           0        4.393604    0.309000    1.160156
     35          1           0        4.115356   -1.324364    0.563648
     36          1           0        4.551850    1.141441   -1.192259
     37          1           0        4.273377   -0.490622   -1.789272
     38          1           0        6.382891   -1.269746   -0.658083
     39          1           0        6.662947    0.371590   -0.057677
     40          1           0        6.724271    0.043263   -1.797720
 ---------------------------------------------------------------------

 SCF Done:  E(RHF) =  -470.731979344     A.U. after   11 cycles
 E2 =    -0.1584303480D+01 EUMP2 =    -0.47231628282391D+03

 The electronic state is 1-A.
 Alpha  occ. eigenvalues --  -11.21684 -11.21645 -11.21546 -11.21478 -11.21443
 Alpha  occ. eigenvalues --  -11.21413 -11.21267 -11.21190 -11.21184 -11.21104
 Alpha  occ. eigenvalues --  -11.21036 -11.21008  -1.08511  -1.08322  -1.03613
 Alpha  occ. eigenvalues --   -1.03448  -0.96088  -0.95888  -0.87105  -0.86918
 Alpha  occ. eigenvalues --   -0.79710  -0.79512  -0.78333  -0.78105  -0.65151
 Alpha  occ. eigenvalues --   -0.64980  -0.61160  -0.60748  -0.59436  -0.59269
 Alpha  occ. eigenvalues --   -0.57662  -0.57513  -0.55549  -0.55037  -0.52798
 Alpha  occ. eigenvalues --   -0.52598  -0.52468  -0.52326  -0.50182  -0.49694
 Alpha  occ. eigenvalues --   -0.48039  -0.47806  -0.46845  -0.46346  -0.45974
 Alpha  occ. eigenvalues --   -0.45758  -0.45647  -0.45446  -0.43818  -0.43682
 Alpha virt. eigenvalues --    0.20838   0.22993   0.23670   0.24710   0.26011
 Alpha virt. eigenvalues --    0.26410   0.26985   0.27779   0.27866   0.29793
 Alpha virt. eigenvalues --    0.30298   0.31263   0.31722   0.31880   0.32398

 Mulliken charges:
               1
     1  C   -0.297612
     2  C   -0.305498
     3  C   -0.476088
     4  H    0.149535
     5  H    0.149017
     6  H    0.159240
     7  H    0.151263
     8  H    0.155141
     9  H    0.154526
    10  H    0.159562
    11  C   -0.305657
    12  C   -0.300025
    13  C   -0.475490
    14  H    0.158561
    15  H    0.149082
    16  H    0.150563
    17  H    0.151928
    18  H    0.155274
    19  H    0.154781
    20  H    0.159873
    21  C   -0.298715
    22  C   -0.300581
    23  C   -0.481241
    24  H    0.149713
    25  H    0.149346
    26  H    0.152299
    27  H    0.152160
    28  H    0.159035
    29  H    0.158558
    30  H    0.160650
    31  C   -0.298324
    32  C   -0.299714
    33  C   -0.475757
    34  H    0.149762
    35  H    0.149835
    36  H    0.152047
    37  H    0.151981
    38  H    0.155257
    39  H    0.155274
    40  H    0.160437
 Sum of Mulliken charges =  -0.00000

 Dipole moment (field-independent basis, Debye):
    X=              0.0642    Y=             -0.0055    Z=              0.0422  Tot=              0.0770
 Quadrupole moment (field-independent basis, Debye-Ang):
   XX=            -85.2022   YY=            -85.0565   ZZ=            -84.8077
   XY=             -0.0367   XZ=              0.2903   YZ=              0.6953

 Normal termination of Gaussian 16 at Thu May  6 02:12:45 2021.
