 Gaussian 16, Revision A.03,
 Gaussian 16:  EM64L-G16RevA.03 25-Dec-2016

 -------------
 #p 6-31g* mp2
 -------------

 ------------------------------------------------------
 Input file generated by CHIRIPA (05-May-2021 14:51:10)
 ------------------------------------------------------
 Symbolic Z-matrix:
 Charge =  0 Multiplicity = 1

                         Standard orientation:
 ---------------------------------------------------------------------
 Center     Atomic      Atomic             Coordinates (Angstroms)
 Number     Number       Type             X           Y           Z
 ---------------------------------------------------------------------
      1          6           0        2.824608    0.882189   -0.292265
      2          6           0        1.950193    2.135382   -0.238510
      3          6           0        2.554884    3.311500   -1.005901
      4          1           0        3.816830    1.117330    0.116573
      5          1           0        2.978846    0.595926   -1.341865
      6          1           0        1.796507    2.418395    0.810728
      7          1           0        0.959876    1.897180   -0.647347
      8          1           0        2.692610    3.053180   -2.060843
      9          1           0        3.533995    3.577356   -0.594483
     10          1           0        1.913481    4.196827   -0.954345
     11          6           0        2.233439   -0.302175    0.470315
     12          6           0        3.107854   -1.555368    0.416559
     13          6           0        2.503163   -2.731486    1.183950
     14          1           0        2.079201   -0.015911    1.519914
     15          1           0        1.241217   -0.537316    0.061476
     16          1           0        4.098171   -1.317166    0.825396
     17          1           0        3.261540   -1.838381   -0.632679
     18          1           0        1.524052   -2.997342    0.772533
     19          1           0        2.365437   -2.473165    2.238892
     20          1           0        3.144566   -3.616813    1.132394
     21          6           0       -2.357225    0.430967    0.095674
     22          6           0       -3.571731    1.250922    0.532290
     23          6           0       -3.211968    2.691130    0.898577
     24          1           0       -1.613370    0.430313    0.904146
     25          1           0       -1.882607    0.921642   -0.765355
     26          1           0       -4.044726    0.758106    1.391372
     27          1           0       -4.312861    1.249464   -0.277241
     28          1           0       -2.760177    3.204669    0.043730
     29          1           0       -2.490519    2.710519    1.721824
     30          1           0       -4.094864    3.259257    1.207749
     31          6           0       -2.700822   -1.010981   -0.273723
     32          6           0       -1.486316   -1.830937   -0.710339
     33          6           0       -1.846079   -3.271145   -1.076626
     34          1           0       -3.175440   -1.501657    0.587306
     35          1           0       -3.444677   -1.010328   -1.082195
     36          1           0       -0.745186   -1.829478    0.099192
     37          1           0       -1.013320   -1.338120   -1.569422
     38          1           0       -2.567528   -3.290533   -1.899874
     39          1           0       -2.297870   -3.784683   -0.221779
     40          1           0       -0.963183   -3.839271   -1.385798
 ---------------------------------------------------------------------

 SCF Done:  E(RHF) =  -470.732895926     A.U. after   11 cycles
 E2 =    -0.1584404036D+01 EUMP2 =    -0.47231729996214D+03

 The electronic state is 1-A.
 Alpha  occ. eigenvalues --  -11.21662 -11.21626 -11.21558 -11.21532 -11.21449
 Alpha  occ. eigenvalues --  -11.21387 -11.21324 -11.21239 -11.21138 -11.21078
 Alpha  occ. eigenvalues --  -11.21059 -11.21030  -1.08494  -1.08357  -1.03589
 Alpha  occ. eigenvalues --   -1.03476  -0.96022  -0.95934  -0.87043  -0.86949
 Alpha  occ. eigenvalues --   -0.79715  -0.79497  -0.78471  -0.78014  -0.65147
 Alpha  occ. eigenvalues --   -0.64977  -0.61043  -0.60837  -0.59435  -0.59254
 Alpha  occ. eigenvalues --   -0.57648  -0.57530  -0.55325  -0.55210  -0.52725
 Alpha  occ. eigenvalues --   -0.52631  -0.52477  -0.52334  -0.49967  -0.49884
 Alpha  occ. eigenvalues --   -0.48162  -0.47756  -0.46830  -0.46517  -0.46328
 Alpha  occ. eigenvalues --   -0.45756  -0.45648  -0.44970  -0.43824  -0.43725
 Alpha virt. eigenvalues --    0.20994   0.22252   0.23417   0.24892   0.25023
 Alpha virt. eigenvalues --    0.26352   0.26576   0.27176   0.28510   0.30305
 Alpha virt. eigenvalues --    0.30828   0.31307   0.31645   0.31853   0.32090

 Mulliken charges:
               1
     1  C   -0.297543
     2  C   -0.302016
     3  C   -0.475695
     4  H    0.149193
     5  H    0.148911
     6  H    0.151529
     7  H    0.154812
     8  H    0.154765
     9  H    0.155067
    10  H    0.160115
    11  C   -0.308065
    12  C   -0.298903
    13  C   -0.480122
    14  H    0.147816
    15  H    0.161371
    16  H    0.151715
    17  H    0.151545
    18  H    0.158875
    19  H    0.154715
    20  H    0.160327
    21  C   -0.301534
    22  C   -0.299719
    23  C   -0.475681
    24  H    0.152433
    25  H    0.150271
    26  H    0.152074
    27  H    0.151911
    28  H    0.155192
    29  H    0.155597
    30  H    0.160243
    31  C   -0.297607
    32  C   -0.308654
    33  C   -0.475637
    34  H    0.149804
    35  H    0.149688
    36  H    0.160287
    37  H    0.151229
    38  H    0.155545
    39  H    0.155684
    40  H    0.160459
 Sum of Mulliken charges =  -0.00000

 Dipole moment (field-independent basis, Debye):
    X=             -0.0620    Y=             -0.0156    Z=              0.0036  Tot=              0.0640
 Quadrupole moment (field-independent basis, Debye-Ang):
   XX=            -84.7497   YY=            -86.6714   ZZ=            -83.4810
   XY=             -0.2877   XZ=              0.6501   YZ=              0.1689

 Normal termination of Gaussian 16 at Wed May  5 19:46:12 2021.
