 Gaussian 16, Revision A.03,
 Gaussian 16:  EM64L-G16RevA.03 25-Dec-2016

 -------------
 #p 6-31g* mp2
 -------------

 ------------------------------------------------------
 Input file generated by CHIRIPA (05-May-2021 14:55:25)
 ------------------------------------------------------
 Symbolic Z-matrix:
 Charge =  0 Multiplicity = 1

                         Standard orientation:
 ---------------------------------------------------------------------
 Center     Atomic      Atomic             Coordinates (Angstroms)
 Number     Number       Type             X           Y           Z
 ---------------------------------------------------------------------
      1          6           0        5.872787    1.486683    0.091886
      2          6           0        6.042077    0.107967    0.256213
      3          6           0        4.950888   -0.759271    0.147801
      4          6           0        3.698938   -0.211186   -0.126998
      5          6           0        3.498166    1.157914   -0.295954
      6          6           0        4.603609    2.006340   -0.183188
      7          1           0        6.725986    2.153068    0.177794
      8          1           0        7.026576   -0.298411    0.469907
      9          1           0        5.053620   -1.830641    0.270399
     10          1           0        2.504526    1.533446   -0.508258
     11          1           0        4.469167    3.076649   -0.311290
     12          7           0        2.536200   -1.119334   -0.244074
     13          8           0        1.443568   -0.611509   -0.486777
     14          8           0        2.739495   -2.321770   -0.090917
     15          6           0       -4.303726   -0.214824   -0.062143
     16          6           0       -3.175973    0.146086    0.905277
     17          6           0       -1.829413   -0.448495    0.491705
     18          1           0       -4.388055   -1.308366   -0.125390
     19          1           0       -4.040225    0.137117   -1.069168
     20          1           0       -3.442144   -0.205207    1.910445
     21          1           0       -3.094446    1.238897    0.966375
     22          1           0       -1.537755   -0.088624   -0.500278
     23          1           0       -1.887428   -1.540935    0.449156
     24          1           0       -1.037488   -0.178030    1.197087
     25          6           0       -5.656137    0.372295    0.337861
     26          6           0       -6.783891    0.011384   -0.629559
     27          6           0       -8.130450    0.605966   -0.215987
     28          1           0       -5.919638    0.020354    1.344887
     29          1           0       -5.571808    1.465837    0.401108
     30          1           0       -6.865418   -1.081427   -0.690657
     31          1           0       -6.517719    0.362678   -1.634726
     32          1           0       -8.072435    1.698406   -0.173437
     33          1           0       -8.422109    0.246095    0.775996
     34          1           0       -8.922375    0.335501   -0.921370
 ---------------------------------------------------------------------

 SCF Done:  E(RHF) =  -669.535498679     A.U. after   15 cycles
 E2 =    -0.2090898298D+01 EUMP2 =    -0.67162639697672D+03

 The electronic state is 1-A.
 Alpha  occ. eigenvalues --  -20.60840 -20.60825 -15.85871 -11.31240 -11.27810
 Alpha  occ. eigenvalues --  -11.27806 -11.27554 -11.26827 -11.26817 -11.21070
 Alpha  occ. eigenvalues --  -11.20739 -11.20645 -11.20553 -11.20493 -11.19452
 Alpha  occ. eigenvalues --   -1.59901  -1.39456  -1.19414  -1.08809  -1.07656
 Alpha  occ. eigenvalues --   -1.04817  -1.02663  -0.95649  -0.95065  -0.86218
 Alpha  occ. eigenvalues --   -0.86067  -0.82475  -0.78745  -0.77535  -0.77424
 Alpha  occ. eigenvalues --   -0.72087  -0.71221  -0.70522  -0.65068  -0.64820
 Alpha  occ. eigenvalues --   -0.64300  -0.62164  -0.60069  -0.58509  -0.56687
 Alpha  occ. eigenvalues --   -0.55319  -0.54363  -0.53147  -0.52910  -0.51734
 Alpha  occ. eigenvalues --   -0.51489  -0.49039  -0.48848  -0.48816  -0.47034
 Alpha  occ. eigenvalues --   -0.45810  -0.44967  -0.44908  -0.44853  -0.42878
 Alpha  occ. eigenvalues --   -0.37395  -0.36421
 Alpha virt. eigenvalues --    0.04996   0.11234   0.16477   0.21353   0.23571
 Alpha virt. eigenvalues --    0.25168   0.27269   0.27377   0.28098   0.28222
 Alpha virt. eigenvalues --    0.29043   0.30937   0.32200   0.32391   0.32614

 Mulliken charges:
               1
     1  C   -0.170764
     2  C   -0.218559
     3  C   -0.170747
     4  C    0.157815
     5  C   -0.171000
     6  C   -0.218515
     7  H    0.225767
     8  H    0.223616
     9  H    0.275771
    10  H    0.275652
    11  H    0.223599
    12  N    0.491288
    13  O   -0.460917
    14  O   -0.459859
    15  C   -0.297252
    16  C   -0.302518
    17  C   -0.465280
    18  H    0.149822
    19  H    0.148498
    20  H    0.147409
    21  H    0.145558
    22  H    0.160161
    23  H    0.156277
    24  H    0.159900
    25  C   -0.297246
    26  C   -0.299052
    27  C   -0.475220
    28  H    0.148214
    29  H    0.147335
    30  H    0.151885
    31  H    0.151152
    32  H    0.153927
    33  H    0.154493
    34  H    0.158793
 Sum of Mulliken charges =  -0.00000

 Dipole moment (field-independent basis, Debye):
    X=              4.4015    Y=              3.1265    Z=              0.3538  Tot=              5.4105
 Quadrupole moment (field-independent basis, Debye-Ang):
   XX=            -65.4778   YY=            -92.7011   ZZ=            -95.4684
   XY=              9.2783   XZ=              1.9169   YZ=             -1.8969

 Normal termination of Gaussian 16 at Thu May  6 20:56:12 2021.
