 Gaussian 16, Revision A.03,
 Gaussian 16:  EM64L-G16RevA.03 25-Dec-2016

 -------------
 #p 6-31g* mp2
 -------------

 ------------------------------------------------------
 Input file generated by CHIRIPA (05-May-2021 14:51:10)
 ------------------------------------------------------
 Symbolic Z-matrix:
 Charge =  0 Multiplicity = 1

                         Standard orientation:
 ---------------------------------------------------------------------
 Center     Atomic      Atomic             Coordinates (Angstroms)
 Number     Number       Type             X           Y           Z
 ---------------------------------------------------------------------
      1          6           0       -1.183114    1.542179    0.001506
      2          6           0       -1.085889    3.041586    0.284899
      3          6           0        0.357411    3.545434    0.313488
      4          1           0       -0.616760    0.993435    0.766404
      5          1           0       -0.699124    1.325873   -0.960970
      6          1           0       -1.571136    3.255201    1.245899
      7          1           0       -1.652699    3.586813   -0.480653
      8          1           0        0.848894    3.361111   -0.647277
      9          1           0        0.930921    3.027614    1.089085
     10          1           0        0.403646    4.619699    0.517634
     11          6           0       -2.619684    1.023541   -0.030242
     12          6           0       -2.716909   -0.475866   -0.313634
     13          6           0       -4.160208   -0.979714   -0.342224
     14          1           0       -3.103674    1.239847    0.932235
     15          1           0       -3.186038    1.572285   -0.795140
     16          1           0       -2.150099   -1.021093    0.451918
     17          1           0       -2.231662   -0.689481   -1.274634
     18          1           0       -4.733719   -0.461895   -1.117820
     19          1           0       -4.651692   -0.795391    0.618541
     20          1           0       -4.206443   -2.053979   -0.546370
     21          6           0        2.322077   -0.829100   -0.433476
     22          6           0        3.361090   -0.012512    0.335693
     23          6           0        4.194838    0.890380   -0.573948
     24          1           0        2.832426   -1.439918   -1.190700
     25          1           0        1.658686   -0.144201   -0.979573
     26          1           0        4.021468   -0.698698    0.881280
     27          1           0        2.848226    0.596290    1.091303
     28          1           0        3.552365    1.597748   -1.108231
     29          1           0        4.732272    0.295401   -1.319447
     30          1           0        4.931204    1.464996   -0.003474
     31          6           0        1.480722   -1.736620    0.462211
     32          6           0        0.441707   -2.553208   -0.306957
     33          6           0       -0.392041   -3.456099    0.602683
     34          1           0        2.144112   -2.421518    1.008308
     35          1           0        0.970372   -1.125802    1.219436
     36          1           0        0.954572   -3.162009   -1.062568
     37          1           0       -0.218670   -1.867021   -0.852545
     38          1           0       -0.929475   -2.861122    1.348181
     39          1           0        0.250434   -4.163468    1.136966
     40          1           0       -1.128406   -4.030717    0.032209
 ---------------------------------------------------------------------

 SCF Done:  E(RHF) =  -470.731398015     A.U. after   11 cycles
 E2 =    -0.1586684248D+01 EUMP2 =    -0.47231808226322D+03

 The electronic state is 1-A.
 Alpha  occ. eigenvalues --  -11.21699 -11.21614 -11.21532 -11.21507 -11.21433
 Alpha  occ. eigenvalues --  -11.21407 -11.21308 -11.21247 -11.21169 -11.21102
 Alpha  occ. eigenvalues --  -11.21023 -11.21005  -1.08565  -1.08304  -1.03657
 Alpha  occ. eigenvalues --   -1.03405  -0.96082  -0.95887  -0.87076  -0.86924
 Alpha  occ. eigenvalues --   -0.79754  -0.79468  -0.78436  -0.78105  -0.65255
 Alpha  occ. eigenvalues --   -0.64894  -0.61158  -0.60830  -0.59404  -0.59223
 Alpha  occ. eigenvalues --   -0.57733  -0.57494  -0.55405  -0.55137  -0.52747
 Alpha  occ. eigenvalues --   -0.52604  -0.52513  -0.52272  -0.50147  -0.49720
 Alpha  occ. eigenvalues --   -0.48252  -0.47622  -0.46877  -0.46441  -0.46231
 Alpha  occ. eigenvalues --   -0.46061  -0.45380  -0.45066  -0.43861  -0.43684
 Alpha virt. eigenvalues --    0.19669   0.21721   0.23520   0.23924   0.25055
 Alpha virt. eigenvalues --    0.25946   0.26516   0.27889   0.29169   0.29477
 Alpha virt. eigenvalues --    0.30849   0.31420   0.31671   0.32004   0.32100

 Mulliken charges:
               1
     1  C   -0.304712
     2  C   -0.299552
     3  C   -0.477766
     4  H    0.153346
     5  H    0.150941
     6  H    0.152342
     7  H    0.152462
     8  H    0.155517
     9  H    0.156409
    10  H    0.161072
    11  C   -0.297328
    12  C   -0.308323
    13  C   -0.474961
    14  H    0.149509
    15  H    0.149746
    16  H    0.160673
    17  H    0.153154
    18  H    0.155093
    19  H    0.155040
    20  H    0.160827
    21  C   -0.301373
    22  C   -0.300191
    23  C   -0.476202
    24  H    0.149067
    25  H    0.153409
    26  H    0.151513
    27  H    0.152179
    28  H    0.155948
    29  H    0.154717
    30  H    0.160060
    31  C   -0.299099
    32  C   -0.307880
    33  C   -0.476922
    34  H    0.149124
    35  H    0.149354
    36  H    0.151265
    37  H    0.161789
    38  H    0.154410
    39  H    0.155438
    40  H    0.159905
 Sum of Mulliken charges =  -0.00000

 Dipole moment (field-independent basis, Debye):
    X=             -0.0692    Y=              0.0425    Z=             -0.0129  Tot=              0.0822
 Quadrupole moment (field-independent basis, Debye-Ang):
   XX=            -85.8570   YY=            -84.9940   ZZ=            -84.0395
   XY=             -1.4325   XZ=              0.2664   YZ=              0.2812

 Normal termination of Gaussian 16 at Wed May  5 19:49:21 2021.
