 Gaussian 16, Revision A.03,
 Gaussian 16:  EM64L-G16RevA.03 25-Dec-2016

 -------------
 #p 6-31g* mp2
 -------------

 ------------------------------------------------------
 Input file generated by CHIRIPA (05-May-2021 14:51:13)
 ------------------------------------------------------
 Symbolic Z-matrix:
 Charge =  0 Multiplicity = 1

                         Standard orientation:
 ---------------------------------------------------------------------
 Center     Atomic      Atomic             Coordinates (Angstroms)
 Number     Number       Type             X           Y           Z
 ---------------------------------------------------------------------
      1          6           0       -2.372880   -0.043510   -0.819860
      2          6           0       -3.477068   -1.093702   -0.693959
      3          6           0       -3.319493   -2.239911   -1.693543
      4          1           0       -2.371977    0.357553   -1.842647
      5          1           0       -1.397481   -0.527723   -0.673131
      6          1           0       -4.450176   -0.607399   -0.839510
      7          1           0       -3.475467   -1.492173    0.328701
      8          1           0       -2.362758   -2.751188   -1.545714
      9          1           0       -3.343005   -1.861387   -2.720562
     10          1           0       -4.119377   -2.979160   -1.586041
     11          6           0       -2.516682    1.108735    0.172804
     12          6           0       -1.412495    2.158927    0.046903
     13          6           0       -1.570069    3.305136    1.046488
     14          1           0       -3.492081    1.592948    0.026075
     15          1           0       -2.517586    0.707672    1.195591
     16          1           0       -1.414095    2.557398   -0.975757
     17          1           0       -0.439386    1.672624    0.192454
     18          1           0       -1.546558    2.926612    2.073507
     19          1           0       -2.526805    3.816413    0.898658
     20          1           0       -0.770185    4.044385    0.938985
     21          6           0        2.108118   -1.140024    0.641554
     22          6           0        1.228498   -0.786815    1.841344
     23          6           0        0.561825   -2.012449    2.466775
     24          1           0        1.497629   -1.652837   -0.114269
     25          1           0        2.878938   -1.855894    0.958984
     26          1           0        0.460420   -0.070764    1.522059
     27          1           0        1.841110   -0.274612    2.594319
     28          1           0        1.315975   -2.726815    2.812521
     29          1           0       -0.072560   -2.521808    1.734169
     30          1           0       -0.062227   -1.737067    3.322686
     31          6           0        2.781444    0.074799    0.005501
     32          6           0        3.661065   -0.278410   -1.194289
     33          6           0        4.327737    0.947224   -1.819719
     34          1           0        2.010624    0.790669   -0.311928
     35          1           0        3.391934    0.587613    0.761324
     36          1           0        3.048453   -0.790612   -1.947263
     37          1           0        4.429143   -0.994461   -0.875003
     38          1           0        4.962123    1.456583   -1.087113
     39          1           0        3.573587    1.661590   -2.165465
     40          1           0        4.951789    0.671843   -2.675630
 ---------------------------------------------------------------------

 SCF Done:  E(RHF) =  -470.733094601     A.U. after   11 cycles
 E2 =    -0.1584415173D+01 EUMP2 =    -0.47231750977479D+03

 The electronic state is 1-A.
 Alpha  occ. eigenvalues --  -11.21648 -11.21642 -11.21631 -11.21617 -11.21461
 Alpha  occ. eigenvalues --  -11.21451 -11.21400 -11.21386 -11.21144 -11.21114
 Alpha  occ. eigenvalues --  -11.21094 -11.21076  -1.08523  -1.08438  -1.03587
 Alpha  occ. eigenvalues --   -1.03556  -0.96026  -0.96012  -0.87043  -0.87029
 Alpha  occ. eigenvalues --   -0.79673  -0.79609  -0.78374  -0.78218  -0.65452
 Alpha  occ. eigenvalues --   -0.64816  -0.61059  -0.60881  -0.59405  -0.59366
 Alpha  occ. eigenvalues --   -0.57646  -0.57614  -0.55343  -0.55270  -0.52726
 Alpha  occ. eigenvalues --   -0.52699  -0.52451  -0.52437  -0.49998  -0.49944
 Alpha  occ. eigenvalues --   -0.48024  -0.47937  -0.46875  -0.46602  -0.46138
 Alpha  occ. eigenvalues --   -0.45805  -0.45765  -0.45220  -0.43830  -0.43819
 Alpha virt. eigenvalues --    0.18935   0.22827   0.23176   0.24783   0.25319
 Alpha virt. eigenvalues --    0.26644   0.27154   0.27841   0.28358   0.29883
 Alpha virt. eigenvalues --    0.30797   0.31523   0.31707   0.31805   0.32510

 Mulliken charges:
               1
     1  C   -0.301213
     2  C   -0.299893
     3  C   -0.475641
     4  H    0.149799
     5  H    0.151025
     6  H    0.152228
     7  H    0.152610
     8  H    0.154581
     9  H    0.155269
    10  H    0.160630
    11  C   -0.298608
    12  C   -0.310220
    13  C   -0.475379
    14  H    0.150186
    15  H    0.150342
    16  H    0.152131
    17  H    0.160488
    18  H    0.155464
    19  H    0.155364
    20  H    0.160530
    21  C   -0.298804
    22  C   -0.308328
    23  C   -0.475695
    24  H    0.149722
    25  H    0.150041
    26  H    0.159981
    27  H    0.152372
    28  H    0.155763
    29  H    0.154829
    30  H    0.160111
    31  C   -0.303831
    32  C   -0.299457
    33  C   -0.475849
    34  H    0.154449
    35  H    0.149788
    36  H    0.152226
    37  H    0.151994
    38  H    0.155138
    39  H    0.155532
    40  H    0.160326
 Sum of Mulliken charges =  -0.00000

 Dipole moment (field-independent basis, Debye):
    X=             -0.0010    Y=              0.0118    Z=              0.0034  Tot=              0.0123
 Quadrupole moment (field-independent basis, Debye-Ang):
   XX=            -84.0265   YY=            -85.9317   ZZ=            -84.6628
   XY=             -0.8398   XZ=              1.1933   YZ=             -0.5677

 Normal termination of Gaussian 16 at Wed May  5 16:52:39 2021.
