 Gaussian 16, Revision A.03,
 Gaussian 16:  EM64L-G16RevA.03 25-Dec-2016

 -------------
 #p 6-31g* mp2
 -------------

 ------------------------------------------------------
 Input file generated by CHIRIPA (05-May-2021 14:57:24)
 ------------------------------------------------------
 Symbolic Z-matrix:
 Charge =  0 Multiplicity = 1

                         Standard orientation:
 ---------------------------------------------------------------------
 Center     Atomic      Atomic             Coordinates (Angstroms)
 Number     Number       Type             X           Y           Z
 ---------------------------------------------------------------------
      1          6           0        5.588852    1.672943   -0.031078
      2          6           0        4.258398    2.098307    0.042942
      3          6           0        3.213752    1.169444    0.021102
      4          6           0        3.537144   -0.183066   -0.075981
      5          6           0        4.852652   -0.638091   -0.151351
      6          6           0        5.881217    0.308507   -0.127818
      7          1           0        6.394112    2.401395   -0.013454
      8          1           0        4.028374    3.157306    0.118136
      9          1           0        2.174886    1.471194    0.076975
     10          1           0        5.050667   -1.700490   -0.225627
     11          1           0        6.913535   -0.024724   -0.185453
     12          7           0        2.439737   -1.175799   -0.099999
     13          8           0        2.751058   -2.361675   -0.186103
     14          8           0        1.289046   -0.749230   -0.032264
     15          6           0       -4.879219    2.241439   -0.211325
     16          6           0       -5.497690    1.067079   -0.652790
     17          6           0       -4.863602   -0.169620   -0.500945
     18          6           0       -3.605750   -0.195362    0.099415
     19          6           0       -2.963690    0.957227    0.549515
     20          6           0       -3.616419    2.182868    0.387363
     21          1           0       -5.379034    3.197843   -0.333286
     22          1           0       -6.478368    1.109549   -1.118097
     23          1           0       -5.319582   -1.094174   -0.833661
     24          1           0       -1.985803    0.883105    1.009582
     25          1           0       -3.133715    3.093278    0.731158
     26          7           0       -2.924601   -1.498747    0.265624
     27          8           0       -1.816682   -1.494592    0.797728
     28          8           0       -3.511535   -2.499816   -0.139354
 ---------------------------------------------------------------------

 SCF Done:  E(RHF) =  -868.334955300     A.U. after   16 cycles
 E2 =    -0.2600575494D+01 EUMP2 =    -0.87093553079375D+03

 The electronic state is 1-A.
 Alpha  occ. eigenvalues --  -20.60113 -20.60083 -20.59679 -20.59533 -15.85169
 Alpha  occ. eigenvalues --  -15.84657 -11.30866 -11.30433 -11.27513 -11.27448
 Alpha  occ. eigenvalues --  -11.27267 -11.27070 -11.27038 -11.26909 -11.26583
 Alpha  occ. eigenvalues --  -11.26535 -11.26189 -11.26172  -1.59169  -1.58679
 Alpha  occ. eigenvalues --   -1.38719  -1.38215  -1.19067  -1.18655  -1.08396
 Alpha  occ. eigenvalues --   -1.07981  -1.04524  -1.04123  -0.95176  -0.94739
 Alpha  occ. eigenvalues --   -0.85905  -0.85500  -0.82016  -0.81565  -0.77016
 Alpha  occ. eigenvalues --   -0.76536  -0.71412  -0.70818  -0.70515  -0.70178
 Alpha  occ. eigenvalues --   -0.70008  -0.69764  -0.64713  -0.64532  -0.64295
 Alpha  occ. eigenvalues --   -0.64141  -0.61876  -0.61462  -0.55007  -0.54627
 Alpha  occ. eigenvalues --   -0.52829  -0.52625  -0.52429  -0.52225  -0.48143
 Alpha  occ. eigenvalues --   -0.48116  -0.47658  -0.47601  -0.44053  -0.43504
 Alpha  occ. eigenvalues --   -0.37060  -0.36666  -0.36142  -0.35746
 Alpha virt. eigenvalues --    0.05540   0.06003   0.11508   0.11905   0.16975
 Alpha virt. eigenvalues --    0.17407   0.21513   0.21985   0.27305   0.27781
 Alpha virt. eigenvalues --    0.28339   0.29047   0.30915   0.31570   0.32502

 Mulliken charges:
               1
     1  C   -0.171794
     2  C   -0.218136
     3  C   -0.170835
     4  C    0.159853
     5  C   -0.171083
     6  C   -0.218269
     7  H    0.224039
     8  H    0.220357
     9  H    0.270645
    10  H    0.276466
    11  H    0.222754
    12  N    0.487868
    13  O   -0.458509
    14  O   -0.453197
    15  C   -0.172052
    16  C   -0.218777
    17  C   -0.171483
    18  C    0.159289
    19  C   -0.170720
    20  C   -0.219119
    21  H    0.222098
    22  H    0.220887
    23  H    0.274906
    24  H    0.279293
    25  H    0.218481
    26  N    0.486741
    27  O   -0.443348
    28  O   -0.466356
 Sum of Mulliken charges =  -0.00000

 Dipole moment (field-independent basis, Debye):
    X=              1.6220    Y=              7.8289    Z=             -0.4432  Tot=              8.0074
 Quadrupole moment (field-independent basis, Debye-Ang):
   XX=            -57.4187   YY=           -105.3491   ZZ=           -105.6707
   XY=             -5.2373   XZ=              3.5160   YZ=              1.6594

 Normal termination of Gaussian 16 at Thu May  6 08:15:48 2021.
