 Gaussian 16, Revision A.03,
 Gaussian 16:  EM64L-G16RevA.03 25-Dec-2016

 -------------
 #p 6-31g* mp2
 -------------

 ------------------------------------------------------
 Input file generated by CHIRIPA (05-May-2021 14:51:13)
 ------------------------------------------------------
 Symbolic Z-matrix:
 Charge =  0 Multiplicity = 1

                         Standard orientation:
 ---------------------------------------------------------------------
 Center     Atomic      Atomic             Coordinates (Angstroms)
 Number     Number       Type             X           Y           Z
 ---------------------------------------------------------------------
      1          6           0       -5.259666    0.007961    0.342695
      2          6           0       -6.593538   -0.496341   -0.209076
      3          6           0       -7.796762    0.060737    0.552312
      4          1           0       -5.182333   -0.265243    1.403979
      5          1           0       -5.245030    1.105876    0.300701
      6          1           0       -6.605101   -1.593036   -0.167336
      7          1           0       -6.667621   -0.222071   -1.269219
      8          1           0       -7.813076    1.154177    0.500118
      9          1           0       -7.750200   -0.224578    1.608261
     10          1           0       -8.739892   -0.312639    0.141270
     11          6           0       -4.047401   -0.540182   -0.408090
     12          6           0       -2.713529   -0.035880    0.143681
     13          6           0       -1.510305   -0.592958   -0.617707
     14          1           0       -4.062037   -1.638097   -0.366096
     15          1           0       -4.124734   -0.266977   -1.469374
     16          1           0       -2.639446   -0.310150    1.203824
     17          1           0       -2.701966    1.060815    0.101941
     18          1           0       -1.556867   -0.307643   -1.673656
     19          1           0       -1.493991   -1.686398   -0.565513
     20          1           0       -0.567175   -0.219582   -0.206665
     21          6           0        5.238567    0.006561    0.449592
     22          6           0        6.260438   -0.785615   -0.366632
     23          6           0        7.424902   -1.298243    0.481326
     24          1           0        5.742904    0.854314    0.933230
     25          1           0        4.852484   -0.629907    1.257827
     26          1           0        6.643458   -0.148290   -1.173929
     27          1           0        5.753574   -1.631470   -0.848537
     28          1           0        7.061370   -1.955569    1.277798
     29          1           0        7.956312   -0.463961    0.950558
     30          1           0        8.143399   -1.861714   -0.122100
     31          6           0        4.068500    0.525660   -0.384198
     32          6           0        3.046629    1.317835    0.432027
     33          6           0        1.882165    1.830464   -0.415931
     34          1           0        4.454583    1.162128   -1.192432
     35          1           0        3.564164   -0.322093   -0.867835
     36          1           0        3.553494    2.163691    0.913932
     37          1           0        2.663609    0.680510    1.239323
     38          1           0        1.350756    0.996182   -0.885163
     39          1           0        2.245696    2.487789   -1.212403
     40          1           0        1.163669    2.393934    0.187496
 ---------------------------------------------------------------------

 SCF Done:  E(RHF) =  -470.733161889     A.U. after   11 cycles
 E2 =    -0.1582232185D+01 EUMP2 =    -0.47231539407469D+03

 The electronic state is 1-A.
 Alpha  occ. eigenvalues --  -11.21597 -11.21594 -11.21592 -11.21585 -11.21395
 Alpha  occ. eigenvalues --  -11.21393 -11.21335 -11.21333 -11.21065 -11.21064
 Alpha  occ. eigenvalues --  -11.21032 -11.21027  -1.08425  -1.08413  -1.03540
 Alpha  occ. eigenvalues --   -1.03498  -0.96016  -0.95924  -0.87055  -0.86921
 Alpha  occ. eigenvalues --   -0.79626  -0.79539  -0.78236  -0.78226  -0.65062
 Alpha  occ. eigenvalues --   -0.65042  -0.60980  -0.60897  -0.59370  -0.59308
 Alpha  occ. eigenvalues --   -0.57615  -0.57556  -0.55322  -0.55204  -0.52776
 Alpha  occ. eigenvalues --   -0.52617  -0.52409  -0.52308  -0.49957  -0.49830
 Alpha  occ. eigenvalues --   -0.47942  -0.47848  -0.46642  -0.46577  -0.45775
 Alpha  occ. eigenvalues --   -0.45772  -0.45703  -0.45692  -0.43786  -0.43727
 Alpha virt. eigenvalues --    0.21896   0.23007   0.23582   0.24985   0.26503
 Alpha virt. eigenvalues --    0.26660   0.27291   0.27436   0.27643   0.28913
 Alpha virt. eigenvalues --    0.30750   0.31343   0.31630   0.31912   0.32041

 Mulliken charges:
               1
     1  C   -0.298260
     2  C   -0.299629
     3  C   -0.475696
     4  H    0.149565
     5  H    0.149559
     6  H    0.151878
     7  H    0.151959
     8  H    0.155192
     9  H    0.155144
    10  H    0.160224
    11  C   -0.298482
    12  C   -0.299132
    13  C   -0.481685
    14  H    0.149398
    15  H    0.149705
    16  H    0.151615
    17  H    0.152268
    18  H    0.155034
    19  H    0.154443
    20  H    0.167097
    21  C   -0.298298
    22  C   -0.299675
    23  C   -0.475703
    24  H    0.149604
    25  H    0.149511
    26  H    0.151916
    27  H    0.152040
    28  H    0.155170
    29  H    0.155147
    30  H    0.160240
    31  C   -0.298390
    32  C   -0.300251
    33  C   -0.480780
    34  H    0.149550
    35  H    0.150034
    36  H    0.152070
    37  H    0.151720
    38  H    0.160765
    39  H    0.155247
    40  H    0.159887
 Sum of Mulliken charges =  -0.00000

 Dipole moment (field-independent basis, Debye):
    X=              0.0058    Y=              0.0034    Z=             -0.0067  Tot=              0.0095
 Quadrupole moment (field-independent basis, Debye-Ang):
   XX=            -86.3606   YY=            -83.7160   ZZ=            -84.7811
   XY=              1.0916   XZ=             -0.0920   YZ=             -0.6396

 Normal termination of Gaussian 16 at Wed May  5 23:11:22 2021.
