 Gaussian 16, Revision A.03,
 Gaussian 16:  EM64L-G16RevA.03 25-Dec-2016

 -------------
 #p 6-31g* mp2
 -------------

 ------------------------------------------------------
 Input file generated by CHIRIPA (05-May-2021 14:55:25)
 ------------------------------------------------------
 Symbolic Z-matrix:
 Charge =  0 Multiplicity = 1

                         Standard orientation:
 ---------------------------------------------------------------------
 Center     Atomic      Atomic             Coordinates (Angstroms)
 Number     Number       Type             X           Y           Z
 ---------------------------------------------------------------------
      1          6           0       -3.930031   -2.083671    0.146241
      2          6           0       -4.316671   -0.891707    0.767732
      3          6           0       -3.648049    0.303931    0.488548
      4          6           0       -2.592439    0.271108   -0.421341
      5          6           0       -2.183629   -0.900383   -1.056773
      6          6           0       -2.866619   -2.084204   -0.762426
      7          1           0       -4.455014   -3.007882    0.369007
      8          1           0       -5.142171   -0.888306    1.473837
      9          1           0       -3.926557    1.240910    0.955370
     10          1           0       -1.356936   -0.872302   -1.756207
     11          1           0       -2.564168   -3.008411   -1.246585
     12          7           0       -1.876993    1.530621   -0.724927
     13          8           0       -0.950202    1.475134   -1.530294
     14          8           0       -2.256565    2.549466   -0.151762
     15          6           0        2.745887    0.163649    0.462225
     16          6           0        2.043748    0.053095    1.816021
     17          6           0        0.597348    0.547002    1.773864
     18          1           0        2.723914    1.210380    0.129333
     19          1           0        2.181980   -0.413463   -0.283660
     20          1           0        2.609574    0.629112    2.559433
     21          1           0        2.067563   -0.993462    2.145819
     22          1           0        0.012732   -0.033972    1.053242
     23          1           0        0.557823    1.597822    1.469207
     24          1           0        0.114391    0.458977    2.752059
     25          6           0        4.192616   -0.326274    0.488319
     26          6           0        4.894755   -0.215719   -0.865476
     27          6           0        6.341155   -0.709626   -0.823319
     28          1           0        4.756523    0.250839    1.234205
     29          1           0        4.214588   -1.373004    0.821212
     30          1           0        4.870940    0.830838   -1.195274
     31          1           0        4.328929   -0.791737   -1.608888
     32          1           0        6.380681   -1.760446   -0.518662
     33          1           0        6.925770   -0.128653   -0.102697
     34          1           0        6.824111   -0.621601   -1.801514
 ---------------------------------------------------------------------

 SCF Done:  E(RHF) =  -669.535428803     A.U. after   15 cycles
 E2 =    -0.2092894612D+01 EUMP2 =    -0.67162832341514D+03

 The electronic state is 1-A.
 Alpha  occ. eigenvalues --  -20.60790 -20.60778 -15.85813 -11.31196 -11.27772
 Alpha  occ. eigenvalues --  -11.27758 -11.27516 -11.26806 -11.26790 -11.21220
 Alpha  occ. eigenvalues --  -11.21169 -11.20979 -11.20810 -11.20779 -11.20550
 Alpha  occ. eigenvalues --   -1.59844  -1.39400  -1.19382  -1.08772  -1.07985
 Alpha  occ. eigenvalues --   -1.04787  -1.03118  -0.95603  -0.95568  -0.86594
 Alpha  occ. eigenvalues --   -0.86182  -0.82438  -0.79200  -0.77782  -0.77478
 Alpha  occ. eigenvalues --   -0.72047  -0.71160  -0.70486  -0.65034  -0.64791
 Alpha  occ. eigenvalues --   -0.64622  -0.62134  -0.60527  -0.58928  -0.57170
 Alpha  occ. eigenvalues --   -0.55286  -0.54893  -0.53127  -0.52878  -0.52271
 Alpha  occ. eigenvalues --   -0.51964  -0.49498  -0.48815  -0.48801  -0.47500
 Alpha  occ. eigenvalues --   -0.46227  -0.45356  -0.45248  -0.44738  -0.43360
 Alpha  occ. eigenvalues --   -0.37319  -0.36385
 Alpha virt. eigenvalues --    0.05036   0.11184   0.16528   0.21337   0.23258
 Alpha virt. eigenvalues --    0.24655   0.26732   0.27415   0.27730   0.28274
 Alpha virt. eigenvalues --    0.28528   0.30904   0.31603   0.32185   0.32315

 Mulliken charges:
               1
     1  C   -0.170945
     2  C   -0.218234
     3  C   -0.170906
     4  C    0.159652
     5  C   -0.173850
     6  C   -0.217859
     7  H    0.225637
     8  H    0.223582
     9  H    0.275872
    10  H    0.275524
    11  H    0.223482
    12  N    0.492559
    13  O   -0.460143
    14  O   -0.460297
    15  C   -0.297041
    16  C   -0.299309
    17  C   -0.482594
    18  H    0.158169
    19  H    0.147620
    20  H    0.151499
    21  H    0.147177
    22  H    0.149516
    23  H    0.169426
    24  H    0.155931
    25  C   -0.298352
    26  C   -0.299101
    27  C   -0.475458
    28  H    0.148928
    29  H    0.146202
    30  H    0.154830
    31  H    0.150633
    32  H    0.153256
    33  H    0.154963
    34  H    0.159628
 Sum of Mulliken charges =  -0.00000

 Dipole moment (field-independent basis, Debye):
    X=             -2.6125    Y=             -4.2950    Z=              1.0102  Tot=              5.1276
 Quadrupole moment (field-independent basis, Debye-Ang):
   XX=            -81.6018   YY=            -95.5485   ZZ=            -94.3836
   XY=             10.3133   XZ=             -3.9129   YZ=              4.2605

 Normal termination of Gaussian 16 at Thu May  6 00:03:33 2021.
