 Gaussian 16, Revision A.03,
 Gaussian 16:  EM64L-G16RevA.03 25-Dec-2016

 -------------
 #p 6-31g* mp2
 -------------

 ------------------------------------------------------
 Input file generated by CHIRIPA (05-May-2021 14:51:13)
 ------------------------------------------------------
 Symbolic Z-matrix:
 Charge =  0 Multiplicity = 1

                         Standard orientation:
 ---------------------------------------------------------------------
 Center     Atomic      Atomic             Coordinates (Angstroms)
 Number     Number       Type             X           Y           Z
 ---------------------------------------------------------------------
      1          6           0       -1.723340   -1.077121    0.521370
      2          6           0       -1.126469   -1.138287    1.927780
      3          6           0       -0.364806   -2.437719    2.190722
      4          1           0       -2.396186   -1.933652    0.377921
      5          1           0       -0.916730   -1.186220   -0.216785
      6          1           0       -1.933792   -1.027718    2.663048
      7          1           0       -0.455113   -0.281406    2.067964
      8          1           0        0.459846   -2.551523    1.479666
      9          1           0       -1.027235   -3.302076    2.078131
     10          1           0        0.053512   -2.460307    3.201840
     11          6           0       -2.487832    0.215945    0.243413
     12          6           0       -3.084703    0.277110   -1.162997
     13          6           0       -3.846366    1.576543   -1.425939
     14          1           0       -3.294442    0.325043    0.981567
     15          1           0       -1.814986    1.072475    0.386862
     16          1           0       -3.756059   -0.579771   -1.303182
     17          1           0       -2.277380    0.166542   -1.898266
     18          1           0       -3.183937    2.440899   -1.313349
     19          1           0       -4.671018    1.690346   -0.714884
     20          1           0       -4.264684    1.599131   -2.437057
     21          6           0        1.957671    1.179953   -0.384774
     22          6           0        2.201130    1.850377    0.967722
     23          6           0        1.900816    3.349435    0.947026
     24          1           0        2.579566    1.669459   -1.146731
     25          1           0        0.912598    1.341394   -0.683359
     26          1           0        3.245067    1.686538    1.264316
     27          1           0        1.578727    1.359093    1.726583
     28          1           0        0.855494    3.529203    0.675756
     29          1           0        2.531303    3.858507    0.210864
     30          1           0        2.081590    3.808618    1.923925
     31          6           0        2.253501   -0.318777   -0.380009
     32          6           0        2.010042   -0.989200   -1.732504
     33          6           0        2.310356   -2.488259   -1.711808
     34          1           0        3.298575   -0.480218   -0.081424
     35          1           0        1.631606   -0.808282    0.381947
     36          1           0        2.632446   -0.497916   -2.491365
     37          1           0        0.966105   -0.825360   -2.029100
     38          1           0        1.679870   -2.997331   -0.975647
     39          1           0        3.355678   -2.668026   -1.440538
     40          1           0        2.129582   -2.947441   -2.688707
 ---------------------------------------------------------------------

 SCF Done:  E(RHF) =  -470.732369024     A.U. after   11 cycles
 E2 =    -0.1586432727D+01 EUMP2 =    -0.47231880175153D+03

 The electronic state is 1-A.
 Alpha  occ. eigenvalues --  -11.21682 -11.21669 -11.21665 -11.21664 -11.21476
 Alpha  occ. eigenvalues --  -11.21456 -11.21415 -11.21380 -11.21135 -11.21126
 Alpha  occ. eigenvalues --  -11.21123 -11.21118  -1.08597  -1.08417  -1.03628
 Alpha  occ. eigenvalues --   -1.03576  -0.96053  -0.96036  -0.87072  -0.87052
 Alpha  occ. eigenvalues --   -0.79716  -0.79609  -0.78331  -0.78320  -0.65811
 Alpha  occ. eigenvalues --   -0.64545  -0.61143  -0.60872  -0.59466  -0.59353
 Alpha  occ. eigenvalues --   -0.57667  -0.57640  -0.55371  -0.55321  -0.52745
 Alpha  occ. eigenvalues --   -0.52726  -0.52482  -0.52460  -0.50058  -0.49965
 Alpha  occ. eigenvalues --   -0.48075  -0.47966  -0.46919  -0.46451  -0.46136
 Alpha  occ. eigenvalues --   -0.45771  -0.45696  -0.45460  -0.43855  -0.43837
 Alpha virt. eigenvalues --    0.18164   0.21598   0.22489   0.24385   0.25459
 Alpha virt. eigenvalues --    0.26133   0.27194   0.27952   0.28866   0.29768
 Alpha virt. eigenvalues --    0.30961   0.31037   0.31707   0.31755   0.32233

 Mulliken charges:
               1
     1  C   -0.304912
     2  C   -0.306306
     3  C   -0.482024
     4  H    0.150269
     5  H    0.156278
     6  H    0.153401
     7  H    0.156195
     8  H    0.159959
     9  H    0.155941
    10  H    0.161037
    11  C   -0.299793
    12  C   -0.300596
    13  C   -0.475658
    14  H    0.150147
    15  H    0.150336
    16  H    0.152445
    17  H    0.151939
    18  H    0.155096
    19  H    0.155432
    20  H    0.160617
    21  C   -0.299976
    22  C   -0.304378
    23  C   -0.475633
    24  H    0.150250
    25  H    0.150780
    26  H    0.152577
    27  H    0.155534
    28  H    0.154717
    29  H    0.155532
    30  H    0.160662
    31  C   -0.308388
    32  C   -0.302204
    33  C   -0.479318
    34  H    0.150154
    35  H    0.159949
    36  H    0.152803
    37  H    0.152711
    38  H    0.157838
    39  H    0.155715
    40  H    0.160874
 Sum of Mulliken charges =  -0.00000

 Dipole moment (field-independent basis, Debye):
    X=              0.0022    Y=             -0.0136    Z=              0.0100  Tot=              0.0170
 Quadrupole moment (field-independent basis, Debye-Ang):
   XX=            -83.3459   YY=            -86.4888   ZZ=            -84.7012
   XY=              1.2733   XZ=             -0.7212   YZ=             -0.0545

 Normal termination of Gaussian 16 at Wed May  5 23:13:17 2021.
