 Gaussian 16, Revision A.03,
 Gaussian 16:  EM64L-G16RevA.03 25-Dec-2016

 -------------
 #p 6-31g* mp2
 -------------

 ------------------------------------------------------
 Input file generated by CHIRIPA (05-May-2021 14:51:10)
 ------------------------------------------------------
 Symbolic Z-matrix:
 Charge =  0 Multiplicity = 1

                         Standard orientation:
 ---------------------------------------------------------------------
 Center     Atomic      Atomic             Coordinates (Angstroms)
 Number     Number       Type             X           Y           Z
 ---------------------------------------------------------------------
      1          6           0        2.156482   -0.150023    0.654802
      2          6           0        1.972089   -0.826609    2.013557
      3          6           0        0.532968   -0.745934    2.523670
      4          1           0        1.851839    0.902666    0.732152
      5          1           0        1.481113   -0.618071   -0.074720
      6          1           0        2.648601   -0.358349    2.739972
      7          1           0        2.277388   -1.877761    1.933011
      8          1           0       -0.152606   -1.230292    1.820828
      9          1           0        0.220716    0.297754    2.632375
     10          1           0        0.423724   -1.235796    3.496275
     11          6           0        3.589917   -0.222346    0.131578
     12          6           0        3.774310    0.454241   -1.227177
     13          6           0        5.213431    0.373565   -1.737290
     14          1           0        4.265286    0.245702    0.861100
     15          1           0        3.894560   -1.275035    0.054227
     16          1           0        3.469011    1.505393   -1.146631
     17          1           0        3.097798   -0.014020   -1.953593
     18          1           0        5.525683   -0.670122   -1.845995
     19          1           0        5.899005    0.857924   -1.034449
     20          1           0        5.322675    0.863427   -2.709896
     21          6           0       -2.831362    0.911131   -0.630117
     22          6           0       -2.688807    1.915652    0.513824
     23          6           0       -2.606350    3.361678    0.023921
     24          1           0       -1.978286    1.020087   -1.313735
     25          1           0       -3.731242    1.153972   -1.212043
     26          1           0       -1.790222    1.670153    1.094247
     27          1           0       -3.542224    1.804160    1.194902
     28          1           0       -3.507104    3.630188   -0.537456
     29          1           0       -1.745148    3.495420   -0.638683
     30          1           0       -2.504789    4.062972    0.858027
     31          6           0       -2.915037   -0.538762   -0.156263
     32          6           0       -3.057592   -1.543284   -1.300203
     33          6           0       -3.140049   -2.989309   -0.810301
     34          1           0       -2.015157   -0.781604    0.425664
     35          1           0       -3.768114   -0.647719    0.527356
     36          1           0       -2.204175   -1.431791   -1.981281
     37          1           0       -3.956178   -1.297785   -1.880626
     38          1           0       -4.001252   -3.123052   -0.147697
     39          1           0       -2.239295   -3.257821   -0.248924
     40          1           0       -3.241610   -3.690603   -1.644406
 ---------------------------------------------------------------------

 SCF Done:  E(RHF) =  -470.733242086     A.U. after   11 cycles
 E2 =    -0.1583374097D+01 EUMP2 =    -0.47231661618345D+03

 The electronic state is 1-A.
 Alpha  occ. eigenvalues --  -11.21674 -11.21652 -11.21585 -11.21542 -11.21480
 Alpha  occ. eigenvalues --  -11.21415 -11.21346 -11.21282 -11.21145 -11.21108
 Alpha  occ. eigenvalues --  -11.21079 -11.21039  -1.08500  -1.08387  -1.03595
 Alpha  occ. eigenvalues --   -1.03501  -0.96049  -0.95948  -0.87065  -0.86965
 Alpha  occ. eigenvalues --   -0.79666  -0.79560  -0.78340  -0.78169  -0.65151
 Alpha  occ. eigenvalues --   -0.65011  -0.61045  -0.60853  -0.59411  -0.59318
 Alpha  occ. eigenvalues --   -0.57683  -0.57543  -0.55395  -0.55189  -0.52733
 Alpha  occ. eigenvalues --   -0.52662  -0.52497  -0.52355  -0.50075  -0.49826
 Alpha  occ. eigenvalues --   -0.48036  -0.47885  -0.46799  -0.46496  -0.46016
 Alpha  occ. eigenvalues --   -0.45774  -0.45712  -0.45372  -0.43848  -0.43748
 Alpha virt. eigenvalues --    0.20420   0.23220   0.23425   0.24209   0.25837
 Alpha virt. eigenvalues --    0.26332   0.26959   0.27766   0.28116   0.28980
 Alpha virt. eigenvalues --    0.30399   0.31594   0.31836   0.31923   0.32475

 Mulliken charges:
               1
     1  C   -0.298653
     2  C   -0.299655
     3  C   -0.483365
     4  H    0.149612
     5  H    0.148829
     6  H    0.152355
     7  H    0.152200
     8  H    0.160421
     9  H    0.157264
    10  H    0.161240
    11  C   -0.298296
    12  C   -0.299727
    13  C   -0.475757
    14  H    0.149863
    15  H    0.149896
    16  H    0.151991
    17  H    0.151812
    18  H    0.155293
    19  H    0.155316
    20  H    0.160428
    21  C   -0.297502
    22  C   -0.302801
    23  C   -0.475722
    24  H    0.149641
    25  H    0.149207
    26  H    0.155252
    27  H    0.151787
    28  H    0.155109
    29  H    0.155060
    30  H    0.159835
    31  C   -0.307170
    32  C   -0.299197
    33  C   -0.475643
    34  H    0.158434
    35  H    0.149517
    36  H    0.151279
    37  H    0.151995
    38  H    0.155521
    39  H    0.154093
    40  H    0.160236
 Sum of Mulliken charges =  -0.00000

 Dipole moment (field-independent basis, Debye):
    X=              0.0340    Y=             -0.0075    Z=              0.0285  Tot=              0.0450
 Quadrupole moment (field-independent basis, Debye-Ang):
   XX=            -84.6644   YY=            -85.2542   ZZ=            -84.8175
   XY=              0.0265   XZ=              0.5358   YZ=              0.6291

 Normal termination of Gaussian 16 at Thu May  6 05:24:42 2021.
