 Gaussian 16, Revision A.03,
 Gaussian 16:  EM64L-G16RevA.03 25-Dec-2016

 -------------
 #p 6-31g* mp2
 -------------

 ------------------------------------------------------
 Input file generated by CHIRIPA (05-May-2021 14:55:20)
 ------------------------------------------------------
 Symbolic Z-matrix:
 Charge =  0 Multiplicity = 1

                         Standard orientation:
 ---------------------------------------------------------------------
 Center     Atomic      Atomic             Coordinates (Angstroms)
 Number     Number       Type             X           Y           Z
 ---------------------------------------------------------------------
      1          6           0       -3.392953   -2.266305    0.120793
      2          6           0       -3.825169   -1.488301   -0.958290
      3          6           0       -3.588905   -0.110527   -0.979916
      4          6           0       -2.914475    0.458924    0.099046
      5          6           0       -2.471416   -0.289426    1.188524
      6          6           0       -2.718645   -1.665444    1.188873
      7          1           0       -3.580748   -3.335911    0.129328
      8          1           0       -4.349087   -1.952237   -1.789145
      9          1           0       -3.912543    0.515420   -1.802634
     10          1           0       -1.951683    0.201508    2.002330
     11          1           0       -2.381830   -2.267174    2.028231
     12          7           0       -2.658549    1.916582    0.087414
     13          8           0       -2.062236    2.394243    1.050164
     14          8           0       -3.059113    2.553832   -0.884232
     15          6           0        3.238375   -0.813770   -0.141890
     16          6           0        1.828913   -0.236266   -0.275645
     17          6           0        0.747216   -1.316615   -0.299524
     18          1           0        3.425688   -1.503827   -0.975964
     19          1           0        3.296145   -1.412181    0.777873
     20          1           0        1.774217    0.362013   -1.194169
     21          1           0        1.645003    0.452643    0.558739
     22          1           0        0.772899   -1.907900    0.621520
     23          1           0        0.902847   -1.999046   -1.141349
     24          1           0       -0.252511   -0.881695   -0.395705
     25          6           0        4.330661    0.253938   -0.116576
     26          6           0        5.740123   -0.323567    0.017179
     27          6           0        6.821820    0.756782    0.041058
     28          1           0        4.272891    0.852348   -1.036338
     29          1           0        4.143348    0.943995    0.717498
     30          1           0        5.924033   -1.012476   -0.817206
     31          1           0        5.794819   -0.921846    0.935704
     32          1           0        6.666190    1.439214    0.882883
     33          1           0        6.796137    1.348068   -0.879986
     34          1           0        7.821548    0.321863    0.137238
 ---------------------------------------------------------------------

 SCF Done:  E(RHF) =  -669.534257625     A.U. after   15 cycles
 E2 =    -0.2093041031D+01 EUMP2 =    -0.67162729865612D+03

 The electronic state is 1-A.
 Alpha  occ. eigenvalues --  -20.60800 -20.60795 -15.85855 -11.31217 -11.27811
 Alpha  occ. eigenvalues --  -11.27762 -11.27535 -11.26819 -11.26772 -11.21505
 Alpha  occ. eigenvalues --  -11.21460 -11.21310 -11.21223 -11.20995 -11.20953
 Alpha  occ. eigenvalues --   -1.59876  -1.39429  -1.19419  -1.08795  -1.08326
 Alpha  occ. eigenvalues --   -1.04814  -1.03436  -0.95908  -0.95624  -0.86922
 Alpha  occ. eigenvalues --   -0.86201  -0.82457  -0.79498  -0.78132  -0.77506
 Alpha  occ. eigenvalues --   -0.72071  -0.71208  -0.70504  -0.65052  -0.64960
 Alpha  occ. eigenvalues --   -0.64800  -0.62152  -0.60843  -0.59344  -0.57555
 Alpha  occ. eigenvalues --   -0.55301  -0.55208  -0.53641  -0.52891  -0.52374
 Alpha  occ. eigenvalues --   -0.51970  -0.49848  -0.48831  -0.48826  -0.47805
 Alpha  occ. eigenvalues --   -0.46532  -0.45676  -0.45603  -0.44831  -0.43670
 Alpha  occ. eigenvalues --   -0.37389  -0.36327
 Alpha virt. eigenvalues --    0.05022   0.11187   0.16488   0.21275   0.22965
 Alpha virt. eigenvalues --    0.24353   0.26619   0.27227   0.27555   0.28179
 Alpha virt. eigenvalues --    0.28357   0.30608   0.31481   0.31911   0.32054

 Mulliken charges:
               1
     1  C   -0.170904
     2  C   -0.217463
     3  C   -0.172464
     4  C    0.160140
     5  C   -0.176287
     6  C   -0.211820
     7  H    0.226028
     8  H    0.223787
     9  H    0.275914
    10  H    0.275497
    11  H    0.223658
    12  N    0.488233
    13  O   -0.460444
    14  O   -0.460438
    15  C   -0.297956
    16  C   -0.300901
    17  C   -0.479958
    18  H    0.148316
    19  H    0.146978
    20  H    0.154454
    21  H    0.155482
    22  H    0.146600
    23  H    0.152301
    24  H    0.169539
    25  C   -0.298533
    26  C   -0.299489
    27  C   -0.475712
    28  H    0.150888
    29  H    0.151438
    30  H    0.151077
    31  H    0.150798
    32  H    0.155916
    33  H    0.155798
    34  H    0.159526
 Sum of Mulliken charges =  -0.00000

 Dipole moment (field-independent basis, Debye):
    X=             -0.9912    Y=             -5.0924    Z=              0.0388  Tot=              5.1882
 Quadrupole moment (field-independent basis, Debye-Ang):
   XX=            -89.9635   YY=           -100.6358   ZZ=            -89.9415
   XY=             14.3197   XZ=              2.0503   YZ=             -0.8528

 Normal termination of Gaussian 16 at Thu May  6 02:58:05 2021.
