 Gaussian 16, Revision A.03,
 Gaussian 16:  EM64L-G16RevA.03 25-Dec-2016

 -------------
 #p 6-31g* mp2
 -------------

 ------------------------------------------------------
 Input file generated by CHIRIPA (05-May-2021 14:55:21)
 ------------------------------------------------------
 Symbolic Z-matrix:
 Charge =  0 Multiplicity = 1

                         Standard orientation:
 ---------------------------------------------------------------------
 Center     Atomic      Atomic             Coordinates (Angstroms)
 Number     Number       Type             X           Y           Z
 ---------------------------------------------------------------------
      1          6           0        1.718295    1.842810    1.627770
      2          6           0        1.379797    1.856251    0.270655
      3          6           0        1.825127    0.841973   -0.582263
      4          6           0        2.610784   -0.174981   -0.042043
      5          6           0        2.964872   -0.216220    1.305626
      6          6           0        2.508359    0.808441    2.140021
      7          1           0        1.368008    2.634758    2.283143
      8          1           0        0.766362    2.658296   -0.129926
      9          1           0        1.577928    0.827807   -1.636829
     10          1           0        3.577840   -1.029005    1.675853
     11          1           0        2.772797    0.795427    3.193561
     12          7           0        3.088154   -1.254247   -0.935184
     13          8           0        3.779081   -2.138984   -0.434687
     14          8           0        2.762351   -1.195003   -2.118814
     15          6           0       -3.103720   -0.749890   -0.046454
     16          6           0       -4.267124   -1.509355    0.592050
     17          6           0       -3.977182   -3.000969    0.761804
     18          1           0       -2.877029   -1.194518   -1.025158
     19          1           0       -2.205322   -0.881634    0.572352
     20          1           0       -5.163399   -1.375078   -0.027042
     21          1           0       -4.491197   -1.062746    1.569264
     22          1           0       -3.098758   -3.152778    1.397357
     23          1           0       -3.774779   -3.466885   -0.208019
     24          1           0       -4.822020   -3.524567    1.220011
     25          6           0       -3.378475    0.742477   -0.222750
     26          6           0       -2.215071    1.501943   -0.861254
     27          6           0       -2.505013    2.993557   -1.031008
     28          1           0       -4.276873    0.874222   -0.841556
     29          1           0       -3.605167    1.187106    0.755954
     30          1           0       -1.990998    1.055333   -1.838468
     31          1           0       -1.318795    1.367665   -0.242162
     32          1           0       -2.707415    3.459472   -0.061185
     33          1           0       -3.383437    3.145367   -1.666561
     34          1           0       -1.660174    3.517155   -1.489215
 ---------------------------------------------------------------------

 SCF Done:  E(RHF) =  -669.534779344     A.U. after   15 cycles
 E2 =    -0.2092706255D+01 EUMP2 =    -0.67162748559925D+03

 The electronic state is 1-A.
 Alpha  occ. eigenvalues --  -20.60783 -20.60778 -15.85837 -11.31220 -11.27788
 Alpha  occ. eigenvalues --  -11.27779 -11.27535 -11.26813 -11.26773 -11.22077
 Alpha  occ. eigenvalues --  -11.21833 -11.21761 -11.21752 -11.21568 -11.21128
 Alpha  occ. eigenvalues --   -1.59857  -1.39410  -1.19402  -1.08808  -1.08746
 Alpha  occ. eigenvalues --   -1.04814  -1.03898  -0.96353  -0.95620  -0.87361
 Alpha  occ. eigenvalues --   -0.86202  -0.82461  -0.79979  -0.78549  -0.77485
 Alpha  occ. eigenvalues --   -0.72055  -0.71180  -0.70498  -0.65452  -0.65048
 Alpha  occ. eigenvalues --   -0.64785  -0.62203  -0.61262  -0.59744  -0.57954
 Alpha  occ. eigenvalues --   -0.55636  -0.55292  -0.53197  -0.53062  -0.52885
 Alpha  occ. eigenvalues --   -0.52732  -0.50273  -0.48815  -0.48808  -0.48282
 Alpha  occ. eigenvalues --   -0.46991  -0.46087  -0.45987  -0.44811  -0.44136
 Alpha  occ. eigenvalues --   -0.37376  -0.36327
 Alpha virt. eigenvalues --    0.05031   0.11175   0.16437   0.20191   0.22792
 Alpha virt. eigenvalues --    0.23793   0.26197   0.26380   0.27150   0.28309
 Alpha virt. eigenvalues --    0.28964   0.30127   0.31126   0.31791   0.32316

 Mulliken charges:
               1
     1  C   -0.173420
     2  C   -0.221164
     3  C   -0.169633
     4  C    0.158536
     5  C   -0.171067
     6  C   -0.218533
     7  H    0.226050
     8  H    0.229923
     9  H    0.276596
    10  H    0.275738
    11  H    0.223533
    12  N    0.488157
    13  O   -0.460401
    14  O   -0.460142
    15  C   -0.299443
    16  C   -0.299943
    17  C   -0.475986
    18  H    0.152902
    19  H    0.150601
    20  H    0.152300
    21  H    0.150580
    22  H    0.155619
    23  H    0.157553
    24  H    0.160413
    25  C   -0.296959
    26  C   -0.310963
    27  C   -0.477932
    28  H    0.150827
    29  H    0.147984
    30  H    0.154222
    31  H    0.156001
    32  H    0.154059
    33  H    0.161019
    34  H    0.152974
 Sum of Mulliken charges =  -0.00000

 Dipole moment (field-independent basis, Debye):
    X=             -1.7084    Y=              3.7156    Z=              3.1416  Tot=              5.1569
 Quadrupole moment (field-independent basis, Debye-Ang):
   XX=           -102.7908   YY=            -97.0301   ZZ=            -91.4532
   XY=              9.4165   XZ=             10.9203   YZ=             -2.1374

 Normal termination of Gaussian 16 at Thu May  6 04:36:12 2021.
