 Gaussian 16, Revision A.03,
 Gaussian 16:  EM64L-G16RevA.03 25-Dec-2016

 -------------
 #p 6-31g* mp2
 -------------

 ------------------------------------------------------
 Input file generated by CHIRIPA (05-May-2021 14:51:11)
 ------------------------------------------------------
 Symbolic Z-matrix:
 Charge =  0 Multiplicity = 1

                         Standard orientation:
 ---------------------------------------------------------------------
 Center     Atomic      Atomic             Coordinates (Angstroms)
 Number     Number       Type             X           Y           Z
 ---------------------------------------------------------------------
      1          6           0        3.572844    0.052671   -0.181908
      2          6           0        3.505220    1.557928    0.078119
      3          6           0        4.749610    2.298979   -0.411912
      4          1           0        4.464226   -0.358516    0.311355
      5          1           0        3.703639   -0.120791   -1.259033
      6          1           0        3.373203    1.728465    1.154272
      7          1           0        2.613791    1.965547   -0.415660
      8          1           0        4.882350    2.158349   -1.489503
      9          1           0        5.646077    1.919919    0.089348
     10          1           0        4.680120    3.373530   -0.216025
     11          6           0        2.336026   -0.701945    0.302411
     12          6           0        2.403651   -2.207201    0.042384
     13          6           0        1.159260   -2.948252    0.532415
     14          1           0        2.205231   -0.528482    1.379536
     15          1           0        1.444644   -0.290757   -0.190851
     16          1           0        3.295079   -2.614821    0.536163
     17          1           0        2.535668   -2.377738   -1.033769
     18          1           0        0.262793   -2.569192    0.031155
     19          1           0        1.026520   -2.807622    1.610007
     20          1           0        1.228750   -4.022803    0.336528
     21          6           0       -2.558982   -0.328827   -0.054453
     22          6           0       -3.415652   -1.558712   -0.356918
     23          6           0       -2.610338   -2.858339   -0.341700
     24          1           0       -1.745575   -0.266465   -0.790268
     25          1           0       -2.082905   -0.454786    0.927831
     26          1           0       -3.891069   -1.429854   -1.337730
     27          1           0       -4.227227   -1.618046    0.379589
     28          1           0       -2.148485   -3.013894    0.638655
     29          1           0       -1.810417   -2.824633   -1.088421
     30          1           0       -3.242259   -3.724785   -0.560345
     31          6           0       -3.349888    0.978101   -0.066051
     32          6           0       -2.493219    2.207985    0.236415
     33          6           0       -3.298532    3.507612    0.221197
     34          1           0       -3.825965    1.104060   -1.048334
     35          1           0       -4.163295    0.915739    0.669765
     36          1           0       -1.681643    2.267319   -0.500091
     37          1           0       -2.017801    2.079128    1.217227
     38          1           0       -4.098453    3.473907    0.967918
     39          1           0       -3.760385    3.663168   -0.759158
     40          1           0       -2.666611    4.374058    0.439842
 ---------------------------------------------------------------------

 SCF Done:  E(RHF) =  -470.732472759     A.U. after   11 cycles
 E2 =    -0.1583533178D+01 EUMP2 =    -0.47231600593732D+03

 The electronic state is 1-A.
 Alpha  occ. eigenvalues --  -11.21617 -11.21616 -11.21570 -11.21506 -11.21436
 Alpha  occ. eigenvalues --  -11.21376 -11.21352 -11.21288 -11.21083 -11.21049
 Alpha  occ. eigenvalues --  -11.21041 -11.20861  -1.08459  -1.08367  -1.03564
 Alpha  occ. eigenvalues --   -1.03445  -0.96035  -0.95874  -0.87082  -0.86864
 Alpha  occ. eigenvalues --   -0.79706  -0.79445  -0.78317  -0.78129  -0.65097
 Alpha  occ. eigenvalues --   -0.64993  -0.60972  -0.60855  -0.59390  -0.59260
 Alpha  occ. eigenvalues --   -0.57752  -0.57421  -0.55328  -0.55163  -0.52725
 Alpha  occ. eigenvalues --   -0.52683  -0.52533  -0.52116  -0.49987  -0.49807
 Alpha  occ. eigenvalues --   -0.48146  -0.47619  -0.46678  -0.46526  -0.45993
 Alpha  occ. eigenvalues --   -0.45757  -0.45653  -0.45359  -0.43802  -0.43715
 Alpha virt. eigenvalues --    0.21324   0.23283   0.23400   0.24876   0.25373
 Alpha virt. eigenvalues --    0.26589   0.26979   0.27217   0.28866   0.29596
 Alpha virt. eigenvalues --    0.30176   0.31470   0.31617   0.32004   0.32248

 Mulliken charges:
               1
     1  C   -0.298205
     2  C   -0.299473
     3  C   -0.475667
     4  H    0.149593
     5  H    0.149162
     6  H    0.151884
     7  H    0.151799
     8  H    0.155030
     9  H    0.155141
    10  H    0.160121
    11  C   -0.299275
    12  C   -0.299653
    13  C   -0.482680
    14  H    0.149176
    15  H    0.150750
    16  H    0.151200
    17  H    0.150921
    18  H    0.166137
    19  H    0.153032
    20  H    0.159245
    21  C   -0.300281
    22  C   -0.299672
    23  C   -0.479429
    24  H    0.149272
    25  H    0.151168
    26  H    0.151681
    27  H    0.152066
    28  H    0.159809
    29  H    0.156047
    30  H    0.160587
    31  C   -0.298292
    32  C   -0.299528
    33  C   -0.475753
    34  H    0.149494
    35  H    0.149930
    36  H    0.151412
    37  H    0.152491
    38  H    0.155244
    39  H    0.155123
    40  H    0.160394
 Sum of Mulliken charges =  -0.00000

 Dipole moment (field-independent basis, Debye):
    X=             -0.0696    Y=             -0.0068    Z=              0.0093  Tot=              0.0706
 Quadrupole moment (field-independent basis, Debye-Ang):
   XX=            -85.5583   YY=            -86.2740   ZZ=            -83.0325
   XY=             -0.0233   XZ=              0.4170   YZ=             -0.0374

 Normal termination of Gaussian 16 at Wed May  5 16:44:46 2021.
