 Gaussian 16, Revision A.03,
 Gaussian 16:  EM64L-G16RevA.03 25-Dec-2016

 -------------
 #p 6-31g* mp2
 -------------

 ------------------------------------------------------
 Input file generated by CHIRIPA (05-May-2021 14:55:23)
 ------------------------------------------------------
 Symbolic Z-matrix:
 Charge =  0 Multiplicity = 1

                         Standard orientation:
 ---------------------------------------------------------------------
 Center     Atomic      Atomic             Coordinates (Angstroms)
 Number     Number       Type             X           Y           Z
 ---------------------------------------------------------------------
      1          6           0        3.366132    2.459229    0.233013
      2          6           0        2.053405    1.976400    0.245048
      3          6           0        1.789084    0.631296   -0.029501
      4          6           0        2.866239   -0.206835   -0.313337
      5          6           0        4.185120    0.244226   -0.332983
      6          6           0        4.425932    1.593128   -0.055456
      7          1           0        3.562331    3.505614    0.447446
      8          1           0        1.228385    2.646733    0.468746
      9          1           0        0.782502    0.231041   -0.026937
     10          1           0        4.986831   -0.448152   -0.559457
     11          1           0        5.446428    1.965325   -0.065510
     12          7           0        2.598859   -1.632847   -0.605566
     13          8           0        3.565318   -2.350847   -0.852688
     14          8           0        1.427889   -2.005553   -0.581961
     15          6           0       -3.567827   -0.077195    1.085733
     16          6           0       -2.165925   -0.611324    1.381304
     17          6           0       -1.865955   -0.687719    2.878627
     18          1           0       -3.675423    0.919995    1.534039
     19          1           0       -4.309502   -0.722333    1.576764
     20          1           0       -1.427180    0.033832    0.888715
     21          1           0       -2.061590   -1.607279    0.932078
     22          1           0       -2.580559   -1.347299    3.381518
     23          1           0       -1.942544    0.303136    3.337908
     24          1           0       -0.858707   -1.072113    3.067179
     25          6           0       -3.882558    0.005031   -0.406886
     26          6           0       -5.284459    0.539159   -0.702458
     27          6           0       -5.584429    0.615556   -2.199781
     28          1           0       -3.140883    0.650168   -0.897919
     29          1           0       -3.774961   -0.992160   -0.855193
     30          1           0       -5.388795    1.535114   -0.253232
     31          1           0       -6.023205   -0.105996   -0.209868
     32          1           0       -5.507840   -0.375301   -2.659061
     33          1           0       -4.869825    1.275134   -2.702671
     34          1           0       -6.591677    0.999949   -2.388334
 ---------------------------------------------------------------------

 SCF Done:  E(RHF) =  -669.535504152     A.U. after   15 cycles
 E2 =    -0.2091329386D+01 EUMP2 =    -0.67162683353850D+03

 The electronic state is 1-A.
 Alpha  occ. eigenvalues --  -20.60754 -20.60748 -15.85805 -11.31165 -11.27744
 Alpha  occ. eigenvalues --  -11.27713 -11.27492 -11.26762 -11.26751 -11.21686
 Alpha  occ. eigenvalues --  -11.21627 -11.21456 -11.21382 -11.21095 -11.21066
 Alpha  occ. eigenvalues --   -1.59828  -1.39381  -1.19344  -1.08741  -1.08476
 Alpha  occ. eigenvalues --   -1.04749  -1.03565  -0.96005  -0.95575  -0.87021
 Alpha  occ. eigenvalues --   -0.86148  -0.82407  -0.79632  -0.78292  -0.77443
 Alpha  occ. eigenvalues --   -0.72024  -0.71151  -0.70462  -0.65138  -0.64995
 Alpha  occ. eigenvalues --   -0.64746  -0.62129  -0.60951  -0.59361  -0.57607
 Alpha  occ. eigenvalues --   -0.55317  -0.55236  -0.53078  -0.52860  -0.52686
 Alpha  occ. eigenvalues --   -0.52421  -0.49952  -0.48785  -0.48778  -0.47929
 Alpha  occ. eigenvalues --   -0.46668  -0.45826  -0.45744  -0.44787  -0.43816
 Alpha  occ. eigenvalues --   -0.37330  -0.36350
 Alpha virt. eigenvalues --    0.05075   0.11292   0.16568   0.20236   0.22935
 Alpha virt. eigenvalues --    0.23999   0.25424   0.27007   0.27762   0.27992
 Alpha virt. eigenvalues --    0.29144   0.30665   0.31461   0.31659   0.32042

 Mulliken charges:
               1
     1  C   -0.170638
     2  C   -0.221796
     3  C   -0.180870
     4  C    0.158164
     5  C   -0.170068
     6  C   -0.219048
     7  H    0.225514
     8  H    0.222854
     9  H    0.290274
    10  H    0.275558
    11  H    0.223402
    12  N    0.486820
    13  O   -0.460542
    14  O   -0.460229
    15  C   -0.298077
    16  C   -0.301295
    17  C   -0.476773
    18  H    0.146281
    19  H    0.151683
    20  H    0.138847
    21  H    0.166040
    22  H    0.157688
    23  H    0.150742
    24  H    0.164227
    25  C   -0.297845
    26  C   -0.299666
    27  C   -0.475682
    28  H    0.145086
    29  H    0.154940
    30  H    0.150094
    31  H    0.152860
    32  H    0.157260
    33  H    0.154144
    34  H    0.160050
 Sum of Mulliken charges =  -0.00000

 Dipole moment (field-independent basis, Debye):
    X=              0.8793    Y=              4.8723    Z=              1.0336  Tot=              5.0578
 Quadrupole moment (field-independent basis, Debye-Ang):
   XX=            -84.3489   YY=            -96.3122   ZZ=            -97.3177
   XY=             14.3627   XZ=              1.6152   YZ=             -1.7013

 Normal termination of Gaussian 16 at Thu May  6 10:59:02 2021.
