 Gaussian 16, Revision A.03,
 Gaussian 16:  EM64L-G16RevA.03 25-Dec-2016

 -------------
 #p 6-31g* mp2
 -------------

 ------------------------------------------------------
 Input file generated by CHIRIPA (05-May-2021 14:51:09)
 ------------------------------------------------------
 Symbolic Z-matrix:
 Charge =  0 Multiplicity = 1

                         Standard orientation:
 ---------------------------------------------------------------------
 Center     Atomic      Atomic             Coordinates (Angstroms)
 Number     Number       Type             X           Y           Z
 ---------------------------------------------------------------------
      1          6           0       -3.369536    0.412961   -0.009035
      2          6           0       -3.560631    1.915748   -0.216637
      3          6           0       -2.248359    2.695829   -0.131726
      4          1           0       -2.901830    0.241067    0.970071
      5          1           0       -2.666196    0.032294   -0.762561
      6          1           0       -4.264469    2.293210    0.536191
      7          1           0       -4.028112    2.084072   -1.195282
      8          1           0       -1.542944    2.347089   -0.892890
      9          1           0       -1.780645    2.557415    0.848420
     10          1           0       -2.408127    3.767948   -0.283033
     11          6           0       -4.672421   -0.380445   -0.091056
     12          6           0       -4.481325   -1.883232    0.116546
     13          6           0       -5.793597   -2.663313    0.031635
     14          1           0       -5.375761    0.000222    0.662470
     15          1           0       -5.140126   -0.208551   -1.070162
     16          1           0       -4.013845   -2.051556    1.095191
     17          1           0       -3.777487   -2.260694   -0.636281
     18          1           0       -6.261312   -2.524899   -0.948511
     19          1           0       -6.499012   -2.314573    0.792800
     20          1           0       -5.633829   -3.735432    0.182942
     21          6           0        4.783237    0.011830    0.009992
     22          6           0        5.435380   -1.366057   -0.108831
     23          6           0        6.960584   -1.293370   -0.187978
     24          1           0        5.078252    0.625656   -0.852057
     25          1           0        5.173919    0.518904    0.903099
     26          1           0        5.042552   -1.870934   -1.000684
     27          1           0        5.138625   -1.976738    0.753504
     28          1           0        7.370302   -0.813088    0.706482
     29          1           0        7.273683   -0.706682   -1.057672
     30          1           0        7.406132   -2.289467   -0.272460
     31          6           0        3.258720   -0.044346    0.090098
     32          6           0        2.606577    1.333541    0.208922
     33          6           0        1.081372    1.260854    0.288070
     34          1           0        2.868038   -0.551420   -0.803008
     35          1           0        2.963705   -0.658172    0.952148
     36          1           0        2.903332    1.944223   -0.653413
     37          1           0        2.999404    1.838418    1.100776
     38          1           0        0.768273    0.674166    1.157764
     39          1           0        0.671655    0.780572   -0.606392
     40          1           0        0.635825    2.256951    0.372551
 ---------------------------------------------------------------------

 SCF Done:  E(RHF) =  -470.732160825     A.U. after   11 cycles
 E2 =    -0.1582976775D+01 EUMP2 =    -0.47231513760083D+03

 The electronic state is 1-A.
 Alpha  occ. eigenvalues --  -11.21578 -11.21571 -11.21525 -11.21518 -11.21364
 Alpha  occ. eigenvalues --  -11.21355 -11.21303 -11.21292 -11.21053 -11.21048
 Alpha  occ. eigenvalues --  -11.20923 -11.20919  -1.08394  -1.08368  -1.03524
 Alpha  occ. eigenvalues --   -1.03431  -0.96024  -0.95836  -0.87103  -0.86800
 Alpha  occ. eigenvalues --   -0.79701  -0.79399  -0.78232  -0.78147  -0.65039
 Alpha  occ. eigenvalues --   -0.64990  -0.60953  -0.60805  -0.59410  -0.59244
 Alpha  occ. eigenvalues --   -0.57657  -0.57413  -0.55332  -0.55105  -0.52997
 Alpha  occ. eigenvalues --   -0.52621  -0.52350  -0.51971  -0.50005  -0.49741
 Alpha  occ. eigenvalues --   -0.47870  -0.47814  -0.46681  -0.46470  -0.45809
 Alpha  occ. eigenvalues --   -0.45698  -0.45674  -0.45600  -0.43732  -0.43644
 Alpha virt. eigenvalues --    0.22247   0.23012   0.23672   0.24704   0.26033
 Alpha virt. eigenvalues --    0.26713   0.26954   0.27443   0.27885   0.29322
 Alpha virt. eigenvalues --    0.30074   0.31131   0.31699   0.31983   0.32247

 Mulliken charges:
               1
     1  C   -0.297996
     2  C   -0.300215
     3  C   -0.478240
     4  H    0.149859
     5  H    0.149529
     6  H    0.151276
     7  H    0.151254
     8  H    0.159454
     9  H    0.157158
    10  H    0.158523
    11  C   -0.298250
    12  C   -0.299524
    13  C   -0.475669
    14  H    0.149393
    15  H    0.149440
    16  H    0.151868
    17  H    0.151843
    18  H    0.155099
    19  H    0.155118
    20  H    0.160128
    21  C   -0.298156
    22  C   -0.299551
    23  C   -0.475663
    24  H    0.149500
    25  H    0.149413
    26  H    0.151800
    27  H    0.151863
    28  H    0.155139
    29  H    0.155120
    30  H    0.160147
    31  C   -0.298434
    32  C   -0.300441
    33  C   -0.477110
    34  H    0.149157
    35  H    0.149432
    36  H    0.151432
    37  H    0.151392
    38  H    0.153837
    39  H    0.153937
    40  H    0.167138
 Sum of Mulliken charges =  -0.00000

 Dipole moment (field-independent basis, Debye):
    X=             -0.0049    Y=              0.0207    Z=              0.0049  Tot=              0.0219
 Quadrupole moment (field-independent basis, Debye-Ang):
   XX=            -87.0894   YY=            -85.3223   ZZ=            -82.6978
   XY=             -0.4513   XZ=             -0.0515   YZ=              0.0414

 Normal termination of Gaussian 16 at Wed May  5 15:08:37 2021.
