 Gaussian 16, Revision A.03,
 Gaussian 16:  EM64L-G16RevA.03 25-Dec-2016

 -------------
 #p 6-31g* mp2
 -------------

 ------------------------------------------------------
 Input file generated by CHIRIPA (05-May-2021 14:51:14)
 ------------------------------------------------------
 Symbolic Z-matrix:
 Charge =  0 Multiplicity = 1

                         Standard orientation:
 ---------------------------------------------------------------------
 Center     Atomic      Atomic             Coordinates (Angstroms)
 Number     Number       Type             X           Y           Z
 ---------------------------------------------------------------------
      1          6           0        2.854489   -0.377375   -0.051282
      2          6           0        3.429164   -1.717419   -0.511733
      3          6           0        2.421346   -2.861965   -0.401676
      4          1           0        2.514433   -0.469608    0.989295
      5          1           0        1.964459   -0.142426   -0.651315
      6          1           0        4.318649   -1.949105    0.088061
      7          1           0        3.768067   -1.621931   -1.551273
      8          1           0        1.537220   -2.656965   -1.013964
      9          1           0        2.090931   -2.985999    0.634684
     10          1           0        2.853018   -3.810526   -0.735968
     11          6           0        3.850093    0.776605   -0.155354
     12          6           0        3.275419    2.116650    0.305098
     13          6           0        4.283236    3.261195    0.195040
     14          1           0        4.740123    0.541656    0.444680
     15          1           0        4.190149    0.868839   -1.195931
     16          1           0        2.936516    2.021161    1.344638
     17          1           0        2.385933    2.348336   -0.294696
     18          1           0        4.613651    3.385229   -0.841320
     19          1           0        5.167362    3.056196    0.807329
     20          1           0        3.851564    4.209757    0.529332
     21          6           0       -3.008242   -0.850457   -0.100318
     22          6           0       -1.931240   -1.301625    0.886849
     23          6           0       -1.252036   -2.605136    0.465737
     24          1           0       -3.762238   -1.643453   -0.198254
     25          1           0       -2.555790   -0.724936   -1.093760
     26          1           0       -2.385305   -1.424922    1.878434
     27          1           0       -1.179821   -0.507384    0.982592
     28          1           0       -0.773141   -2.491544   -0.512198
     29          1           0       -1.985475   -3.414295    0.388733
     30          1           0       -0.485675   -2.909254    1.185503
     31          6           0       -3.696340    0.451226    0.306954
     32          6           0       -4.773342    0.902395   -0.680213
     33          6           0       -5.452547    2.205905   -0.259102
     34          1           0       -4.148792    0.325706    1.300396
     35          1           0       -2.942344    1.244222    0.404890
     36          1           0       -5.524762    0.108154   -0.775956
     37          1           0       -4.319278    1.025692   -1.671798
     38          1           0       -4.719108    3.015064   -0.182098
     39          1           0       -5.931441    2.092313    0.718834
     40          1           0       -6.218907    2.510023   -0.978868
 ---------------------------------------------------------------------

 SCF Done:  E(RHF) =  -470.732433120     A.U. after   11 cycles
 E2 =    -0.1583105809D+01 EUMP2 =    -0.47231553892892D+03

 The electronic state is 1-A.
 Alpha  occ. eigenvalues --  -11.21625 -11.21588 -11.21579 -11.21534 -11.21421
 Alpha  occ. eigenvalues --  -11.21378 -11.21362 -11.21319 -11.21089 -11.21061
 Alpha  occ. eigenvalues --  -11.20975 -11.20942  -1.08441  -1.08394  -1.03550
 Alpha  occ. eigenvalues --   -1.03463  -0.96032  -0.95881  -0.87091  -0.86857
 Alpha  occ. eigenvalues --   -0.79677  -0.79468  -0.78255  -0.78208  -0.65087
 Alpha  occ. eigenvalues --   -0.65016  -0.61005  -0.60837  -0.59395  -0.59266
 Alpha  occ. eigenvalues --   -0.57616  -0.57540  -0.55389  -0.55122  -0.52814
 Alpha  occ. eigenvalues --   -0.52655  -0.52375  -0.52223  -0.50056  -0.49742
 Alpha  occ. eigenvalues --   -0.47910  -0.47835  -0.46691  -0.46473  -0.45834
 Alpha  occ. eigenvalues --   -0.45743  -0.45691  -0.45620  -0.43784  -0.43721
 Alpha virt. eigenvalues --    0.21417   0.23201   0.23523   0.25218   0.25555
 Alpha virt. eigenvalues --    0.26479   0.26698   0.27422   0.28051   0.28969
 Alpha virt. eigenvalues --    0.29659   0.31054   0.31679   0.31929   0.32592

 Mulliken charges:
               1
     1  C   -0.298477
     2  C   -0.300102
     3  C   -0.477097
     4  H    0.149741
     5  H    0.148857
     6  H    0.151644
     7  H    0.151546
     8  H    0.158595
     9  H    0.156115
    10  H    0.159491
    11  C   -0.298225
    12  C   -0.299626
    13  C   -0.475702
    14  H    0.149720
    15  H    0.149676
    16  H    0.151985
    17  H    0.151484
    18  H    0.155204
    19  H    0.155298
    20  H    0.160266
    21  C   -0.298278
    22  C   -0.300886
    23  C   -0.476402
    24  H    0.149615
    25  H    0.148878
    26  H    0.151373
    27  H    0.152796
    28  H    0.156878
    29  H    0.153961
    30  H    0.161902
    31  C   -0.298251
    32  C   -0.299594
    33  C   -0.475680
    34  H    0.149506
    35  H    0.149650
    36  H    0.151926
    37  H    0.151716
    38  H    0.155137
    39  H    0.155185
    40  H    0.160174
 Sum of Mulliken charges =  -0.00000

 Dipole moment (field-independent basis, Debye):
    X=              0.0169    Y=             -0.0188    Z=              0.0043  Tot=              0.0257
 Quadrupole moment (field-independent basis, Debye-Ang):
   XX=            -85.0447   YY=            -86.1846   ZZ=            -83.6259
   XY=              0.2889   XZ=              0.0695   YZ=             -0.6101

 Normal termination of Gaussian 16 at Thu May  6 04:00:55 2021.
