 Gaussian 16, Revision A.03,
 Gaussian 16:  EM64L-G16RevA.03 25-Dec-2016

 -------------
 #p 6-31g* mp2
 -------------

 ------------------------------------------------------
 Input file generated by CHIRIPA (05-May-2021 14:53:16)
 ------------------------------------------------------
 Symbolic Z-matrix:
 Charge =  0 Multiplicity = 1

                         Standard orientation:
 ---------------------------------------------------------------------
 Center     Atomic      Atomic             Coordinates (Angstroms)
 Number     Number       Type             X           Y           Z
 ---------------------------------------------------------------------
      1          6           0       -3.379951   -0.483508   -0.051516
      2          6           0       -4.216072   -1.665116   -0.544149
      3          6           0       -3.421042   -2.970019   -0.598461
      4          1           0       -2.510399   -0.357570   -0.711034
      5          1           0       -2.983989   -0.714540    0.947100
      6          1           0       -4.611478   -1.431359   -1.540958
      7          1           0       -5.083837   -1.788136    0.116506
      8          1           0       -3.039255   -3.230112    0.394107
      9          1           0       -2.564211   -2.871308   -1.272774
     10          1           0       -4.037955   -3.801521   -0.953259
     11          6           0       -4.160869    0.828103    0.008261
     12          6           0       -3.324748    2.009711    0.500894
     13          6           0       -4.119778    3.314614    0.555206
     14          1           0       -4.556831    1.059135   -0.990355
     15          1           0       -5.030421    0.702165    0.667779
     16          1           0       -2.456982    2.132731   -0.159761
     17          1           0       -2.929342    1.775954    1.497703
     18          1           0       -4.976609    3.215902    1.229519
     19          1           0       -4.501565    3.574707   -0.437362
     20          1           0       -3.502864    4.146116    0.910004
     21          6           0        1.344602   -2.006334    0.563944
     22          6           0        0.876061   -0.842974   -0.055399
     23          6           0        1.754124    0.200504   -0.363142
     24          6           0        3.100414    0.046345   -0.035990
     25          6           0        3.597670   -1.100401    0.581264
     26          6           0        2.701518   -2.131114    0.879742
     27          1           0        0.655475   -2.811975    0.799408
     28          1           0       -0.177216   -0.743308   -0.301809
     29          1           0        1.418254    1.112026   -0.842450
     30          1           0        4.653126   -1.170673    0.814702
     31          1           0        3.068207   -3.033454    1.360748
     32          7           0        4.039556    1.144271   -0.356880
     33          8           0        5.220998    0.983906   -0.058361
     34          8           0        3.576429    2.144402   -0.900836
 ---------------------------------------------------------------------

 SCF Done:  E(RHF) =  -669.535701505     A.U. after   15 cycles
 E2 =    -0.2091453859D+01 EUMP2 =    -0.67162715536372D+03

 The electronic state is 1-A.
 Alpha  occ. eigenvalues --  -20.60700 -20.60695 -15.85751 -11.31096 -11.27663
 Alpha  occ. eigenvalues --  -11.27647 -11.27383 -11.26678 -11.26601 -11.22547
 Alpha  occ. eigenvalues --  -11.22476 -11.22258 -11.22141 -11.22121 -11.21521
 Alpha  occ. eigenvalues --   -1.59776  -1.39330  -1.19261  -1.09309  -1.08658
 Alpha  occ. eigenvalues --   -1.04659  -1.04323  -0.96791  -0.95499  -0.87803
 Alpha  occ. eigenvalues --   -0.86059  -0.82333  -0.80409  -0.79147  -0.77378
 Alpha  occ. eigenvalues --   -0.71970  -0.71098  -0.70368  -0.65948  -0.64910
 Alpha  occ. eigenvalues --   -0.64657  -0.62023  -0.61702  -0.60160  -0.58398
 Alpha  occ. eigenvalues --   -0.56089  -0.55158  -0.53442  -0.53249  -0.52992
 Alpha  occ. eigenvalues --   -0.52733  -0.50727  -0.48767  -0.48727  -0.48675
 Alpha  occ. eigenvalues --   -0.47441  -0.46637  -0.46562  -0.44740  -0.44600
 Alpha  occ. eigenvalues --   -0.37241  -0.36263
 Alpha virt. eigenvalues --    0.05146   0.11375   0.16645   0.19469   0.22644
 Alpha virt. eigenvalues --    0.23499   0.24501   0.26061   0.26736   0.28723
 Alpha virt. eigenvalues --    0.29544   0.30017   0.30959   0.31462   0.31601

 Mulliken charges:
               1
     1  C   -0.305409
     2  C   -0.299035
     3  C   -0.478349
     4  H    0.144637
     5  H    0.149498
     6  H    0.155816
     7  H    0.156066
     8  H    0.151835
     9  H    0.152214
    10  H    0.165869
    11  C   -0.297822
    12  C   -0.300288
    13  C   -0.476364
    14  H    0.152358
    15  H    0.152918
    16  H    0.148832
    17  H    0.153149
    18  H    0.156349
    19  H    0.156727
    20  H    0.163873
    21  C   -0.174198
    22  C   -0.226385
    23  C   -0.173870
    24  C    0.158853
    25  C   -0.171496
    26  C   -0.218457
    27  H    0.226615
    28  H    0.236237
    29  H    0.275134
    30  H    0.275170
    31  H    0.222950
    32  N    0.488105
    33  O   -0.460796
    34  O   -0.460737
 Sum of Mulliken charges =  -0.00000

 Dipole moment (field-independent basis, Debye):
    X=             -3.6055    Y=             -3.8207    Z=              1.1473  Tot=              5.3771
 Quadrupole moment (field-independent basis, Debye-Ang):
   XX=           -111.7695   YY=            -94.8252   ZZ=            -93.9000
   XY=            -14.1168   XZ=              5.1470   YZ=             -1.2401

 Normal termination of Gaussian 16 at Thu May  6 20:28:14 2021.
