 Gaussian 16, Revision A.03,
 Gaussian 16:  EM64L-G16RevA.03 25-Dec-2016

 -------------
 #p 6-31g* mp2
 -------------

 ------------------------------------------------------
 Input file generated by CHIRIPA (05-May-2021 14:51:12)
 ------------------------------------------------------
 Symbolic Z-matrix:
 Charge =  0 Multiplicity = 1

                         Standard orientation:
 ---------------------------------------------------------------------
 Center     Atomic      Atomic             Coordinates (Angstroms)
 Number     Number       Type             X           Y           Z
 ---------------------------------------------------------------------
      1          6           0       -2.019206   -0.723951    0.678636
      2          6           0       -1.619885   -2.165948    0.993551
      3          6           0       -0.476678   -2.255335    2.004928
      4          1           0       -1.143733   -0.183590    0.293277
      5          1           0       -2.312305   -0.220241    1.610175
      6          1           0       -1.328949   -2.667197    0.061498
      7          1           0       -2.496458   -2.702992    1.378025
      8          1           0       -0.760068   -1.780156    2.949648
      9          1           0        0.414074   -1.744157    1.625641
     10          1           0       -0.207335   -3.295030    2.215516
     11          6           0       -3.160853   -0.618188   -0.330911
     12          6           0       -3.560174    0.823810   -0.645826
     13          6           0       -4.703381    0.913196   -1.657203
     14          1           0       -2.867754   -1.121898   -1.262450
     15          1           0       -4.036326   -1.158549    0.054448
     16          1           0       -2.683601    1.360853   -1.030300
     17          1           0       -3.851110    1.325058    0.286227
     18          1           0       -5.594133    0.402018   -1.277916
     19          1           0       -4.419991    0.438017   -2.601923
     20          1           0       -4.972725    1.952891   -1.867791
     21          6           0        1.978401    1.121525   -0.093655
     22          6           0        2.188022    2.255581    0.910317
     23          6           0        0.955597    3.148092    1.059805
     24          1           0        1.713042    1.549246   -1.070171
     25          1           0        1.120468    0.513253    0.224702
     26          1           0        3.046161    2.860716    0.590904
     27          1           0        2.453100    1.825117    1.884510
     28          1           0        0.095459    2.563137    1.401259
     29          1           0        0.691890    3.604619    0.100304
     30          1           0        1.127414    3.952107    1.782232
     31          6           0        3.201658    0.220614   -0.254070
     32          6           0        2.992038   -0.913442   -1.258042
     33          6           0        4.224462   -1.805954   -1.407530
     34          1           0        4.059591    0.828886   -0.572427
     35          1           0        3.467017   -0.207107    0.722446
     36          1           0        2.726960   -0.482979   -2.232235
     37          1           0        2.133898   -1.518577   -0.938629
     38          1           0        4.488169   -2.262480   -0.448029
     39          1           0        5.084600   -1.220998   -1.748984
     40          1           0        4.052645   -2.609968   -2.129956
 ---------------------------------------------------------------------

 SCF Done:  E(RHF) =  -470.733255956     A.U. after   11 cycles
 E2 =    -0.1583953767D+01 EUMP2 =    -0.47231720972231D+03

 The electronic state is 1-A.
 Alpha  occ. eigenvalues --  -11.21650 -11.21649 -11.21607 -11.21587 -11.21434
 Alpha  occ. eigenvalues --  -11.21415 -11.21373 -11.21355 -11.21150 -11.21096
 Alpha  occ. eigenvalues --  -11.21061 -11.21052  -1.08486  -1.08430  -1.03556
 Alpha  occ. eigenvalues --   -1.03546  -0.96007  -0.95996  -0.87030  -0.87006
 Alpha  occ. eigenvalues --   -0.79638  -0.79595  -0.78413  -0.78143  -0.65282
 Alpha  occ. eigenvalues --   -0.64917  -0.60951  -0.60945  -0.59384  -0.59357
 Alpha  occ. eigenvalues --   -0.57617  -0.57607  -0.55302  -0.55282  -0.52701
 Alpha  occ. eigenvalues --   -0.52686  -0.52455  -0.52405  -0.49999  -0.49900
 Alpha  occ. eigenvalues --   -0.47985  -0.47919  -0.46819  -0.46616  -0.46252
 Alpha  occ. eigenvalues --   -0.45784  -0.45758  -0.45069  -0.43809  -0.43801
 Alpha virt. eigenvalues --    0.19521   0.22947   0.23718   0.24236   0.25802
 Alpha virt. eigenvalues --    0.26634   0.26801   0.27550   0.28561   0.29849
 Alpha virt. eigenvalues --    0.30801   0.31615   0.31700   0.31900   0.32305

 Mulliken charges:
               1
     1  C   -0.308332
     2  C   -0.299290
     3  C   -0.479984
     4  H    0.158858
     5  H    0.149136
     6  H    0.151982
     7  H    0.152406
     8  H    0.155458
     9  H    0.157545
    10  H    0.160813
    11  C   -0.297489
    12  C   -0.300105
    13  C   -0.475745
    14  H    0.149656
    15  H    0.149634
    16  H    0.152887
    17  H    0.151895
    18  H    0.155092
    19  H    0.155162
    20  H    0.160343
    21  C   -0.310519
    22  C   -0.298784
    23  C   -0.477372
    24  H    0.149112
    25  H    0.160402
    26  H    0.151950
    27  H    0.152139
    28  H    0.157311
    29  H    0.154757
    30  H    0.160266
    31  C   -0.297505
    32  C   -0.301310
    33  C   -0.475646
    34  H    0.149936
    35  H    0.149918
    36  H    0.151918
    37  H    0.152285
    38  H    0.155567
    39  H    0.155350
    40  H    0.160305
 Sum of Mulliken charges =  -0.00000

 Dipole moment (field-independent basis, Debye):
    X=             -0.0018    Y=              0.0020    Z=              0.0015  Tot=              0.0031
 Quadrupole moment (field-independent basis, Debye-Ang):
   XX=            -85.5055   YY=            -85.0211   ZZ=            -84.1762
   XY=              0.9886   XZ=             -1.1936   YZ=             -0.4646

 Normal termination of Gaussian 16 at Wed May  5 23:10:08 2021.
