 Gaussian 16, Revision A.03,
 Gaussian 16:  EM64L-G16RevA.03 25-Dec-2016

 -------------
 #p 6-31g* mp2
 -------------

 ------------------------------------------------------
 Input file generated by CHIRIPA (05-May-2021 14:55:23)
 ------------------------------------------------------
 Symbolic Z-matrix:
 Charge =  0 Multiplicity = 1

                         Standard orientation:
 ---------------------------------------------------------------------
 Center     Atomic      Atomic             Coordinates (Angstroms)
 Number     Number       Type             X           Y           Z
 ---------------------------------------------------------------------
      1          6           0        3.394855    2.106603    1.002856
      2          6           0        2.618028    1.222160    1.758385
      3          6           0        2.118605    0.048665    1.185643
      4          6           0        2.416751   -0.210194   -0.151290
      5          6           0        3.187865    0.651248   -0.930129
      6          6           0        3.676797    1.818831   -0.336628
      7          1           0        3.778744    3.015906    1.455839
      8          1           0        2.397474    1.443071    2.798865
      9          1           0        1.514691   -0.653467    1.747529
     10          1           0        3.390923    0.403887   -1.965019
     11          1           0        4.279826    2.503874   -0.925794
     12          7           0        1.893587   -1.449391   -0.768615
     13          8           0        2.170439   -1.654528   -1.948407
     14          8           0        1.216586   -2.192074   -0.060993
     15          6           0       -3.344422   -0.678235    0.368792
     16          6           0       -2.145897   -1.625840    0.309065
     17          6           0       -2.442760   -2.993940    0.923856
     18          1           0       -3.652362   -0.552285    1.415814
     19          1           0       -4.194024   -1.139436   -0.153574
     20          1           0       -1.298397   -1.162390    0.830194
     21          1           0       -1.840654   -1.749397   -0.737920
     22          1           0       -3.271436   -3.480420    0.399227
     23          1           0       -2.726098   -2.890077    1.976249
     24          1           0       -1.572448   -3.655432    0.870522
     25          6           0       -3.063193    0.693491   -0.241949
     26          6           0       -4.261718    1.641095   -0.182223
     27          6           0       -3.964854    3.009196   -0.797013
     28          1           0       -2.213592    1.154692    0.280417
     29          1           0       -2.755253    0.567541   -1.288972
     30          1           0       -4.566961    1.764654    0.864762
     31          1           0       -5.109218    1.177646   -0.703351
     32          1           0       -3.681517    2.905333   -1.849407
     33          1           0       -3.136179    3.495676   -0.272385
     34          1           0       -4.835166    3.670688   -0.743680
 ---------------------------------------------------------------------

 SCF Done:  E(RHF) =  -669.535831608     A.U. after   15 cycles
 E2 =    -0.2092155924D+01 EUMP2 =    -0.67162798753179D+03

 The electronic state is 1-A.
 Alpha  occ. eigenvalues --  -20.60922 -20.60892 -15.85931 -11.31275 -11.27842
 Alpha  occ. eigenvalues --  -11.27831 -11.27574 -11.26852 -11.26841 -11.21342
 Alpha  occ. eigenvalues --  -11.20998 -11.20925 -11.20742 -11.20567 -11.20030
 Alpha  occ. eigenvalues --   -1.59964  -1.39521  -1.19442  -1.08842  -1.07891
 Alpha  occ. eigenvalues --   -1.04842  -1.02914  -0.95689  -0.95390  -0.86425
 Alpha  occ. eigenvalues --   -0.86241  -0.82522  -0.79026  -0.77735  -0.77484
 Alpha  occ. eigenvalues --   -0.72162  -0.71269  -0.70552  -0.65100  -0.64851
 Alpha  occ. eigenvalues --   -0.64536  -0.62194  -0.60329  -0.58784  -0.56941
 Alpha  occ. eigenvalues --   -0.55345  -0.54723  -0.53168  -0.52936  -0.52063
 Alpha  occ. eigenvalues --   -0.51818  -0.49395  -0.48940  -0.48910  -0.47345
 Alpha  occ. eigenvalues --   -0.46084  -0.45440  -0.45103  -0.44603  -0.43168
 Alpha  occ. eigenvalues --   -0.37417  -0.36441
 Alpha virt. eigenvalues --    0.04935   0.11157   0.16421   0.21120   0.23251
 Alpha virt. eigenvalues --    0.24652   0.26409   0.27416   0.27649   0.28445
 Alpha virt. eigenvalues --    0.28797   0.30492   0.31561   0.32105   0.32662

 Mulliken charges:
               1
     1  C   -0.170598
     2  C   -0.218745
     3  C   -0.171810
     4  C    0.158888
     5  C   -0.170721
     6  C   -0.218378
     7  H    0.225947
     8  H    0.223751
     9  H    0.276538
    10  H    0.275795
    11  H    0.223822
    12  N    0.489460
    13  O   -0.459702
    14  O   -0.459233
    15  C   -0.299131
    16  C   -0.293611
    17  C   -0.479273
    18  H    0.144873
    19  H    0.148363
    20  H    0.148221
    21  H    0.159004
    22  H    0.151234
    23  H    0.146776
    24  H    0.174764
    25  C   -0.297160
    26  C   -0.298828
    27  C   -0.475133
    28  H    0.144375
    29  H    0.150926
    30  H    0.150166
    31  H    0.152531
    32  H    0.155483
    33  H    0.152331
    34  H    0.159075
 Sum of Mulliken charges =  -0.00000

 Dipole moment (field-independent basis, Debye):
    X=              2.0750    Y=              4.2377    Z=              2.0807  Tot=              5.1568
 Quadrupole moment (field-independent basis, Debye-Ang):
   XX=            -86.1278   YY=            -97.7652   ZZ=            -91.2693
   XY=             11.2038   XZ=              3.4352   YZ=             -1.4036

 Normal termination of Gaussian 16 at Thu May  6 09:29:11 2021.
