 Gaussian 16, Revision A.03,
 Gaussian 16:  EM64L-G16RevA.03 25-Dec-2016

 -------------
 #p 6-31g* mp2
 -------------

 ------------------------------------------------------
 Input file generated by CHIRIPA (05-May-2021 14:55:18)
 ------------------------------------------------------
 Symbolic Z-matrix:
 Charge =  0 Multiplicity = 1

                         Standard orientation:
 ---------------------------------------------------------------------
 Center     Atomic      Atomic             Coordinates (Angstroms)
 Number     Number       Type             X           Y           Z
 ---------------------------------------------------------------------
      1          6           0       -5.252278    0.630458    0.155250
      2          6           0       -4.144522    1.459465    0.360542
      3          6           0       -2.847318    0.945044    0.275809
      4          6           0       -2.693810   -0.409130   -0.017342
      5          6           0       -3.777466   -1.260605   -0.227035
      6          6           0       -5.065544   -0.724543   -0.137368
      7          1           0       -6.256433    1.038478    0.222989
      8          1           0       -4.286533    2.512160    0.587942
      9          1           0       -1.972057    1.564320    0.430191
     10          1           0       -3.604189   -2.305936   -0.452151
     11          1           0       -5.923989   -1.370720   -0.297278
     12          7           0       -1.325349   -0.965180   -0.109658
     13          8           0       -1.216883   -2.161627   -0.369248
     14          8           0       -0.387127   -0.194036    0.079324
     15          6           0        3.814240    1.153821   -0.134268
     16          6           0        2.503358    1.931566   -0.013091
     17          6           0        2.674568    3.425488   -0.290001
     18          1           0        4.549495    1.575807    0.564496
     19          1           0        4.224833    1.295906   -1.143535
     20          1           0        2.094654    1.786934    0.995205
     21          1           0        1.771078    1.507557   -0.712089
     22          1           0        3.059576    3.588079   -1.301897
     23          1           0        3.384990    3.869043    0.415095
     24          1           0        1.725217    3.962246   -0.197908
     25          6           0        3.659294   -0.341055    0.139715
     26          6           0        4.970176   -1.118801    0.018538
     27          6           0        4.798965   -2.612722    0.295448
     28          1           0        3.248700   -0.483141    1.148982
     29          1           0        2.924039   -0.763041   -0.559049
     30          1           0        5.702457   -0.694791    0.717536
     31          1           0        5.378880   -0.974168   -0.989757
     32          1           0        4.088544   -3.056277   -0.409648
     33          1           0        4.413958   -2.775313    1.307344
     34          1           0        5.748318   -3.149480    0.203355
 ---------------------------------------------------------------------

 SCF Done:  E(RHF) =  -669.535847347     A.U. after   15 cycles
 E2 =    -0.2091351128D+01 EUMP2 =    -0.67162719847463D+03

 The electronic state is 1-A.
 Alpha  occ. eigenvalues --  -20.60927 -20.60922 -15.85957 -11.31289 -11.27854
 Alpha  occ. eigenvalues --  -11.27850 -11.27593 -11.26863 -11.26853 -11.20481
 Alpha  occ. eigenvalues --  -11.20293 -11.20240 -11.20193 -11.20004 -11.19919
 Alpha  occ. eigenvalues --   -1.59991  -1.39546  -1.19459  -1.08863  -1.07191
 Alpha  occ. eigenvalues --   -1.04856  -1.02415  -0.95703  -0.94895  -0.86256
 Alpha  occ. eigenvalues --   -0.85910  -0.82540  -0.78450  -0.77591  -0.76931
 Alpha  occ. eigenvalues --   -0.72169  -0.71307  -0.70567  -0.65114  -0.64859
 Alpha  occ. eigenvalues --   -0.63833  -0.62203  -0.59823  -0.58264  -0.56491
 Alpha  occ. eigenvalues --   -0.55360  -0.54195  -0.53189  -0.52948  -0.51637
 Alpha  occ. eigenvalues --   -0.51304  -0.48955  -0.48942  -0.48826  -0.46756
 Alpha  occ. eigenvalues --   -0.45498  -0.44962  -0.44496  -0.44338  -0.42639
 Alpha  occ. eigenvalues --   -0.37439  -0.36459
 Alpha virt. eigenvalues --    0.04923   0.11196   0.16404   0.21266   0.23998
 Alpha virt. eigenvalues --    0.25175   0.27196   0.27825   0.27938   0.28984
 Alpha virt. eigenvalues --    0.29078   0.30908   0.32066   0.32446   0.32823

 Mulliken charges:
               1
     1  C   -0.170629
     2  C   -0.218550
     3  C   -0.170946
     4  C    0.157596
     5  C   -0.170770
     6  C   -0.218584
     7  H    0.225977
     8  H    0.223881
     9  H    0.276120
    10  H    0.275796
    11  H    0.223777
    12  N    0.492544
    13  O   -0.459583
    14  O   -0.463493
    15  C   -0.298875
    16  C   -0.300084
    17  C   -0.474702
    18  H    0.143527
    19  H    0.144750
    20  H    0.152118
    21  H    0.167666
    22  H    0.152227
    23  H    0.151399
    24  H    0.152124
    25  C   -0.297695
    26  C   -0.299356
    27  C   -0.474739
    28  H    0.150910
    29  H    0.163780
    30  H    0.147062
    31  H    0.148180
    32  H    0.158851
    33  H    0.154732
    34  H    0.154989
 Sum of Mulliken charges =  -0.00000

 Dipole moment (field-independent basis, Debye):
    X=             -5.1603    Y=              1.7855    Z=              0.3036  Tot=              5.4689
 Quadrupole moment (field-independent basis, Debye-Ang):
   XX=            -70.0565   YY=            -94.4717   ZZ=            -94.5332
   XY=             -1.7361   XZ=             -0.2510   YZ=              1.3643

 Normal termination of Gaussian 16 at Wed May  5 20:29:05 2021.
