 Gaussian 16, Revision A.03,
 Gaussian 16:  EM64L-G16RevA.03 25-Dec-2016

 -------------
 #p 6-31g* mp2
 -------------

 ------------------------------------------------------
 Input file generated by CHIRIPA (05-May-2021 14:55:19)
 ------------------------------------------------------
 Symbolic Z-matrix:
 Charge =  0 Multiplicity = 1

                         Standard orientation:
 ---------------------------------------------------------------------
 Center     Atomic      Atomic             Coordinates (Angstroms)
 Number     Number       Type             X           Y           Z
 ---------------------------------------------------------------------
      1          6           0       -3.535115    1.429115    0.974706
      2          6           0       -2.401094    0.993056    1.667793
      3          6           0       -1.683308   -0.121883    1.224801
      4          6           0       -2.129701   -0.780044    0.079879
      5          6           0       -3.255691   -0.369952   -0.632345
      6          6           0       -3.958049    0.747421   -0.171131
      7          1           0       -4.086716    2.296172    1.325910
      8          1           0       -2.070325    1.520524    2.557970
      9          1           0       -0.801978   -0.480964    1.742233
     10          1           0       -3.561040   -0.916251   -1.516504
     11          1           0       -4.838387    1.083817   -0.711397
     12          7           0       -1.377980   -1.961669   -0.398742
     13          8           0       -1.791834   -2.524208   -1.410133
     14          8           0       -0.389161   -2.302913    0.246568
     15          6           0        2.574852    1.226704   -0.712587
     16          6           0        1.207765    1.763524   -0.287283
     17          6           0        0.600950    2.717490   -1.316612
     18          1           0        3.257595    2.071114   -0.879261
     19          1           0        2.474406    0.710788   -1.677540
     20          1           0        1.310499    2.277075    0.677251
     21          1           0        0.528253    0.917730   -0.121417
     22          1           0        0.469662    2.212766   -2.279222
     23          1           0        1.256352    3.579835   -1.476016
     24          1           0       -0.376065    3.089255   -0.992435
     25          6           0        3.194348    0.271659    0.306158
     26          6           0        4.561436   -0.265161   -0.119145
     27          6           0        5.168250   -1.219127    0.910183
     28          1           0        3.294795    0.787575    1.271112
     29          1           0        2.511606   -0.572751    0.472833
     30          1           0        5.240948    0.580634   -0.285012
     31          1           0        4.458702   -0.778713   -1.083680
     32          1           0        4.512848   -2.081472    1.069587
     33          1           0        5.299539   -0.714403    1.872793
     34          1           0        6.145266   -1.590892    0.586005
 ---------------------------------------------------------------------

 SCF Done:  E(RHF) =  -669.535455287     A.U. after   15 cycles
 E2 =    -0.2093497652D+01 EUMP2 =    -0.67162895293864D+03

 The electronic state is 1-A.
 Alpha  occ. eigenvalues --  -20.60936 -20.60928 -15.85966 -11.31260 -11.27843
 Alpha  occ. eigenvalues --  -11.27830 -11.27588 -11.26836 -11.26826 -11.21466
 Alpha  occ. eigenvalues --  -11.21141 -11.21074 -11.21047 -11.20900 -11.20590
 Alpha  occ. eigenvalues --   -1.59995  -1.39551  -1.19454  -1.08855  -1.08099
 Alpha  occ. eigenvalues --   -1.04847  -1.03241  -0.95703  -0.95677  -0.86708
 Alpha  occ. eigenvalues --   -0.86247  -0.82527  -0.79340  -0.77928  -0.77559
 Alpha  occ. eigenvalues --   -0.72185  -0.71317  -0.70564  -0.65107  -0.64866
 Alpha  occ. eigenvalues --   -0.64693  -0.62193  -0.60648  -0.59090  -0.57312
 Alpha  occ. eigenvalues --   -0.55351  -0.54966  -0.53180  -0.52934  -0.52393
 Alpha  occ. eigenvalues --   -0.52112  -0.49619  -0.48950  -0.48938  -0.47649
 Alpha  occ. eigenvalues --   -0.46374  -0.45504  -0.45395  -0.44827  -0.43477
 Alpha  occ. eigenvalues --   -0.37406  -0.36365
 Alpha virt. eigenvalues --    0.04924   0.11138   0.16393   0.21176   0.23158
 Alpha virt. eigenvalues --    0.24569   0.26194   0.26967   0.27729   0.28145
 Alpha virt. eigenvalues --    0.28950   0.31022   0.31692   0.31883   0.32180

 Mulliken charges:
               1
     1  C   -0.171073
     2  C   -0.216620
     3  C   -0.173356
     4  C    0.160455
     5  C   -0.170676
     6  C   -0.218439
     7  H    0.226129
     8  H    0.224319
     9  H    0.277170
    10  H    0.275785
    11  H    0.223814
    12  N    0.488817
    13  O   -0.459147
    14  O   -0.461977
    15  C   -0.296824
    16  C   -0.304468
    17  C   -0.475361
    18  H    0.147231
    19  H    0.152939
    20  H    0.144787
    21  H    0.156452
    22  H    0.156906
    23  H    0.154479
    24  H    0.156264
    25  C   -0.304921
    26  C   -0.299016
    27  C   -0.476744
    28  H    0.143527
    29  H    0.163970
    30  H    0.148928
    31  H    0.154852
    32  H    0.160816
    33  H    0.151958
    34  H    0.159026
 Sum of Mulliken charges =  -0.00000

 Dipole moment (field-independent basis, Debye):
    X=             -2.7706    Y=              4.0109    Z=              1.6633  Tot=              5.1508
 Quadrupole moment (field-independent basis, Debye-Ang):
   XX=            -82.1009   YY=           -102.0695   ZZ=            -92.1119
   XY=             -6.2247   XZ=             -1.3737   YZ=              0.3794

 Normal termination of Gaussian 16 at Wed May  5 20:31:29 2021.
