 Gaussian 16, Revision A.03,
 Gaussian 16:  EM64L-G16RevA.03 25-Dec-2016

 -------------
 #p 6-31g* mp2
 -------------

 ------------------------------------------------------
 Input file generated by CHIRIPA (05-May-2021 14:55:25)
 ------------------------------------------------------
 Symbolic Z-matrix:
 Charge =  0 Multiplicity = 1

                         Standard orientation:
 ---------------------------------------------------------------------
 Center     Atomic      Atomic             Coordinates (Angstroms)
 Number     Number       Type             X           Y           Z
 ---------------------------------------------------------------------
      1          6           0        0.628903    0.158916    1.132163
      2          6           0        0.802768    0.277365   -0.250682
      3          6           0        2.076312    0.172173   -0.817750
      4          6           0        3.158716   -0.052660    0.031450
      5          6           0        3.017814   -0.175184    1.412907
      6          6           0        1.735031   -0.066583    1.958089
      7          1           0       -0.364005    0.241956    1.564174
      8          1           0       -0.054448    0.452506   -0.894540
      9          1           0        2.239433    0.259893   -1.885044
     10          1           0        3.891487   -0.349615    2.029095
     11          1           0        1.602995   -0.158990    3.032366
     12          7           0        4.511851   -0.165827   -0.557294
     13          8           0        5.449275   -0.364038    0.212501
     14          8           0        4.609392   -0.054172   -1.777399
     15          6           0       -3.569880   -0.651048   -0.420806
     16          6           0       -4.422339   -1.769756    0.179019
     17          6           0       -4.034616   -3.153373   -0.343541
     18          1           0       -3.666450   -0.671631   -1.514970
     19          1           0       -2.511870   -0.845422   -0.196690
     20          1           0       -5.478547   -1.572602   -0.044974
     21          1           0       -4.323880   -1.746388    1.271894
     22          1           0       -2.989033   -3.375481   -0.106841
     23          1           0       -4.150261   -3.200709   -1.431192
     24          1           0       -4.656564   -3.938151    0.098234
     25          6           0       -3.945520    0.738111    0.091892
     26          6           0       -3.093061    1.856818   -0.507935
     27          6           0       -3.480785    3.240436    0.014626
     28          1           0       -5.003531    0.932484   -0.132225
     29          1           0       -3.848951    0.758693    1.186056
     30          1           0       -3.191520    1.833449   -1.600809
     31          1           0       -2.036854    1.659664   -0.283940
     32          1           0       -3.365140    3.287771    1.102278
     33          1           0       -4.526367    3.462544   -0.222073
     34          1           0       -2.858837    4.025213   -0.427148
 ---------------------------------------------------------------------

 SCF Done:  E(RHF) =  -669.535344572     A.U. after   15 cycles
 E2 =    -0.2092265629D+01 EUMP2 =    -0.67162761020053D+03

 The electronic state is 1-A.
 Alpha  occ. eigenvalues --  -20.60753 -20.60748 -15.85806 -11.31178 -11.27746
 Alpha  occ. eigenvalues --  -11.27731 -11.27488 -11.26766 -11.26711 -11.22775
 Alpha  occ. eigenvalues --  -11.22484 -11.22437 -11.22398 -11.21976 -11.21740
 Alpha  occ. eigenvalues --   -1.59828  -1.39381  -1.19348  -1.09465  -1.08743
 Alpha  occ. eigenvalues --   -1.04749  -1.04459  -0.96881  -0.95579  -0.87894
 Alpha  occ. eigenvalues --   -0.86155  -0.82406  -0.80550  -0.79295  -0.77449
 Alpha  occ. eigenvalues --   -0.72025  -0.71151  -0.70474  -0.66159  -0.64994
 Alpha  occ. eigenvalues --   -0.64723  -0.62142  -0.61813  -0.60248  -0.58499
 Alpha  occ. eigenvalues --   -0.56172  -0.55250  -0.53555  -0.53302  -0.53071
 Alpha  occ. eigenvalues --   -0.52849  -0.50827  -0.48868  -0.48779  -0.48760
 Alpha  occ. eigenvalues --   -0.47592  -0.46780  -0.46733  -0.44785  -0.44733
 Alpha  occ. eigenvalues --   -0.37328  -0.36345
 Alpha virt. eigenvalues --    0.05069   0.11185   0.16560   0.18590   0.22617
 Alpha virt. eigenvalues --    0.23570   0.24822   0.25555   0.27004   0.28005
 Alpha virt. eigenvalues --    0.30096   0.30253   0.30928   0.31378   0.31835

 Mulliken charges:
               1
     1  C   -0.173710
     2  C   -0.223205
     3  C   -0.171228
     4  C    0.158713
     5  C   -0.171079
     6  C   -0.218599
     7  H    0.226544
     8  H    0.230425
     9  H    0.275895
    10  H    0.275591
    11  H    0.223327
    12  N    0.487987
    13  O   -0.460416
    14  O   -0.460295
    15  C   -0.302338
    16  C   -0.299812
    17  C   -0.476594
    18  H    0.152865
    19  H    0.143138
    20  H    0.155155
    21  H    0.151278
    22  H    0.155783
    23  H    0.157043
    24  H    0.163100
    25  C   -0.298833
    26  C   -0.306494
    27  C   -0.475310
    28  H    0.155086
    29  H    0.147488
    30  H    0.155344
    31  H    0.145089
    32  H    0.155180
    33  H    0.159114
    34  H    0.163771
 Sum of Mulliken charges =  -0.00000

 Dipole moment (field-independent basis, Debye):
    X=             -4.9862    Y=              0.4063    Z=              2.0288  Tot=              5.3985
 Quadrupole moment (field-independent basis, Debye-Ang):
   XX=           -123.2593   YY=            -96.1841   ZZ=            -89.9963
   XY=              1.2452   XZ=              9.2023   YZ=             -1.2574

 Normal termination of Gaussian 16 at Thu May  6 00:04:12 2021.
