 Gaussian 16, Revision A.03,
 Gaussian 16:  EM64L-G16RevA.03 25-Dec-2016

 -------------
 #p 6-31g* mp2
 -------------

 ------------------------------------------------------
 Input file generated by CHIRIPA (05-May-2021 14:51:13)
 ------------------------------------------------------
 Symbolic Z-matrix:
 Charge =  0 Multiplicity = 1

                         Standard orientation:
 ---------------------------------------------------------------------
 Center     Atomic      Atomic             Coordinates (Angstroms)
 Number     Number       Type             X           Y           Z
 ---------------------------------------------------------------------
      1          6           0       -2.781617   -0.482601   -0.419905
      2          6           0       -2.287598   -1.926715   -0.327896
      3          6           0       -2.944512   -2.843154   -1.360562
      4          1           0       -3.871955   -0.465571   -0.286418
      5          1           0       -2.584390   -0.098633   -1.430382
      6          1           0       -2.484446   -2.307389    0.682527
      7          1           0       -1.198286   -1.940289   -0.461426
      8          1           0       -2.737371   -2.490157   -2.375986
      9          1           0       -4.030839   -2.859343   -1.225533
     10          1           0       -2.576903   -3.870645   -1.276981
     11          6           0       -2.134062    0.445732    0.606057
     12          6           0       -2.628081    1.889845    0.514048
     13          6           0       -1.971167    2.806284    1.546714
     14          1           0       -2.331289    0.061763    1.616534
     15          1           0       -1.043724    0.428701    0.472570
     16          1           0       -3.717393    1.903420    0.647578
     17          1           0       -2.431233    2.270520   -0.496375
     18          1           0       -0.884840    2.822473    1.411685
     19          1           0       -2.178309    2.453287    2.562138
     20          1           0       -2.338777    3.833775    1.463133
     21          6           0        2.862987   -0.622135    0.001578
     22          6           0        2.181033   -1.641581    0.914624
     23          6           0        3.003786   -2.917751    1.094233
     24          1           0        3.046747   -1.082649   -0.978781
     25          1           0        3.848004   -0.368955    0.417555
     26          1           0        1.197017   -1.891719    0.497779
     27          1           0        1.998701   -1.178525    1.892863
     28          1           0        3.980639   -2.687927    1.531886
     29          1           0        3.174399   -3.405173    0.128876
     30          1           0        2.497727   -3.632643    1.750506
     31          6           0        2.052693    0.659004   -0.187729
     32          6           0        2.734646    1.678450   -1.100776
     33          6           0        1.911893    2.954622   -1.280384
     34          1           0        1.067676    0.405826   -0.603706
     35          1           0        1.868933    1.119518    0.792629
     36          1           0        2.916978    1.215394   -2.079014
     37          1           0        3.718662    1.928589   -0.683932
     38          1           0        1.741279    3.442043   -0.315029
     39          1           0        0.935040    2.724796   -1.718038
     40          1           0        2.417952    3.669512   -1.936657
 ---------------------------------------------------------------------

 SCF Done:  E(RHF) =  -470.733004321     A.U. after   11 cycles
 E2 =    -0.1584655629D+01 EUMP2 =    -0.47231765994972D+03

 The electronic state is 1-A.
 Alpha  occ. eigenvalues --  -11.21683 -11.21621 -11.21619 -11.21542 -11.21487
 Alpha  occ. eigenvalues --  -11.21418 -11.21368 -11.21244 -11.21156 -11.21090
 Alpha  occ. eigenvalues --  -11.21089 -11.21009  -1.08519  -1.08382  -1.03592
 Alpha  occ. eigenvalues --   -1.03498  -0.96047  -0.95942  -0.87064  -0.86959
 Alpha  occ. eigenvalues --   -0.79690  -0.79532  -0.78499  -0.78050  -0.65273
 Alpha  occ. eigenvalues --   -0.64907  -0.61035  -0.60868  -0.59423  -0.59295
 Alpha  occ. eigenvalues --   -0.57697  -0.57526  -0.55367  -0.55204  -0.52734
 Alpha  occ. eigenvalues --   -0.52645  -0.52517  -0.52325  -0.50014  -0.49871
 Alpha  occ. eigenvalues --   -0.48118  -0.47769  -0.46767  -0.46567  -0.46491
 Alpha  occ. eigenvalues --   -0.45777  -0.45705  -0.44940  -0.43843  -0.43745
 Alpha virt. eigenvalues --    0.19976   0.21850   0.23520   0.24782   0.25298
 Alpha virt. eigenvalues --    0.25825   0.26856   0.27427   0.28560   0.30261
 Alpha virt. eigenvalues --    0.30739   0.31223   0.31627   0.31775   0.32244

 Mulliken charges:
               1
     1  C   -0.297676
     2  C   -0.305849
     3  C   -0.475356
     4  H    0.149762
     5  H    0.148315
     6  H    0.152425
     7  H    0.156394
     8  H    0.154866
     9  H    0.155504
    10  H    0.160212
    11  C   -0.307931
    12  C   -0.298875
    13  C   -0.477468
    14  H    0.149013
    15  H    0.160278
    16  H    0.151583
    17  H    0.151329
    18  H    0.157038
    19  H    0.154686
    20  H    0.160002
    21  C   -0.297553
    22  C   -0.306975
    23  C   -0.475382
    24  H    0.149451
    25  H    0.149901
    26  H    0.158497
    27  H    0.152530
    28  H    0.155240
    29  H    0.155013
    30  H    0.160614
    31  C   -0.304737
    32  C   -0.299171
    33  C   -0.477132
    34  H    0.153931
    35  H    0.150718
    36  H    0.152102
    37  H    0.152477
    38  H    0.156255
    39  H    0.155017
    40  H    0.160951
 Sum of Mulliken charges =  -0.00000

 Dipole moment (field-independent basis, Debye):
    X=              0.0546    Y=             -0.0033    Z=              0.0038  Tot=              0.0548
 Quadrupole moment (field-independent basis, Debye-Ang):
   XX=            -84.4082   YY=            -86.1502   ZZ=            -84.2058
   XY=              0.5954   XZ=             -0.4981   YZ=             -0.1677

 Normal termination of Gaussian 16 at Thu May  6 02:23:54 2021.
