 Gaussian 16, Revision A.03,
 Gaussian 16:  EM64L-G16RevA.03 25-Dec-2016

 -------------
 #p 6-31g* mp2
 -------------

 ------------------------------------------------------
 Input file generated by CHIRIPA (05-May-2021 14:55:25)
 ------------------------------------------------------
 Symbolic Z-matrix:
 Charge =  0 Multiplicity = 1

                         Standard orientation:
 ---------------------------------------------------------------------
 Center     Atomic      Atomic             Coordinates (Angstroms)
 Number     Number       Type             X           Y           Z
 ---------------------------------------------------------------------
      1          6           0       -1.213562    1.199734    0.812297
      2          6           0       -2.137105    0.755069    1.764064
      3          6           0       -3.288434    0.067359    1.369039
      4          6           0       -3.485496   -0.159442    0.007783
      5          6           0       -2.583950    0.270995   -0.964445
      6          6           0       -1.439533    0.956706   -0.546525
      7          1           0       -0.321866    1.733187    1.128054
      8          1           0       -1.964209    0.942389    2.820029
      9          1           0       -4.019826   -0.287999    2.084725
     10          1           0       -2.783666    0.069321   -2.009844
     11          1           0       -0.724018    1.300875   -1.287896
     12          7           0       -4.700698   -0.886432   -0.422531
     13          8           0       -4.851207   -1.073628   -1.627911
     14          8           0       -5.479655   -1.255285    0.453717
     15          6           0        3.680439    0.552450    0.136859
     16          6           0        3.598451    1.804005   -0.737711
     17          6           0        2.544388    2.798246   -0.249620
     18          1           0        2.696628    0.064067    0.160165
     19          1           0        3.906305    0.849890    1.170255
     20          1           0        3.374174    1.504192   -1.769421
     21          1           0        4.582621    2.289361   -0.759092
     22          1           0        2.767179    3.125837    0.770992
     23          1           0        1.551866    2.336208   -0.245078
     24          1           0        2.502692    3.685411   -0.889199
     25          6           0        4.729716   -0.451009   -0.338342
     26          6           0        4.811703   -1.702565    0.536227
     27          6           0        5.865765   -2.696805    0.048137
     28          1           0        4.503848   -0.748449   -1.371739
     29          1           0        5.713526    0.037373   -0.361648
     30          1           0        3.827534   -2.187919    0.557608
     31          1           0        5.035981   -1.402751    1.567939
     32          1           0        6.858288   -2.234767    0.043595
     33          1           0        5.642975   -3.024397   -0.972474
     34          1           0        5.907462   -3.583970    0.687716
 ---------------------------------------------------------------------

 SCF Done:  E(RHF) =  -669.535381107     A.U. after   15 cycles
 E2 =    -0.2091376236D+01 EUMP2 =    -0.67162675734297D+03

 The electronic state is 1-A.
 Alpha  occ. eigenvalues --  -20.60740 -20.60735 -15.85794 -11.31153 -11.27729
 Alpha  occ. eigenvalues --  -11.27721 -11.27425 -11.26733 -11.26721 -11.22584
 Alpha  occ. eigenvalues --  -11.22389 -11.22237 -11.22125 -11.22012 -11.21482
 Alpha  occ. eigenvalues --   -1.59816  -1.39370  -1.19326  -1.09207  -1.08719
 Alpha  occ. eigenvalues --   -1.04731  -1.04325  -0.96797  -0.95555  -0.87817
 Alpha  occ. eigenvalues --   -0.86129  -0.82391  -0.80403  -0.78978  -0.77440
 Alpha  occ. eigenvalues --   -0.72012  -0.71139  -0.70450  -0.65846  -0.64979
 Alpha  occ. eigenvalues --   -0.64748  -0.62110  -0.61692  -0.60175  -0.58388
 Alpha  occ. eigenvalues --   -0.56127  -0.55219  -0.53477  -0.53200  -0.53057
 Alpha  occ. eigenvalues --   -0.52819  -0.50742  -0.48772  -0.48769  -0.48701
 Alpha  occ. eigenvalues --   -0.47424  -0.46527  -0.46420  -0.44776  -0.44553
 Alpha  occ. eigenvalues --   -0.37299  -0.36338
 Alpha virt. eigenvalues --    0.05095   0.11298   0.16578   0.19431   0.22484
 Alpha virt. eigenvalues --    0.23841   0.25422   0.26190   0.27017   0.27325
 Alpha virt. eigenvalues --    0.29138   0.30136   0.30890   0.31260   0.32050

 Mulliken charges:
               1
     1  C   -0.174701
     2  C   -0.218645
     3  C   -0.170827
     4  C    0.158221
     5  C   -0.170815
     6  C   -0.221666
     7  H    0.231231
     8  H    0.223596
     9  H    0.275467
    10  H    0.275419
    11  H    0.224314
    12  N    0.488052
    13  O   -0.460591
    14  O   -0.460464
    15  C   -0.299673
    16  C   -0.299764
    17  C   -0.481862
    18  H    0.147647
    19  H    0.149840
    20  H    0.153213
    21  H    0.156668
    22  H    0.157671
    23  H    0.145705
    24  H    0.165898
    25  C   -0.298709
    26  C   -0.300410
    27  C   -0.476169
    28  H    0.150874
    29  H    0.151326
    30  H    0.152994
    31  H    0.152042
    32  H    0.155799
    33  H    0.156280
    34  H    0.162038
 Sum of Mulliken charges =  -0.00000

 Dipole moment (field-independent basis, Debye):
    X=              4.5159    Y=              2.5491    Z=              1.5087  Tot=              5.4007
 Quadrupole moment (field-independent basis, Debye-Ang):
   XX=           -124.0549   YY=            -96.5931   ZZ=            -89.8795
   XY=             -8.5408   XZ=             -6.4037   YZ=             -0.6121

 Normal termination of Gaussian 16 at Thu May  6 19:21:06 2021.
