 Gaussian 16, Revision A.03,
 Gaussian 16:  EM64L-G16RevA.03 25-Dec-2016

 -------------
 #p 6-31g* mp2
 -------------

 ------------------------------------------------------
 Input file generated by CHIRIPA (05-May-2021 14:53:12)
 ------------------------------------------------------
 Symbolic Z-matrix:
 Charge =  0 Multiplicity = 1

                         Standard orientation:
 ---------------------------------------------------------------------
 Center     Atomic      Atomic             Coordinates (Angstroms)
 Number     Number       Type             X           Y           Z
 ---------------------------------------------------------------------
      1          6           0        3.257097    0.436572    0.203272
      2          6           0        3.236619   -1.002712   -0.312505
      3          6           0        4.379572   -1.848481    0.249749
      4          1           0        4.219308    0.898768   -0.056481
      5          1           0        3.201401    0.426278    1.300627
      6          1           0        3.290943   -0.989659   -1.408632
      7          1           0        2.274271   -1.461474   -0.051661
      8          1           0        4.325748   -1.891276    1.342393
      9          1           0        5.348196   -1.416781   -0.022287
     10          1           0        4.345808   -2.873658   -0.131999
     11          6           0        2.120614    1.294564   -0.349885
     12          6           0        2.141092    2.733849    0.165892
     13          6           0        0.998139    3.579618   -0.396361
     14          1           0        2.176310    1.304859   -1.447239
     15          1           0        1.158403    0.832369   -0.090132
     16          1           0        3.103440    3.192610   -0.094952
     17          1           0        2.086768    2.720796    1.262019
     18          1           0        0.029515    3.147918   -0.124325
     19          1           0        1.051963    3.622413   -1.489006
     20          1           0        1.031903    4.604795   -0.014614
     21          6           0       -0.328115   -2.467088   -0.072302
     22          6           0       -1.053047   -2.115673   -1.215763
     23          6           0       -2.037503   -1.124825   -1.155656
     24          6           0       -2.272032   -0.503091    0.069798
     25          6           0       -1.566569   -0.831061    1.226537
     26          6           0       -0.586734   -1.824793    1.143056
     27          1           0        0.434839   -3.237923   -0.128073
     28          1           0       -0.854341   -2.612805   -2.160972
     29          1           0       -2.613548   -0.833224   -2.025459
     30          1           0       -1.787199   -0.317756    2.154577
     31          1           0       -0.025296   -2.095657    2.032699
     32          7           0       -3.311786    0.547402    0.145803
     33          8           0       -3.499368    1.080173    1.237408
     34          8           0       -3.919474    0.818116   -0.887670
 ---------------------------------------------------------------------

 SCF Done:  E(RHF) =  -669.534891695     A.U. after   15 cycles
 E2 =    -0.2093938076D+01 EUMP2 =    -0.67162882977157D+03

 The electronic state is 1-A.
 Alpha  occ. eigenvalues --  -20.60852 -20.60846 -15.85908 -11.31309 -11.27894
 Alpha  occ. eigenvalues --  -11.27869 -11.27609 -11.26901 -11.26865 -11.22085
 Alpha  occ. eigenvalues --  -11.21729 -11.21700 -11.21631 -11.21482 -11.20935
 Alpha  occ. eigenvalues --   -1.59928  -1.39480  -1.19491  -1.08895  -1.08682
 Alpha  occ. eigenvalues --   -1.04889  -1.03798  -0.96231  -0.95707  -0.87244
 Alpha  occ. eigenvalues --   -0.86285  -0.82533  -0.79889  -0.78479  -0.77570
 Alpha  occ. eigenvalues --   -0.72123  -0.71254  -0.70604  -0.65369  -0.65129
 Alpha  occ. eigenvalues --   -0.64873  -0.62229  -0.61206  -0.59648  -0.57839
 Alpha  occ. eigenvalues --   -0.55540  -0.55368  -0.53310  -0.52974  -0.52898
 Alpha  occ. eigenvalues --   -0.52650  -0.50177  -0.48885  -0.48876  -0.48195
 Alpha  occ. eigenvalues --   -0.46946  -0.46004  -0.45889  -0.44877  -0.44031
 Alpha  occ. eigenvalues --   -0.37362  -0.36479
 Alpha virt. eigenvalues --    0.04928   0.11098   0.16362   0.20700   0.22806
 Alpha virt. eigenvalues --    0.24026   0.26267   0.26840   0.27354   0.27518
 Alpha virt. eigenvalues --    0.28647   0.30527   0.31207   0.31680   0.32069

 Mulliken charges:
               1
     1  C   -0.296623
     2  C   -0.306460
     3  C   -0.475614
     4  H    0.150852
     5  H    0.147129
     6  H    0.151390
     7  H    0.151360
     8  H    0.153573
     9  H    0.158822
    10  H    0.155842
    11  C   -0.302359
    12  C   -0.299908
    13  C   -0.475732
    14  H    0.148583
    15  H    0.154413
    16  H    0.151277
    17  H    0.151065
    18  H    0.158490
    19  H    0.154811
    20  H    0.161884
    21  C   -0.169760
    22  C   -0.218310
    23  C   -0.170392
    24  C    0.158742
    25  C   -0.172198
    26  C   -0.218025
    27  H    0.227939
    28  H    0.224408
    29  H    0.276297
    30  H    0.276162
    31  H    0.224509
    32  N    0.487871
    33  O   -0.460347
    34  O   -0.459692
 Sum of Mulliken charges =  -0.00000

 Dipole moment (field-independent basis, Debye):
    X=              3.5345    Y=             -3.6659    Z=             -0.3025  Tot=              5.1013
 Quadrupole moment (field-independent basis, Debye-Ang):
   XX=           -112.5324   YY=            -91.9976   ZZ=            -89.5437
   XY=              7.6357   XZ=              1.2314   YZ=              0.6152

 Normal termination of Gaussian 16 at Thu May  6 05:43:26 2021.
