 Gaussian 16, Revision A.03,
 Gaussian 16:  EM64L-G16RevA.03 25-Dec-2016

 -------------
 #p 6-31g* mp2
 -------------

 ------------------------------------------------------
 Input file generated by CHIRIPA (05-May-2021 14:53:15)
 ------------------------------------------------------
 Symbolic Z-matrix:
 Charge =  0 Multiplicity = 1

                         Standard orientation:
 ---------------------------------------------------------------------
 Center     Atomic      Atomic             Coordinates (Angstroms)
 Number     Number       Type             X           Y           Z
 ---------------------------------------------------------------------
      1          6           0       -3.671181    0.152336   -0.026923
      2          6           0       -3.724920   -1.129978   -0.858046
      3          6           0       -4.882389   -2.045511   -0.458223
      4          1           0       -3.582210   -0.110673    1.036023
      5          1           0       -4.621831    0.692326   -0.136795
      6          1           0       -2.773931   -1.666698   -0.747737
      7          1           0       -3.813580   -0.863883   -1.919154
      8          1           0       -5.841088   -1.532347   -0.585346
      9          1           0       -4.795532   -2.339723    0.592727
     10          1           0       -4.901972   -2.956192   -1.064966
     11          6           0       -2.519392    1.077876   -0.414847
     12          6           0       -2.465653    2.360191    0.416277
     13          6           0       -1.308184    3.275723    0.016453
     14          1           0       -1.568742    0.537886   -0.304975
     15          1           0       -2.608363    1.340885   -1.477793
     16          1           0       -2.376993    2.094096    1.477384
     17          1           0       -3.416642    2.896910    0.305967
     18          1           0       -1.395041    3.569935   -1.034497
     19          1           0       -0.349485    2.762559    0.143576
     20          1           0       -1.288601    4.186404    0.623197
     21          6           0        4.361867    0.805339   -0.794150
     22          6           0        3.389654    1.469249   -0.038804
     23          6           0        2.308403    0.766870    0.501667
     24          6           0        2.230286   -0.604867    0.266025
     25          6           0        3.182907   -1.294689   -0.482271
     26          6           0        4.255577   -0.572082   -1.013087
     27          1           0        5.198475    1.358821   -1.210250
     28          1           0        3.469630    2.538915    0.132846
     29          1           0        1.541615    1.255828    1.090202
     30          1           0        3.076109   -2.361593   -0.636315
     31          1           0        5.009130   -1.090306   -1.599303
     32          7           0        1.090156   -1.359151    0.833086
     33          8           0        1.044191   -2.567140    0.611079
     34          8           0        0.264074   -0.728088    1.488819
 ---------------------------------------------------------------------

 SCF Done:  E(RHF) =  -669.536352761     A.U. after   15 cycles
 E2 =    -0.2092371055D+01 EUMP2 =    -0.67162872381583D+03

 The electronic state is 1-A.
 Alpha  occ. eigenvalues --  -20.61041 -20.61036 -15.86052 -11.31325 -11.27879
 Alpha  occ. eigenvalues --  -11.27872 -11.27604 -11.26881 -11.26868 -11.21061
 Alpha  occ. eigenvalues --  -11.20967 -11.20646 -11.20518 -11.20427 -11.20217
 Alpha  occ. eigenvalues --   -1.60092  -1.39650  -1.19488  -1.08901  -1.07623
 Alpha  occ. eigenvalues --   -1.04876  -1.02856  -0.95752  -0.95330  -0.86369
 Alpha  occ. eigenvalues --   -0.86272  -0.82587  -0.78928  -0.77663  -0.77401
 Alpha  occ. eigenvalues --   -0.72281  -0.71402  -0.70601  -0.65147  -0.64886
 Alpha  occ. eigenvalues --   -0.64210  -0.62240  -0.60236  -0.58726  -0.56936
 Alpha  occ. eigenvalues --   -0.55389  -0.54625  -0.53204  -0.52965  -0.52076
 Alpha  occ. eigenvalues --   -0.51773  -0.49301  -0.49038  -0.49022  -0.47259
 Alpha  occ. eigenvalues --   -0.45973  -0.45315  -0.44941  -0.44508  -0.43062
 Alpha  occ. eigenvalues --   -0.37460  -0.36465
 Alpha virt. eigenvalues --    0.04822   0.11117   0.16310   0.20550   0.23393
 Alpha virt. eigenvalues --    0.24555   0.26432   0.27481   0.28004   0.28495
 Alpha virt. eigenvalues --    0.29261   0.30891   0.31459   0.32082   0.32682

 Mulliken charges:
               1
     1  C   -0.297385
     2  C   -0.301559
     3  C   -0.475429
     4  H    0.157283
     5  H    0.143961
     6  H    0.161791
     7  H    0.146320
     8  H    0.151173
     9  H    0.158181
    10  H    0.158254
    11  C   -0.302372
    12  C   -0.298672
    13  C   -0.476580
    14  H    0.160830
    15  H    0.142747
    16  H    0.157680
    17  H    0.149602
    18  H    0.154457
    19  H    0.145910
    20  H    0.157575
    21  C   -0.170443
    22  C   -0.219082
    23  C   -0.173753
    24  C    0.158443
    25  C   -0.170648
    26  C   -0.218356
    27  H    0.226267
    28  H    0.224734
    29  H    0.279733
    30  H    0.275820
    31  H    0.223997
    32  N    0.487514
    33  O   -0.458298
    34  O   -0.459696
 Sum of Mulliken charges =  -0.00000

 Dipole moment (field-independent basis, Debye):
    X=              4.2022    Y=              2.4692    Z=             -1.8828  Tot=              5.2250
 Quadrupole moment (field-independent basis, Debye-Ang):
   XX=            -77.3542   YY=            -95.3945   ZZ=            -95.3836
   XY=              1.1828   XZ=             -4.3347   YZ=              3.7008

 Normal termination of Gaussian 16 at Thu May  6 18:49:44 2021.
