 Gaussian 16, Revision A.03,
 Gaussian 16:  EM64L-G16RevA.03 25-Dec-2016

 -------------
 #p 6-31g* mp2
 -------------

 ------------------------------------------------------
 Input file generated by CHIRIPA (05-May-2021 14:55:23)
 ------------------------------------------------------
 Symbolic Z-matrix:
 Charge =  0 Multiplicity = 1

                         Standard orientation:
 ---------------------------------------------------------------------
 Center     Atomic      Atomic             Coordinates (Angstroms)
 Number     Number       Type             X           Y           Z
 ---------------------------------------------------------------------
      1          6           0       -2.537407    2.755680   -0.418209
      2          6           0       -2.002451    2.306419    0.793611
      3          6           0       -2.049339    0.950544    1.131181
      4          6           0       -2.641217    0.067530    0.229373
      5          6           0       -3.182897    0.484387   -0.985576
      6          6           0       -3.124886    1.844836   -1.302377
      7          1           0       -2.496663    3.810732   -0.672374
      8          1           0       -1.545601    3.011528    1.482199
      9          1           0       -1.642863    0.575607    2.062640
     10          1           0       -3.631918   -0.242360   -1.651637
     11          1           0       -3.541143    2.190893   -2.244194
     12          7           0       -2.696743   -1.370295    0.575749
     13          8           0       -3.223583   -2.128088   -0.235932
     14          8           0       -2.212372   -1.712244    1.652361
     15          6           0        2.616827   -0.483410   -0.126554
     16          6           0        2.049610   -1.664289   -0.915081
     17          6           0        0.543601   -1.838727   -0.716833
     18          1           0        2.400132   -0.625640    0.941041
     19          1           0        2.097080    0.435503   -0.431277
     20          1           0        2.571230   -2.580493   -0.609960
     21          1           0        2.267848   -1.519326   -1.980902
     22          1           0        0.006078   -0.941105   -1.039238
     23          1           0        0.311183   -2.008302    0.339495
     24          1           0        0.159055   -2.688472   -1.289473
     25          6           0        4.121262   -0.296112   -0.314499
     26          6           0        4.688478    0.884767    0.474028
     27          6           0        6.194487    1.059204    0.275779
     28          1           0        4.641009   -1.215025   -0.009777
     29          1           0        4.337957   -0.153883   -1.382095
     30          1           0        4.470240    0.739804    1.539849
     31          1           0        4.166859    1.800971    0.168906
     32          1           0        6.426906    1.228780   -0.780548
     33          1           0        6.732011    0.161583    0.598184
     34          1           0        6.579035    1.908950    0.848419
 ---------------------------------------------------------------------

 SCF Done:  E(RHF) =  -669.535648195     A.U. after   15 cycles
 E2 =    -0.2092980746D+01 EUMP2 =    -0.67162862894150D+03

 The electronic state is 1-A.
 Alpha  occ. eigenvalues --  -20.60816 -20.60782 -15.85817 -11.31179 -11.27754
 Alpha  occ. eigenvalues --  -11.27745 -11.27502 -11.26782 -11.26771 -11.21608
 Alpha  occ. eigenvalues --  -11.21288 -11.21248 -11.21176 -11.21085 -11.20423
 Alpha  occ. eigenvalues --   -1.59852  -1.39412  -1.19365  -1.08760  -1.08267
 Alpha  occ. eigenvalues --   -1.04766  -1.03317  -0.95760  -0.95596  -0.86786
 Alpha  occ. eigenvalues --   -0.86163  -0.82433  -0.79420  -0.78092  -0.77477
 Alpha  occ. eigenvalues --   -0.72061  -0.71146  -0.70472  -0.65020  -0.64899
 Alpha  occ. eigenvalues --   -0.64771  -0.62113  -0.60718  -0.59135  -0.57371
 Alpha  occ. eigenvalues --   -0.55271  -0.55070  -0.53123  -0.52859  -0.52414
 Alpha  occ. eigenvalues --   -0.52165  -0.49707  -0.48821  -0.48815  -0.47719
 Alpha  occ. eigenvalues --   -0.46468  -0.45639  -0.45565  -0.44690  -0.43561
 Alpha  occ. eigenvalues --   -0.37309  -0.36370
 Alpha virt. eigenvalues --    0.05030   0.11264   0.16485   0.21396   0.23018
 Alpha virt. eigenvalues --    0.24551   0.26749   0.27281   0.27588   0.28031
 Alpha virt. eigenvalues --    0.28414   0.30941   0.31477   0.31960   0.32350

 Mulliken charges:
               1
     1  C   -0.171192
     2  C   -0.218503
     3  C   -0.170829
     4  C    0.159914
     5  C   -0.172302
     6  C   -0.218538
     7  H    0.225527
     8  H    0.223612
     9  H    0.275473
    10  H    0.275833
    11  H    0.223442
    12  N    0.492471
    13  O   -0.458882
    14  O   -0.460269
    15  C   -0.298223
    16  C   -0.299359
    17  C   -0.490455
    18  H    0.150047
    19  H    0.145855
    20  H    0.153346
    21  H    0.149192
    22  H    0.147602
    23  H    0.170668
    24  H    0.167725
    25  C   -0.297939
    26  C   -0.299162
    27  C   -0.475501
    28  H    0.150732
    29  H    0.148935
    30  H    0.151592
    31  H    0.149018
    32  H    0.154901
    33  H    0.156140
    34  H    0.159132
 Sum of Mulliken charges =  -0.00000

 Dipole moment (field-independent basis, Debye):
    X=              0.0888    Y=              4.9610    Z=             -1.1724  Tot=              5.0984
 Quadrupole moment (field-independent basis, Debye-Ang):
   XX=            -96.7362   YY=            -93.9329   ZZ=            -91.2118
   XY=            -13.4473   XZ=              5.9239   YZ=              1.4854

 Normal termination of Gaussian 16 at Thu May  6 09:27:47 2021.
