 Gaussian 16, Revision A.03,
 Gaussian 16:  EM64L-G16RevA.03 25-Dec-2016

 -------------
 #p 6-31g* mp2
 -------------

 ------------------------------------------------------
 Input file generated by CHIRIPA (05-May-2021 14:51:09)
 ------------------------------------------------------
 Symbolic Z-matrix:
 Charge =  0 Multiplicity = 1

                         Standard orientation:
 ---------------------------------------------------------------------
 Center     Atomic      Atomic             Coordinates (Angstroms)
 Number     Number       Type             X           Y           Z
 ---------------------------------------------------------------------
      1          6           0        2.788332    1.054374   -0.298097
      2          6           0        2.856400    2.435712    0.354020
      3          6           0        1.842339    3.417536   -0.233769
      4          1           0        2.959067    1.157142   -1.378483
      5          1           0        1.773583    0.650003   -0.179083
      6          1           0        3.871097    2.836767    0.235020
      7          1           0        2.685673    2.329621    1.433007
      8          1           0        0.822157    3.042858   -0.101684
      9          1           0        2.014317    3.552885   -1.306478
     10          1           0        1.908324    4.398615    0.246846
     11          6           0        3.796070    0.061746    0.278861
     12          6           0        3.728002   -1.319592   -0.373256
     13          6           0        4.742062   -2.301417    0.214533
     14          1           0        4.810818    0.466116    0.159847
     15          1           0        3.625334   -0.041022    1.359247
     16          1           0        3.898729   -1.213501   -1.452243
     17          1           0        2.713305   -1.720647   -0.254256
     18          1           0        4.570085   -2.436766    1.287242
     19          1           0        5.762244   -1.926739    0.082448
     20          1           0        4.676077   -3.282496   -0.266082
     21          6           0       -2.645380   -0.755785    0.364525
     22          6           0       -1.606451   -1.376717   -0.569852
     23          6           0       -0.317938   -1.767033    0.154839
     24          1           0       -2.211664    0.130601    0.847385
     25          1           0       -2.877154   -1.467842    1.168671
     26          1           0       -1.377732   -0.664244   -1.372775
     27          1           0       -2.042756   -2.261618   -1.050689
     28          1           0       -0.525819   -2.496381    0.944420
     29          1           0        0.142984   -0.889932    0.620505
     30          1           0        0.410815   -2.208890   -0.531851
     31          6           0       -3.939022   -0.360334   -0.345288
     32          6           0       -4.977949    0.260598    0.589088
     33          6           0       -6.266465    0.650914   -0.135603
     34          1           0       -3.707248    0.351722   -1.149435
     35          1           0       -4.372739   -1.246721   -0.828149
     36          1           0       -4.541645    1.145499    1.069925
     37          1           0       -5.206669   -0.451875    1.392011
     38          1           0       -6.727386   -0.226189   -0.601269
     39          1           0       -6.058583    1.380262   -0.925184
     40          1           0       -6.995217    1.092770    0.551087
 ---------------------------------------------------------------------

 SCF Done:  E(RHF) =  -470.732397941     A.U. after   11 cycles
 E2 =    -0.1583694489D+01 EUMP2 =    -0.47231609242973D+03

 The electronic state is 1-A.
 Alpha  occ. eigenvalues --  -11.21665 -11.21628 -11.21588 -11.21463 -11.21454
 Alpha  occ. eigenvalues --  -11.21390 -11.21341 -11.21282 -11.21147 -11.21090
 Alpha  occ. eigenvalues --  -11.21089 -11.20997  -1.08484  -1.08376  -1.03587
 Alpha  occ. eigenvalues --   -1.03481  -0.96046  -0.95936  -0.87070  -0.86953
 Alpha  occ. eigenvalues --   -0.79684  -0.79532  -0.78307  -0.78170  -0.65198
 Alpha  occ. eigenvalues --   -0.64957  -0.60984  -0.60915  -0.59466  -0.59247
 Alpha  occ. eigenvalues --   -0.57676  -0.57526  -0.55452  -0.55126  -0.52817
 Alpha  occ. eigenvalues --   -0.52603  -0.52485  -0.52331  -0.50046  -0.49845
 Alpha  occ. eigenvalues --   -0.48023  -0.47811  -0.46756  -0.46572  -0.45894
 Alpha  occ. eigenvalues --   -0.45775  -0.45717  -0.45439  -0.43781  -0.43707
 Alpha virt. eigenvalues --    0.21006   0.23110   0.24078   0.24179   0.26209
 Alpha virt. eigenvalues --    0.26871   0.27101   0.27464   0.27759   0.29307
 Alpha virt. eigenvalues --    0.29995   0.31591   0.31770   0.31934   0.32271

 Mulliken charges:
               1
     1  C   -0.305428
     2  C   -0.299340
     3  C   -0.475373
     4  H    0.149317
     5  H    0.156426
     6  H    0.152066
     7  H    0.151560
     8  H    0.153915
     9  H    0.155282
    10  H    0.160310
    11  C   -0.297175
    12  C   -0.308809
    13  C   -0.475057
    14  H    0.149202
    15  H    0.149090
    16  H    0.150723
    17  H    0.162569
    18  H    0.155030
    19  H    0.154691
    20  H    0.159619
    21  C   -0.298607
    22  C   -0.300341
    23  C   -0.482667
    24  H    0.149163
    25  H    0.149694
    26  H    0.152930
    27  H    0.152444
    28  H    0.155716
    29  H    0.158109
    30  H    0.164301
    31  C   -0.298385
    32  C   -0.299676
    33  C   -0.475745
    34  H    0.149802
    35  H    0.149803
    36  H    0.151994
    37  H    0.151943
    38  H    0.155215
    39  H    0.155329
    40  H    0.160358
 Sum of Mulliken charges =  -0.00000

 Dipole moment (field-independent basis, Debye):
    X=             -0.0578    Y=             -0.0284    Z=             -0.0057  Tot=              0.0647
 Quadrupole moment (field-independent basis, Debye-Ang):
   XX=            -85.8210   YY=            -84.6357   ZZ=            -84.5271
   XY=              1.4904   XZ=             -1.1242   YZ=              0.0102

 Normal termination of Gaussian 16 at Wed May  5 16:37:53 2021.
