 Gaussian 16, Revision A.03,
 Gaussian 16:  EM64L-G16RevA.03 25-Dec-2016

 -------------
 #p 6-31g* mp2
 -------------

 ------------------------------------------------------
 Input file generated by CHIRIPA (05-May-2021 14:53:14)
 ------------------------------------------------------
 Symbolic Z-matrix:
 Charge =  0 Multiplicity = 1

                         Standard orientation:
 ---------------------------------------------------------------------
 Center     Atomic      Atomic             Coordinates (Angstroms)
 Number     Number       Type             X           Y           Z
 ---------------------------------------------------------------------
      1          6           0        3.900587   -0.205285   -0.147683
      2          6           0        5.109689   -0.882996    0.497892
      3          6           0        5.283309   -2.334338    0.049278
      4          1           0        2.994502   -0.776769    0.095958
      5          1           0        4.008730   -0.241794   -1.240554
      6          1           0        4.999969   -0.843994    1.589248
      7          1           0        6.012976   -0.309725    0.252845
      8          1           0        5.418004   -2.388653   -1.035853
      9          1           0        4.399241   -2.925958    0.308143
     10          1           0        6.153445   -2.799574    0.522858
     11          6           0        3.713773    1.246073    0.290936
     12          6           0        2.504672    1.923783   -0.354639
     13          6           0        2.331052    3.375126    0.093975
     14          1           0        3.605630    1.282582    1.383807
     15          1           0        4.619859    1.817557    0.047295
     16          1           0        1.601384    1.350513   -0.109592
     17          1           0        2.614392    1.884782   -1.445995
     18          1           0        3.215120    3.966745   -0.164890
     19          1           0        2.196357    3.429440    1.179106
     20          1           0        1.460916    3.840361   -0.379605
     21          6           0       -1.065856   -2.023579   -0.385774
     22          6           0       -0.879996   -0.660449   -0.638467
     23          6           0       -1.930381    0.244581   -0.459131
     24          6           0       -3.158867   -0.250230   -0.024073
     25          6           0       -3.375264   -1.602555    0.236083
     26          6           0       -2.310702   -2.489460    0.049925
     27          1           0       -0.244385   -2.719588   -0.527736
     28          1           0        0.085678   -0.295806   -0.976926
     29          1           0       -1.814043    1.304984   -0.647352
     30          1           0       -4.349381   -1.936186    0.572541
     31          1           0       -2.457931   -3.547549    0.246945
     32          7           0       -4.278366    0.698291    0.169393
     33          8           0       -5.350967    0.237150    0.553469
     34          8           0       -4.062032    1.884922   -0.066709
 ---------------------------------------------------------------------

 SCF Done:  E(RHF) =  -669.535649548     A.U. after   15 cycles
 E2 =    -0.2091442233D+01 EUMP2 =    -0.67162709178070D+03

 The electronic state is 1-A.
 Alpha  occ. eigenvalues --  -20.60744 -20.60739 -15.85797 -11.31162 -11.27737
 Alpha  occ. eigenvalues --  -11.27722 -11.27469 -11.26749 -11.26691 -11.22481
 Alpha  occ. eigenvalues --  -11.22318 -11.22250 -11.22122 -11.21770 -11.21657
 Alpha  occ. eigenvalues --   -1.59819  -1.39373  -1.19333  -1.09222  -1.08727
 Alpha  occ. eigenvalues --   -1.04736  -1.04267  -0.96691  -0.95563  -0.87705
 Alpha  occ. eigenvalues --   -0.86133  -0.82399  -0.80354  -0.79073  -0.77437
 Alpha  occ. eigenvalues --   -0.72015  -0.71143  -0.70441  -0.65871  -0.64984
 Alpha  occ. eigenvalues --   -0.64725  -0.62129  -0.61618  -0.60060  -0.58318
 Alpha  occ. eigenvalues --   -0.55968  -0.55236  -0.53378  -0.53126  -0.53064
 Alpha  occ. eigenvalues --   -0.52826  -0.50624  -0.48791  -0.48770  -0.48635
 Alpha  occ. eigenvalues --   -0.47377  -0.46579  -0.46499  -0.44779  -0.44528
 Alpha  occ. eigenvalues --   -0.37314  -0.36332
 Alpha virt. eigenvalues --    0.05078   0.11264   0.16494   0.19810   0.22606
 Alpha virt. eigenvalues --    0.23437   0.24995   0.26128   0.26804   0.27968
 Alpha virt. eigenvalues --    0.29431   0.30277   0.30929   0.31378   0.32214

 Mulliken charges:
               1
     1  C   -0.299271
     2  C   -0.300106
     3  C   -0.475784
     4  H    0.142257
     5  H    0.149596
     6  H    0.154168
     7  H    0.154905
     8  H    0.155686
     9  H    0.151826
    10  H    0.163297
    11  C   -0.297849
    12  C   -0.306844
    13  C   -0.475872
    14  H    0.152798
    15  H    0.153362
    16  H    0.147075
    17  H    0.151856
    18  H    0.158176
    19  H    0.158799
    20  H    0.162357
    21  C   -0.171976
    22  C   -0.224506
    23  C   -0.172549
    24  C    0.158625
    25  C   -0.171022
    26  C   -0.218510
    27  H    0.225829
    28  H    0.232107
    29  H    0.275643
    30  H    0.275538
    31  H    0.223282
    32  N    0.488099
    33  O   -0.460577
    34  O   -0.460415
 Sum of Mulliken charges =  -0.00000

 Dipole moment (field-independent basis, Debye):
    X=              4.1396    Y=             -3.2529    Z=             -0.6317  Tot=              5.3025
 Quadrupole moment (field-independent basis, Debye-Ang):
   XX=           -117.2415   YY=            -91.1102   ZZ=            -94.5787
   XY=             12.9145   XZ=              0.8661   YZ=             -1.4211

 Normal termination of Gaussian 16 at Wed May  5 15:36:09 2021.
