 Gaussian 16, Revision A.03,
 Gaussian 16:  EM64L-G16RevA.03 25-Dec-2016

 -------------
 #p 6-31g* mp2
 -------------

 ------------------------------------------------------
 Input file generated by CHIRIPA (05-May-2021 14:55:21)
 ------------------------------------------------------
 Symbolic Z-matrix:
 Charge =  0 Multiplicity = 1

                         Standard orientation:
 ---------------------------------------------------------------------
 Center     Atomic      Atomic             Coordinates (Angstroms)
 Number     Number       Type             X           Y           Z
 ---------------------------------------------------------------------
      1          6           0        1.324926    1.648123   -0.597192
      2          6           0        1.364409    0.268054   -0.821630
      3          6           0        2.521350   -0.464357   -0.539477
      4          6           0        3.625447    0.218467   -0.031530
      5          6           0        3.617114    1.592610    0.202887
      6          6           0        2.449422    2.304838   -0.086550
      7          1           0        0.422011    2.209238   -0.819204
      8          1           0        0.492615   -0.244598   -1.218125
      9          1           0        2.579274   -1.533514   -0.703696
     10          1           0        4.502013    2.075850    0.598931
     11          1           0        2.421626    3.376539    0.088751
     12          7           0        4.855940   -0.546221    0.271028
     13          8           0        5.815268    0.078815    0.717856
     14          8           0        4.837771   -1.756141    0.055617
     15          6           0       -3.903163   -0.920324   -0.249819
     16          6           0       -2.616417   -1.182374    0.533506
     17          6           0       -1.670660   -2.143286   -0.187596
     18          1           0       -4.415821   -1.875051   -0.430440
     19          1           0       -3.646446   -0.511735   -1.237011
     20          1           0       -2.875540   -1.589052    1.519449
     21          1           0       -2.106859   -0.226892    0.712449
     22          1           0       -1.383338   -1.740558   -1.164253
     23          1           0       -2.156386   -3.110457   -0.352667
     24          1           0       -0.757281   -2.316541    0.389969
     25          6           0       -4.858814    0.038413    0.458191
     26          6           0       -6.145561    0.300463   -0.325133
     27          6           0       -7.091318    1.261375    0.395969
     28          1           0       -5.115531   -0.370175    1.445383
     29          1           0       -4.346157    0.993140    0.638812
     30          1           0       -6.655119   -0.655018   -0.504077
     31          1           0       -5.886438    0.707141   -1.311077
     32          1           0       -6.605591    2.228547    0.561040
     33          1           0       -7.378639    0.858647    1.372625
     34          1           0       -8.004697    1.434630   -0.181597
 ---------------------------------------------------------------------

 SCF Done:  E(RHF) =  -669.535407765     A.U. after   15 cycles
 E2 =    -0.2091348590D+01 EUMP2 =    -0.67162675635493D+03

 The electronic state is 1-A.
 Alpha  occ. eigenvalues --  -20.60735 -20.60730 -15.85788 -11.31151 -11.27719
 Alpha  occ. eigenvalues --  -11.27700 -11.27458 -11.26741 -11.26672 -11.22458
 Alpha  occ. eigenvalues --  -11.22157 -11.22137 -11.22085 -11.22013 -11.21547
 Alpha  occ. eigenvalues --   -1.59811  -1.39364  -1.19319  -1.09147  -1.08716
 Alpha  occ. eigenvalues --   -1.04721  -1.04252  -0.96715  -0.95553  -0.87737
 Alpha  occ. eigenvalues --   -0.86115  -0.82383  -0.80316  -0.78932  -0.77430
 Alpha  occ. eigenvalues --   -0.72006  -0.71134  -0.70434  -0.65820  -0.64969
 Alpha  occ. eigenvalues --   -0.64732  -0.62182  -0.61548  -0.60071  -0.58299
 Alpha  occ. eigenvalues --   -0.56046  -0.55211  -0.53421  -0.53150  -0.53022
 Alpha  occ. eigenvalues --   -0.52777  -0.50632  -0.48766  -0.48761  -0.48619
 Alpha  occ. eigenvalues --   -0.47352  -0.46477  -0.46399  -0.44770  -0.44496
 Alpha  occ. eigenvalues --   -0.37304  -0.36313
 Alpha virt. eigenvalues --    0.05090   0.11281   0.16552   0.19765   0.22608
 Alpha virt. eigenvalues --    0.23801   0.25682   0.26147   0.26883   0.27926
 Alpha virt. eigenvalues --    0.29060   0.29718   0.31014   0.31230   0.31967

 Mulliken charges:
               1
     1  C   -0.173273
     2  C   -0.222167
     3  C   -0.174402
     4  C    0.158865
     5  C   -0.171288
     6  C   -0.218329
     7  H    0.225148
     8  H    0.233299
     9  H    0.276022
    10  H    0.275428
    11  H    0.223136
    12  N    0.488092
    13  O   -0.460623
    14  O   -0.460410
    15  C   -0.298488
    16  C   -0.300865
    17  C   -0.481008
    18  H    0.152771
    19  H    0.146444
    20  H    0.157489
    21  H    0.148546
    22  H    0.146065
    23  H    0.162370
    24  H    0.164070
    25  C   -0.298266
    26  C   -0.300035
    27  C   -0.475951
    28  H    0.151929
    29  H    0.147592
    30  H    0.153597
    31  H    0.151275
    32  H    0.154648
    33  H    0.156504
    34  H    0.161816
 Sum of Mulliken charges =  -0.00000

 Dipole moment (field-independent basis, Debye):
    X=             -4.5272    Y=              2.6203    Z=             -0.9955  Tot=              5.3247
 Quadrupole moment (field-independent basis, Debye-Ang):
   XX=           -125.5156   YY=            -89.8206   ZZ=            -95.0051
   XY=             12.1431   XZ=             -3.0383   YZ=              0.4152

 Normal termination of Gaussian 16 at Thu May  6 20:44:11 2021.
