 Gaussian 16, Revision A.03,
 Gaussian 16:  EM64L-G16RevA.03 25-Dec-2016

 -------------
 #p 6-31g* mp2
 -------------

 ------------------------------------------------------
 Input file generated by CHIRIPA (05-May-2021 14:57:27)
 ------------------------------------------------------
 Symbolic Z-matrix:
 Charge =  0 Multiplicity = 1

                         Standard orientation:
 ---------------------------------------------------------------------
 Center     Atomic      Atomic             Coordinates (Angstroms)
 Number     Number       Type             X           Y           Z
 ---------------------------------------------------------------------
      1          6           0        2.329921    2.098732   -0.357814
      2          6           0        1.761799    0.916636    0.128404
      3          6           0        2.534001   -0.241669    0.257172
      4          6           0        3.877125   -0.181983   -0.111263
      5          6           0        4.472090    0.980557   -0.598919
      6          6           0        3.680872    2.126869   -0.719287
      7          1           0        1.722670    2.993873   -0.454582
      8          1           0        0.712898    0.891856    0.409895
      9          1           0        2.119707   -1.170230    0.630740
     10          1           0        5.520475    0.974412   -0.871443
     11          1           0        4.124759    3.043494   -1.097188
     12          7           0        4.704687   -1.401881    0.020612
     13          8           0        5.885627   -1.323255   -0.310801
     14          8           0        4.156719   -2.413565    0.452890
     15          6           0       -1.978346    1.447010    1.186812
     16          6           0       -3.010035    2.021460    0.437047
     17          6           0       -3.991925    1.218850   -0.151388
     18          6           0       -3.911114   -0.160805    0.031118
     19          6           0       -2.895702   -0.762993    0.772467
     20          6           0       -1.924568    0.059064    1.351838
     21          1           0       -1.219768    2.078049    1.640401
     22          1           0       -3.054319    3.099063    0.307213
     23          1           0       -4.801639    1.637235   -0.736825
     24          1           0       -2.878093   -1.840309    0.884265
     25          1           0       -1.124499   -0.389823    1.933591
     26          7           0       -4.944904   -1.020787   -0.587033
     27          8           0       -4.851306   -2.233641   -0.411363
     28          8           0       -5.829212   -0.465701   -1.235506
 ---------------------------------------------------------------------

 SCF Done:  E(RHF) =  -868.336119128     A.U. after   16 cycles
 E2 =    -0.2601506257D+01 EUMP2 =    -0.87093762538565D+03

 The electronic state is 1-A.
 Alpha  occ. eigenvalues --  -20.61394 -20.61387 -20.61190 -20.61182 -15.86454
 Alpha  occ. eigenvalues --  -15.86245 -11.32065 -11.31714 -11.28653 -11.28639
 Alpha  occ. eigenvalues --  -11.28533 -11.28325 -11.28264 -11.28082 -11.27794
 Alpha  occ. eigenvalues --  -11.27734 -11.27312 -11.27301  -1.60463  -1.60261
 Alpha  occ. eigenvalues --   -1.40009  -1.39813  -1.20280  -1.19894  -1.09666
 Alpha  occ. eigenvalues --   -1.09275  -1.05708  -1.05316  -0.96444  -0.96096
 Alpha  occ. eigenvalues --   -0.87132  -0.86705  -0.83252  -0.82930  -0.78245
 Alpha  occ. eigenvalues --   -0.77952  -0.72670  -0.72463  -0.71788  -0.71585
 Alpha  occ. eigenvalues --   -0.71447  -0.71026  -0.65987  -0.65797  -0.65551
 Alpha  occ. eigenvalues --   -0.65241  -0.63061  -0.62628  -0.56276  -0.55845
 Alpha  occ. eigenvalues --   -0.54143  -0.53798  -0.53633  -0.53278  -0.49449
 Alpha  occ. eigenvalues --   -0.49407  -0.49228  -0.49212  -0.45359  -0.45196
 Alpha  occ. eigenvalues --   -0.38299  -0.37888  -0.37293  -0.36915
 Alpha virt. eigenvalues --    0.04249   0.04585   0.10156   0.10697   0.15598
 Alpha virt. eigenvalues --    0.16036   0.19225   0.21989   0.25148   0.26160
 Alpha virt. eigenvalues --    0.27968   0.29077   0.30087   0.30708   0.32437

 Mulliken charges:
               1
     1  C   -0.173972
     2  C   -0.225363
     3  C   -0.173961
     4  C    0.159853
     5  C   -0.170563
     6  C   -0.217689
     7  H    0.222642
     8  H    0.227351
     9  H    0.273420
    10  H    0.277398
    11  H    0.224845
    12  N    0.488063
    13  O   -0.458621
    14  O   -0.459957
    15  C   -0.179005
    16  C   -0.218551
    17  C   -0.169409
    18  C    0.159846
    19  C   -0.169178
    20  C   -0.223377
    21  H    0.224300
    22  H    0.225071
    23  H    0.278850
    24  H    0.280310
    25  H    0.224702
    26  N    0.487900
    27  O   -0.456888
    28  O   -0.458017
 Sum of Mulliken charges =  -0.00000

 Dipole moment (field-independent basis, Debye):
    X=              0.4980    Y=              7.2313    Z=              1.6125  Tot=              7.4256
 Quadrupole moment (field-independent basis, Debye-Ang):
   XX=           -150.6518   YY=           -103.3589   ZZ=           -104.7234
   XY=              5.1079   XZ=            -10.6284   YZ=             -3.5873

 Normal termination of Gaussian 16 at Fri May  7 12:44:38 2021.
