 Gaussian 16, Revision A.03,
 Gaussian 16:  EM64L-G16RevA.03 25-Dec-2016

 -------------
 #p 6-31g* mp2
 -------------

 ------------------------------------------------------
 Input file generated by CHIRIPA (05-May-2021 14:55:22)
 ------------------------------------------------------
 Symbolic Z-matrix:
 Charge =  0 Multiplicity = 1

                         Standard orientation:
 ---------------------------------------------------------------------
 Center     Atomic      Atomic             Coordinates (Angstroms)
 Number     Number       Type             X           Y           Z
 ---------------------------------------------------------------------
      1          6           0       -4.596773    1.137497   -1.065891
      2          6           0       -3.304433    1.153598   -1.600790
      3          6           0       -2.256187    0.501695   -0.944473
      4          6           0       -2.537154   -0.159537    0.250148
      5          6           0       -3.814063   -0.193579    0.808391
      6          6           0       -4.847023    0.465146    0.134876
      7          1           0       -5.405139    1.646561   -1.582413
      8          1           0       -3.107160    1.674955   -2.533160
      9          1           0       -1.246274    0.498275   -1.336242
     10          1           0       -3.979881   -0.721723    1.739512
     11          1           0       -5.849684    0.450977    0.552626
     12          7           0       -1.435514   -0.853288    0.954065
     13          8           0       -1.709077   -1.428717    2.005103
     14          8           0       -0.319345   -0.808485    0.441428
     15          6           0        3.608714    0.582873    0.367945
     16          6           0        3.792035    1.994339   -0.190751
     17          6           0        4.048800    3.033535    0.901009
     18          1           0        2.772129    0.583047    1.080035
     19          1           0        4.504912    0.302692    0.938665
     20          1           0        2.896327    2.271241   -0.761407
     21          1           0        4.628157    1.990764   -0.901737
     22          1           0        4.953536    2.784379    1.464903
     23          1           0        3.211864    3.066449    1.606030
     24          1           0        4.176902    4.035415    0.479479
     25          6           0        3.351203   -0.467166   -0.711329
     26          6           0        3.167882   -1.878633   -0.152634
     27          6           0        2.911116   -2.917829   -1.244392
     28          1           0        2.455004   -0.186986   -1.282050
     29          1           0        4.187787   -0.467340   -1.423418
     30          1           0        2.331758   -1.875058    0.558353
     31          1           0        4.063590   -2.155534    0.418022
     32          1           0        3.748052   -2.950742   -1.949413
     33          1           0        2.006380   -2.668673   -1.808286
     34          1           0        2.783014   -3.919708   -0.822864
 ---------------------------------------------------------------------

 SCF Done:  E(RHF) =  -669.536476103     A.U. after   15 cycles
 E2 =    -0.2091593386D+01 EUMP2 =    -0.67162806948902D+03

 The electronic state is 1-A.
 Alpha  occ. eigenvalues --  -20.61078 -20.61072 -15.86102 -11.31374 -11.27933
 Alpha  occ. eigenvalues --  -11.27926 -11.27658 -11.26926 -11.26917 -11.20900
 Alpha  occ. eigenvalues --  -11.20500 -11.20319 -11.20218 -11.20055 -11.19898
 Alpha  occ. eigenvalues --   -1.60132  -1.39690  -1.19537  -1.08950  -1.07344
 Alpha  occ. eigenvalues --   -1.04926  -1.02497  -0.95800  -0.94991  -0.86329
 Alpha  occ. eigenvalues --   -0.86020  -0.82637  -0.78591  -0.77695  -0.77121
 Alpha  occ. eigenvalues --   -0.72338  -0.71439  -0.70646  -0.65202  -0.64929
 Alpha  occ. eigenvalues --   -0.63930  -0.62274  -0.59866  -0.58391  -0.56593
 Alpha  occ. eigenvalues --   -0.55431  -0.54276  -0.53259  -0.53017  -0.51733
 Alpha  occ. eigenvalues --   -0.51424  -0.49151  -0.49082  -0.48900  -0.46913
 Alpha  occ. eigenvalues --   -0.45594  -0.45099  -0.44698  -0.44467  -0.42747
 Alpha  occ. eigenvalues --   -0.37512  -0.36525
 Alpha virt. eigenvalues --    0.04825   0.11131   0.16326   0.21038   0.23601
 Alpha virt. eigenvalues --    0.25173   0.26571   0.27445   0.28429   0.28791
 Alpha virt. eigenvalues --    0.29042   0.30993   0.32054   0.32668   0.32727

 Mulliken charges:
               1
     1  C   -0.170399
     2  C   -0.218530
     3  C   -0.170824
     4  C    0.157621
     5  C   -0.170377
     6  C   -0.218590
     7  H    0.226356
     8  H    0.224264
     9  H    0.275497
    10  H    0.276028
    11  H    0.224118
    12  N    0.492392
    13  O   -0.458105
    14  O   -0.464709
    15  C   -0.300796
    16  C   -0.297824
    17  C   -0.475097
    18  H    0.160912
    19  H    0.146171
    20  H    0.146845
    21  H    0.148946
    22  H    0.154759
    23  H    0.155412
    24  H    0.156113
    25  C   -0.293795
    26  C   -0.307380
    27  C   -0.474172
    28  H    0.148092
    29  H    0.141923
    30  H    0.180947
    31  H    0.144222
    32  H    0.147805
    33  H    0.154132
    34  H    0.158043
 Sum of Mulliken charges =  -0.00000

 Dipole moment (field-independent basis, Debye):
    X=             -4.2678    Y=              2.3885    Z=             -2.3081  Tot=              5.4080
 Quadrupole moment (field-independent basis, Debye-Ang):
   XX=            -73.5123   YY=            -97.2209   ZZ=            -94.3883
   XY=             -5.0994   XZ=              3.1115   YZ=             -1.1412

 Normal termination of Gaussian 16 at Thu May  6 17:34:38 2021.
