 Gaussian 16, Revision A.03,
 Gaussian 16:  EM64L-G16RevA.03 25-Dec-2016

 -------------
 #p 6-31g* mp2
 -------------

 ------------------------------------------------------
 Input file generated by CHIRIPA (05-May-2021 14:51:13)
 ------------------------------------------------------
 Symbolic Z-matrix:
 Charge =  0 Multiplicity = 1

                         Standard orientation:
 ---------------------------------------------------------------------
 Center     Atomic      Atomic             Coordinates (Angstroms)
 Number     Number       Type             X           Y           Z
 ---------------------------------------------------------------------
      1          6           0        3.480555    0.902685   -0.342491
      2          6           0        2.711392    1.850080    0.578822
      3          6           0        2.240994    3.117266   -0.135853
      4          1           0        4.347150    1.432188   -0.761519
      5          1           0        2.840387    0.629112   -1.192631
      6          1           0        3.352335    2.120689    1.427691
      7          1           0        1.846635    1.318202    0.995855
      8          1           0        1.580535    2.865404   -0.971892
      9          1           0        3.094790    3.672451   -0.537603
     10          1           0        1.693439    3.780282    0.541238
     11          6           0        3.957385   -0.368674    0.357514
     12          6           0        4.726547   -1.316069   -0.563798
     13          6           0        5.196945   -2.583255    0.150877
     14          1           0        4.597553   -0.095101    1.207654
     15          1           0        3.090790   -0.898177    0.776543
     16          1           0        5.591304   -0.784191   -0.980832
     17          1           0        4.085604   -1.586679   -1.412667
     18          1           0        4.343150   -3.138441    0.552626
     19          1           0        5.857405   -2.331394    0.986915
     20          1           0        5.744501   -3.246271   -0.526214
     21          6           0       -4.376412   -0.636249    0.114395
     22          6           0       -5.612641    0.205581   -0.203483
     23          6           0       -6.920194   -0.546852    0.045405
     24          1           0       -4.396679   -1.550429   -0.494545
     25          1           0       -4.420928   -0.958706    1.163887
     26          1           0       -5.565118    0.527509   -1.251681
     27          1           0       -5.589330    1.117954    0.406145
     28          1           0       -6.994089   -0.854585    1.093470
     29          1           0       -6.969739   -1.448385   -0.573776
     30          1           0       -7.791089    0.073476   -0.188248
     31          6           0       -3.061528    0.102238   -0.129419
     32          6           0       -1.825298   -0.739591    0.188459
     33          6           0       -0.517746    0.012841   -0.060428
     34          1           0       -3.017012    0.424696   -1.178911
     35          1           0       -3.041260    1.016418    0.479522
     36          1           0       -1.848610   -1.651965   -0.421169
     37          1           0       -1.872822   -1.061519    1.236657
     38          1           0       -0.468200    0.914374    0.558752
     39          1           0       -0.443851    0.320574   -1.108494
     40          1           0        0.353150   -0.607487    0.173225
 ---------------------------------------------------------------------

 SCF Done:  E(RHF) =  -470.732495642     A.U. after   11 cycles
 E2 =    -0.1583667040D+01 EUMP2 =    -0.47231616268235D+03

 The electronic state is 1-A.
 Alpha  occ. eigenvalues --  -11.21674 -11.21632 -11.21564 -11.21456 -11.21394
 Alpha  occ. eigenvalues --  -11.21382 -11.21337 -11.21246 -11.21179 -11.21095
 Alpha  occ. eigenvalues --  -11.21048 -11.20954  -1.08490  -1.08339  -1.03611
 Alpha  occ. eigenvalues --   -1.03425  -0.96056  -0.95899  -0.87090  -0.86905
 Alpha  occ. eigenvalues --   -0.79703  -0.79477  -0.78300  -0.78151  -0.65129
 Alpha  occ. eigenvalues --   -0.64986  -0.61073  -0.60799  -0.59410  -0.59261
 Alpha  occ. eigenvalues --   -0.57674  -0.57504  -0.55398  -0.55141  -0.52775
 Alpha  occ. eigenvalues --   -0.52578  -0.52462  -0.52316  -0.50048  -0.49808
 Alpha  occ. eigenvalues --   -0.48018  -0.47775  -0.46823  -0.46416  -0.45863
 Alpha  occ. eigenvalues --   -0.45783  -0.45667  -0.45524  -0.43795  -0.43690
 Alpha virt. eigenvalues --    0.20845   0.22958   0.23707   0.24597   0.26060
 Alpha virt. eigenvalues --    0.26349   0.26767   0.27583   0.27848   0.29367
 Alpha virt. eigenvalues --    0.30490   0.30984   0.31826   0.32119   0.32327

 Mulliken charges:
               1
     1  C   -0.298848
     2  C   -0.304746
     3  C   -0.476502
     4  H    0.149138
     5  H    0.150711
     6  H    0.150426
     7  H    0.160107
     8  H    0.156243
     9  H    0.154519
    10  H    0.158881
    11  C   -0.300579
    12  C   -0.299523
    13  C   -0.475634
    14  H    0.149575
    15  H    0.150265
    16  H    0.151992
    17  H    0.151802
    18  H    0.154856
    19  H    0.155163
    20  H    0.160132
    21  C   -0.298310
    22  C   -0.299682
    23  C   -0.475741
    24  H    0.149729
    25  H    0.149629
    26  H    0.152002
    27  H    0.152053
    28  H    0.155236
    29  H    0.155213
    30  H    0.160387
    31  C   -0.298784
    32  C   -0.300306
    33  C   -0.480728
    34  H    0.149620
    35  H    0.150048
    36  H    0.152009
    37  H    0.152217
    38  H    0.158722
    39  H    0.155500
    40  H    0.163206
 Sum of Mulliken charges =  -0.00000

 Dipole moment (field-independent basis, Debye):
    X=             -0.0685    Y=             -0.0152    Z=             -0.0017  Tot=              0.0702
 Quadrupole moment (field-independent basis, Debye-Ang):
   XX=            -85.4102   YY=            -85.7080   ZZ=            -83.9481
   XY=              0.2929   XZ=              0.1542   YZ=              0.8633

 Normal termination of Gaussian 16 at Wed May  5 19:59:46 2021.
