 Gaussian 16, Revision A.03,
 Gaussian 16:  EM64L-G16RevA.03 25-Dec-2016

 -------------
 #p 6-31g* mp2
 -------------

 ------------------------------------------------------
 Input file generated by CHIRIPA (05-May-2021 14:53:12)
 ------------------------------------------------------
 Symbolic Z-matrix:
 Charge =  0 Multiplicity = 1

                         Standard orientation:
 ---------------------------------------------------------------------
 Center     Atomic      Atomic             Coordinates (Angstroms)
 Number     Number       Type             X           Y           Z
 ---------------------------------------------------------------------
      1          6           0       -2.931942    0.967516   -0.116602
      2          6           0       -2.020295    2.149876   -0.446616
      3          6           0       -2.563499    3.479510    0.077593
      4          1           0       -3.928314    1.151211   -0.541389
      5          1           0       -3.062824    0.907280    0.972727
      6          1           0       -1.890056    2.207026   -1.534912
      7          1           0       -1.025924    1.963257   -0.021158
      8          1           0       -2.676835    3.447083    1.166034
      9          1           0       -3.545877    3.692238   -0.356320
     10          1           0       -1.896234    4.311143   -0.169395
     11          6           0       -2.402361   -0.368700   -0.634094
     12          6           0       -3.314009   -1.551060   -0.304080
     13          6           0       -2.770805   -2.880694   -0.828289
     14          1           0       -2.271480   -0.308464   -1.723423
     15          1           0       -1.405989   -0.552395   -0.209307
     16          1           0       -4.308380   -1.364441   -0.729538
     17          1           0       -3.444248   -1.608210    0.784216
     18          1           0       -1.788427   -3.093422   -0.394375
     19          1           0       -2.657469   -2.848267   -1.916730
     20          1           0       -3.438070   -3.712327   -0.581301
     21          6           0        3.604418    0.554775   -1.559149
     22          6           0        3.365621    1.375810   -0.452172
     23          6           0        2.524835    0.949113    0.580086
     24          6           0        1.936696   -0.310160    0.472323
     25          6           0        2.154995   -1.151188   -0.617772
     26          6           0        2.999410   -0.703884   -1.638276
     27          1           0        4.258971    0.894248   -2.356467
     28          1           0        3.834124    2.353786   -0.388044
     29          1           0        2.322653    1.564426    1.448378
     30          1           0        1.673694   -2.120977   -0.653505
     31          1           0        3.183049   -1.343639   -2.496785
     32          7           0        1.044673   -0.772792    1.558907
     33          8           0        0.538572   -1.886525    1.440166
     34          8           0        0.868495   -0.012911    2.508738
 ---------------------------------------------------------------------

 SCF Done:  E(RHF) =  -669.536503111     A.U. after   15 cycles
 E2 =    -0.2093111701D+01 EUMP2 =    -0.67162961481223D+03

 The electronic state is 1-A.
 Alpha  occ. eigenvalues --  -20.61049 -20.61040 -15.86047 -11.31319 -11.27877
 Alpha  occ. eigenvalues --  -11.27862 -11.27595 -11.26866 -11.26854 -11.21239
 Alpha  occ. eigenvalues --  -11.20839 -11.20810 -11.20760 -11.20712 -11.20284
 Alpha  occ. eigenvalues --   -1.60096  -1.39654  -1.19478  -1.08895  -1.07839
 Alpha  occ. eigenvalues --   -1.04863  -1.02951  -0.95746  -0.95410  -0.86434
 Alpha  occ. eigenvalues --   -0.86268  -0.82582  -0.79042  -0.77719  -0.77594
 Alpha  occ. eigenvalues --   -0.72281  -0.71425  -0.70585  -0.65137  -0.64867
 Alpha  occ. eigenvalues --   -0.64431  -0.62213  -0.60327  -0.58802  -0.57032
 Alpha  occ. eigenvalues --   -0.55372  -0.54674  -0.53194  -0.52955  -0.52129
 Alpha  occ. eigenvalues --   -0.51851  -0.49346  -0.49054  -0.49032  -0.47372
 Alpha  occ. eigenvalues --   -0.46095  -0.45470  -0.45151  -0.44651  -0.43213
 Alpha  occ. eigenvalues --   -0.37442  -0.36451
 Alpha virt. eigenvalues --    0.04856   0.11124   0.16318   0.21177   0.23275
 Alpha virt. eigenvalues --    0.24702   0.26420   0.27167   0.27775   0.27995
 Alpha virt. eigenvalues --    0.28897   0.30777   0.31357   0.32267   0.32371

 Mulliken charges:
               1
     1  C   -0.299105
     2  C   -0.298633
     3  C   -0.475618
     4  H    0.147125
     5  H    0.156457
     6  H    0.148151
     7  H    0.148989
     8  H    0.158623
     9  H    0.154357
    10  H    0.155911
    11  C   -0.301027
    12  C   -0.296815
    13  C   -0.481561
    14  H    0.143006
    15  H    0.152754
    16  H    0.147377
    17  H    0.159187
    18  H    0.168447
    19  H    0.147124
    20  H    0.158214
    21  C   -0.170238
    22  C   -0.218312
    23  C   -0.171128
    24  C    0.157087
    25  C   -0.170709
    26  C   -0.218349
    27  H    0.226167
    28  H    0.224033
    29  H    0.275934
    30  H    0.276308
    31  H    0.224173
    32  N    0.489074
    33  O   -0.459284
    34  O   -0.457719
 Sum of Mulliken charges =  -0.00000

 Dipole moment (field-independent basis, Debye):
    X=              3.3079    Y=              1.5611    Z=             -3.6469  Tot=              5.1652
 Quadrupole moment (field-independent basis, Debye-Ang):
   XX=            -83.0640   YY=            -93.6006   ZZ=            -97.1187
   XY=              3.2526   XZ=             -5.7693   YZ=              3.8476

 Normal termination of Gaussian 16 at Wed May  5 18:31:25 2021.
