 Gaussian 16, Revision A.03,
 Gaussian 16:  EM64L-G16RevA.03 25-Dec-2016

 -------------
 #p 6-31g* mp2
 -------------

 ------------------------------------------------------
 Input file generated by CHIRIPA (05-May-2021 14:53:16)
 ------------------------------------------------------
 Symbolic Z-matrix:
 Charge =  0 Multiplicity = 1

                         Standard orientation:
 ---------------------------------------------------------------------
 Center     Atomic      Atomic             Coordinates (Angstroms)
 Number     Number       Type             X           Y           Z
 ---------------------------------------------------------------------
      1          6           0        4.278881    0.111101    0.486762
      2          6           0        3.592908    1.473010    0.374370
      3          6           0        2.242896    1.515862    1.090907
      4          1           0        3.617003   -0.661107    0.071362
      5          1           0        4.418317   -0.134910    1.548567
      6          1           0        3.456056    1.717006   -0.686928
      7          1           0        4.256576    2.242092    0.789911
      8          1           0        2.365377    1.297746    2.156752
      9          1           0        1.560309    0.769677    0.671521
     10          1           0        1.770012    2.498502    0.997858
     11          6           0        5.629558    0.052555   -0.224555
     12          6           0        6.315530   -1.309354   -0.112164
     13          6           0        7.665542   -1.352206   -0.828701
     14          1           0        5.490121    0.298566   -1.286361
     15          1           0        6.291435    0.824764    0.190844
     16          1           0        5.651863   -2.078436   -0.527705
     17          1           0        6.452382   -1.553350    0.949134
     18          1           0        8.348129   -0.606021   -0.409315
     19          1           0        7.543062   -1.134090   -1.894545
     20          1           0        8.138426   -2.334846   -0.735652
     21          6           0       -2.433635    1.985440   -0.420985
     22          6           0       -3.813961    2.058087   -0.635333
     23          6           0       -4.619825    0.928916   -0.461824
     24          6           0       -4.009394   -0.262054   -0.071627
     25          6           0       -2.636994   -0.366234    0.149636
     26          6           0       -1.850585    0.775644   -0.029874
     27          1           0       -1.815178    2.867543   -0.558102
     28          1           0       -4.269497    2.996300   -0.939123
     29          1           0       -5.690944    0.957097   -0.620969
     30          1           0       -2.211667   -1.315505    0.451959
     31          1           0       -0.778871    0.716285    0.137304
     32          7           0       -4.852226   -1.464182    0.115235
     33          8           0       -4.290142   -2.501597    0.459430
     34          8           0       -6.058964   -1.346234   -0.086033
 ---------------------------------------------------------------------

 SCF Done:  E(RHF) =  -669.535546862     A.U. after   15 cycles
 E2 =    -0.2090749775D+01 EUMP2 =    -0.67162629663712D+03

 The electronic state is 1-A.
 Alpha  occ. eigenvalues --  -20.60716 -20.60711 -15.85768 -11.31122 -11.27690
 Alpha  occ. eigenvalues --  -11.27677 -11.27423 -11.26708 -11.26652 -11.22438
 Alpha  occ. eigenvalues --  -11.22231 -11.22033 -11.21992 -11.21869 -11.21388
 Alpha  occ. eigenvalues --   -1.59792  -1.39345  -1.19290  -1.09044  -1.08687
 Alpha  occ. eigenvalues --   -1.04692  -1.04182  -0.96653  -0.95525  -0.87680
 Alpha  occ. eigenvalues --   -0.86088  -0.82359  -0.80256  -0.78814  -0.77408
 Alpha  occ. eigenvalues --   -0.71987  -0.71114  -0.70401  -0.65683  -0.64941
 Alpha  occ. eigenvalues --   -0.64709  -0.62092  -0.61539  -0.60042  -0.58236
 Alpha  occ. eigenvalues --   -0.55965  -0.55186  -0.53384  -0.53125  -0.53022
 Alpha  occ. eigenvalues --   -0.52718  -0.50575  -0.48750  -0.48743  -0.48554
 Alpha  occ. eigenvalues --   -0.47267  -0.46366  -0.46261  -0.44754  -0.44419
 Alpha  occ. eigenvalues --   -0.37272  -0.36294
 Alpha virt. eigenvalues --    0.05125   0.11356   0.16622   0.20049   0.22487
 Alpha virt. eigenvalues --    0.23800   0.25263   0.26307   0.26989   0.27887
 Alpha virt. eigenvalues --    0.28996   0.29622   0.31058   0.31486   0.32334

 Mulliken charges:
               1
     1  C   -0.299130
     2  C   -0.299293
     3  C   -0.481225
     4  H    0.149558
     5  H    0.151472
     6  H    0.152279
     7  H    0.155401
     8  H    0.161777
     9  H    0.148953
    10  H    0.157910
    11  C   -0.298826
    12  C   -0.300226
    13  C   -0.476069
    14  H    0.150000
    15  H    0.150628
    16  H    0.152773
    17  H    0.152862
    18  H    0.155586
    19  H    0.155561
    20  H    0.161832
    21  C   -0.173655
    22  C   -0.218466
    23  C   -0.171394
    24  C    0.158902
    25  C   -0.173655
    26  C   -0.225738
    27  H    0.225848
    28  H    0.223058
    29  H    0.275304
    30  H    0.275607
    31  H    0.235578
    32  N    0.488082
    33  O   -0.460574
    34  O   -0.460719
 Sum of Mulliken charges =  -0.00000

 Dipole moment (field-independent basis, Debye):
    X=              3.2181    Y=              4.2476    Z=             -0.6293  Tot=              5.3660
 Quadrupole moment (field-independent basis, Debye-Ang):
   XX=           -115.4301   YY=            -95.9709   ZZ=            -94.6017
   XY=            -20.0464   XZ=              4.5998   YZ=             -0.7089

 Normal termination of Gaussian 16 at Thu May  6 15:31:52 2021.
