 Gaussian 16, Revision A.03,
 Gaussian 16:  EM64L-G16RevA.03 25-Dec-2016

 -------------
 #p 6-31g* mp2
 -------------

 ------------------------------------------------------
 Input file generated by CHIRIPA (05-May-2021 14:55:25)
 ------------------------------------------------------
 Symbolic Z-matrix:
 Charge =  0 Multiplicity = 1

                         Standard orientation:
 ---------------------------------------------------------------------
 Center     Atomic      Atomic             Coordinates (Angstroms)
 Number     Number       Type             X           Y           Z
 ---------------------------------------------------------------------
      1          6           0       -3.934799   -1.625841    0.358950
      2          6           0       -3.813439   -1.011820   -0.891957
      3          6           0       -3.038487    0.141758   -1.044456
      4          6           0       -2.395715    0.656667    0.080267
      5          6           0       -2.497177    0.067856    1.339749
      6          6           0       -3.277440   -1.084997    1.468855
      7          1           0       -4.538863   -2.521687    0.468329
      8          1           0       -4.322827   -1.429632   -1.755671
      9          1           0       -2.927370    0.637366   -2.001245
     10          1           0       -1.977531    0.507689    2.182325
     11          1           0       -3.369890   -1.559731    2.441544
     12          7           0       -1.572497    1.877525   -0.068794
     13          8           0       -1.016229    2.311457    0.937638
     14          8           0       -1.499115    2.377384   -1.189237
     15          6           0        3.739620   -0.018917   -0.008403
     16          6           0        5.185841   -0.502926    0.101884
     17          6           0        6.173187    0.637081    0.353534
     18          1           0        3.666920    0.717065   -0.820802
     19          1           0        3.465080    0.507810    0.916032
     20          1           0        5.457126   -1.029788   -0.821933
     21          1           0        5.255069   -1.237983    0.913990
     22          1           0        5.930319    1.158475    1.285072
     23          1           0        6.133524    1.367854   -0.460713
     24          1           0        7.201022    0.268677    0.428988
     25          6           0        2.740743   -1.147050   -0.259972
     26          6           0        1.294521   -0.663040   -0.370259
     27          6           0        0.307176   -1.803046   -0.621909
     28          1           0        3.015283   -1.673776   -1.184408
     29          1           0        2.813442   -1.883030    0.552427
     30          1           0        1.225293    0.072017   -1.182365
     31          1           0        1.023236   -0.136179    0.553558
     32          1           0        0.346838   -2.533819    0.192338
     33          1           0        0.550044   -2.324441   -1.553448
     34          1           0       -0.720660   -1.434643   -0.697363
 ---------------------------------------------------------------------

 SCF Done:  E(RHF) =  -669.534570896     A.U. after   15 cycles
 E2 =    -0.2094767574D+01 EUMP2 =    -0.67162933846979D+03

 The electronic state is 1-A.
 Alpha  occ. eigenvalues --  -20.60848 -20.60840 -15.85880 -11.31223 -11.27821
 Alpha  occ. eigenvalues --  -11.27809 -11.27593 -11.26871 -11.26860 -11.21211
 Alpha  occ. eigenvalues --  -11.21156 -11.21010 -11.20864 -11.20716 -11.20675
 Alpha  occ. eigenvalues --   -1.59904  -1.39461  -1.19463  -1.08836  -1.08014
 Alpha  occ. eigenvalues --   -1.04854  -1.03156  -0.95692  -0.95590  -0.86630
 Alpha  occ. eigenvalues --   -0.86242  -0.82498  -0.79217  -0.77820  -0.77540
 Alpha  occ. eigenvalues --   -0.72107  -0.71227  -0.70546  -0.65096  -0.64848
 Alpha  occ. eigenvalues --   -0.64646  -0.62193  -0.60556  -0.59107  -0.57334
 Alpha  occ. eigenvalues --   -0.55345  -0.54909  -0.53601  -0.52935  -0.52132
 Alpha  occ. eigenvalues --   -0.51610  -0.49550  -0.48868  -0.48862  -0.47504
 Alpha  occ. eigenvalues --   -0.46265  -0.45376  -0.45320  -0.44753  -0.43368
 Alpha  occ. eigenvalues --   -0.37397  -0.36451
 Alpha virt. eigenvalues --    0.04968   0.11136   0.16460   0.21330   0.23263
 Alpha virt. eigenvalues --    0.24609   0.26958   0.27321   0.27697   0.28291
 Alpha virt. eigenvalues --    0.28415   0.30819   0.31614   0.32139   0.32391

 Mulliken charges:
               1
     1  C   -0.170884
     2  C   -0.214773
     3  C   -0.177983
     4  C    0.160808
     5  C   -0.171341
     6  C   -0.215954
     7  H    0.226358
     8  H    0.224360
     9  H    0.275975
    10  H    0.275668
    11  H    0.224012
    12  N    0.490930
    13  O   -0.460365
    14  O   -0.460165
    15  C   -0.298831
    16  C   -0.299470
    17  C   -0.475531
    18  H    0.153249
    19  H    0.152894
    20  H    0.150438
    21  H    0.149805
    22  H    0.155988
    23  H    0.156363
    24  H    0.158369
    25  C   -0.297373
    26  C   -0.308481
    27  C   -0.482549
    28  H    0.147843
    29  H    0.146483
    30  H    0.158772
    31  H    0.155936
    32  H    0.150045
    33  H    0.151888
    34  H    0.167515
 Sum of Mulliken charges =  -0.00000

 Dipole moment (field-independent basis, Debye):
    X=             -3.0411    Y=             -4.1696    Z=              0.5420  Tot=              5.1892
 Quadrupole moment (field-independent basis, Debye-Ang):
   XX=            -81.9711   YY=           -101.8938   ZZ=            -88.9114
   XY=              8.4191   XZ=             -0.5556   YZ=             -0.5484

 Normal termination of Gaussian 16 at Thu May  6 16:03:53 2021.
