 Gaussian 16, Revision A.03,
 Gaussian 16:  EM64L-G16RevA.03 25-Dec-2016

 -------------
 #p 6-31g* mp2
 -------------

 ------------------------------------------------------
 Input file generated by CHIRIPA (05-May-2021 14:51:08)
 ------------------------------------------------------
 Symbolic Z-matrix:
 Charge =  0 Multiplicity = 1

                         Standard orientation:
 ---------------------------------------------------------------------
 Center     Atomic      Atomic             Coordinates (Angstroms)
 Number     Number       Type             X           Y           Z
 ---------------------------------------------------------------------
      1          6           0       -3.075012    1.054335   -0.369131
      2          6           0       -2.167343    1.793142    0.614884
      3          6           0       -1.312852    2.866261   -0.060435
      4          1           0       -2.457797    0.594129   -1.152841
      5          1           0       -3.727696    1.781380   -0.871927
      6          1           0       -1.517522    1.064754    1.116679
      7          1           0       -2.786776    2.251482    1.396449
      8          1           0       -1.947314    3.614697   -0.546132
      9          1           0       -0.670848    2.421227   -0.827492
     10          1           0       -0.671668    3.381891    0.661277
     11          6           0       -3.935461   -0.021576    0.290998
     12          6           0       -4.843130   -0.760384   -0.693017
     13          6           0       -5.697621   -1.833502   -0.017698
     14          1           0       -3.282777   -0.748621    0.793794
     15          1           0       -4.552676    0.438630    1.074708
     16          1           0       -4.223697   -1.218724   -1.474582
     17          1           0       -5.492951   -0.031996   -1.194812
     18          1           0       -6.339625   -1.388468    0.749359
     19          1           0       -5.063159   -2.581939    0.467999
     20          1           0       -6.338805   -2.349133   -0.739410
     21          6           0        2.909914   -0.708584    0.477336
     22          6           0        1.608137   -0.875286   -0.307249
     23          6           0        0.426276   -1.259842    0.583320
     24          1           0        3.135655   -1.645837    1.004159
     25          1           0        2.767836    0.058520    1.251132
     26          1           0        1.753046   -1.640865   -1.080235
     27          1           0        1.385570    0.062411   -0.832419
     28          1           0        0.253265   -0.493656    1.345964
     29          1           0        0.622831   -2.206609    1.096740
     30          1           0       -0.494035   -1.373823    0.002031
     31          6           0        4.100559   -0.324175   -0.399203
     32          6           0        5.402335   -0.157472    0.385382
     33          6           0        6.584198    0.227084   -0.505187
     34          1           0        4.242637   -1.091279   -1.172998
     35          1           0        3.874818    0.613079   -0.926025
     36          1           0        5.624904   -1.095169    0.910552
     37          1           0        5.257426    0.608106    1.158368
     38          1           0        6.387643    1.173850   -1.018607
     39          1           0        6.757207   -0.539103   -1.267831
     40          1           0        7.504508    0.341064    0.076102
 ---------------------------------------------------------------------

 SCF Done:  E(RHF) =  -470.732967220     A.U. after   11 cycles
 E2 =    -0.1583517829D+01 EUMP2 =    -0.47231648504835D+03

 The electronic state is 1-A.
 Alpha  occ. eigenvalues --  -11.21682 -11.21624 -11.21578 -11.21498 -11.21448
 Alpha  occ. eigenvalues --  -11.21386 -11.21363 -11.21304 -11.21164 -11.21087
 Alpha  occ. eigenvalues --  -11.21063 -11.21049  -1.08483  -1.08386  -1.03600
 Alpha  occ. eigenvalues --   -1.03480  -0.96039  -0.95951  -0.87073  -0.86953
 Alpha  occ. eigenvalues --   -0.79685  -0.79529  -0.78297  -0.78190  -0.65208
 Alpha  occ. eigenvalues --   -0.64960  -0.61193  -0.60702  -0.59391  -0.59320
 Alpha  occ. eigenvalues --   -0.57656  -0.57552  -0.55388  -0.55180  -0.52747
 Alpha  occ. eigenvalues --   -0.52630  -0.52475  -0.52360  -0.50132  -0.49785
 Alpha  occ. eigenvalues --   -0.48010  -0.47828  -0.46872  -0.46410  -0.45858
 Alpha  occ. eigenvalues --   -0.45785  -0.45727  -0.45516  -0.43825  -0.43745
 Alpha virt. eigenvalues --    0.19919   0.22845   0.23657   0.25380   0.25909
 Alpha virt. eigenvalues --    0.26166   0.26440   0.27601   0.28176   0.29233
 Alpha virt. eigenvalues --    0.30518   0.30582   0.31827   0.32242   0.32480

 Mulliken charges:
               1
     1  C   -0.298325
     2  C   -0.306006
     3  C   -0.476813
     4  H    0.149452
     5  H    0.149385
     6  H    0.160151
     7  H    0.151269
     8  H    0.155270
     9  H    0.155489
    10  H    0.159429
    11  C   -0.300705
    12  C   -0.299513
    13  C   -0.475701
    14  H    0.151828
    15  H    0.149638
    16  H    0.151429
    17  H    0.151894
    18  H    0.155165
    19  H    0.155307
    20  H    0.160120
    21  C   -0.298538
    22  C   -0.301355
    23  C   -0.481401
    24  H    0.149816
    25  H    0.150014
    26  H    0.152248
    27  H    0.153209
    28  H    0.158533
    29  H    0.155820
    30  H    0.162400
    31  C   -0.298421
    32  C   -0.299708
    33  C   -0.475755
    34  H    0.149552
    35  H    0.149948
    36  H    0.151953
    37  H    0.152066
    38  H    0.155319
    39  H    0.155192
    40  H    0.160346
 Sum of Mulliken charges =  -0.00000

 Dipole moment (field-independent basis, Debye):
    X=              0.0380    Y=             -0.0241    Z=              0.0177  Tot=              0.0484
 Quadrupole moment (field-independent basis, Debye-Ang):
   XX=            -85.5919   YY=            -84.1264   ZZ=            -85.1264
   XY=             -1.5153   XZ=              0.5383   YZ=              0.6679

 Normal termination of Gaussian 16 at Thu May  6 03:41:49 2021.
