 Gaussian 16, Revision A.03,
 Gaussian 16:  EM64L-G16RevA.03 25-Dec-2016

 -------------
 #p 6-31g* mp2
 -------------

 ------------------------------------------------------
 Input file generated by CHIRIPA (05-May-2021 14:55:20)
 ------------------------------------------------------
 Symbolic Z-matrix:
 Charge =  0 Multiplicity = 1

                         Standard orientation:
 ---------------------------------------------------------------------
 Center     Atomic      Atomic             Coordinates (Angstroms)
 Number     Number       Type             X           Y           Z
 ---------------------------------------------------------------------
      1          6           0       -3.874934   -2.364118   -0.146257
      2          6           0       -4.919440   -1.487317    0.164787
      3          6           0       -4.704848   -0.105973    0.184431
      4          6           0       -3.427496    0.366267   -0.113312
      5          6           0       -2.366505   -0.481788   -0.426986
      6          6           0       -2.604041   -1.859445   -0.440632
      7          1           0       -4.050546   -3.435748   -0.159187
      8          1           0       -5.907462   -1.876425    0.393813
      9          1           0       -5.495537    0.595338    0.421901
     10          1           0       -1.392443   -0.064105   -0.650954
     11          1           0       -1.790984   -2.538020   -0.682541
     12          7           0       -3.188173    1.826682   -0.095691
     13          8           0       -2.053666    2.217566   -0.361665
     14          8           0       -4.139629    2.552819    0.183761
     15          6           0        3.761164   -0.441856   -0.067401
     16          6           0        2.653705   -0.216158    0.962444
     17          6           0        1.306277   -0.784140    0.515649
     18          1           0        3.465880    0.017610   -1.020628
     19          1           0        3.861346   -1.519438   -0.257601
     20          1           0        2.556583    0.860585    1.151675
     21          1           0        2.951745   -0.676050    1.913385
     22          1           0        1.380381   -1.863094    0.345452
     23          1           0        0.982974   -0.317729   -0.420586
     24          1           0        0.529020   -0.611746    1.266657
     25          6           0        5.114201    0.120391    0.364915
     26          6           0        6.221660   -0.105308   -0.664930
     27          6           0        7.569089    0.462674   -0.218134
     28          1           0        5.014019    1.197972    0.555116
     29          1           0        5.409486   -0.339076    1.318143
     30          1           0        5.923620    0.354583   -1.615870
     31          1           0        6.318783   -1.182051   -0.854160
     32          1           0        7.892392   -0.003737    0.718101
     33          1           0        7.494983    1.541628   -0.047937
     34          1           0        8.346346    0.290280   -0.969142
 ---------------------------------------------------------------------

 SCF Done:  E(RHF) =  -669.535461493     A.U. after   15 cycles
 E2 =    -0.2091407174D+01 EUMP2 =    -0.67162686866775D+03

 The electronic state is 1-A.
 Alpha  occ. eigenvalues --  -20.60713 -20.60708 -15.85764 -11.31088 -11.27680
 Alpha  occ. eigenvalues --  -11.27598 -11.27420 -11.26692 -11.26656 -11.21818
 Alpha  occ. eigenvalues --  -11.21647 -11.21615 -11.21538 -11.21430 -11.21082
 Alpha  occ. eigenvalues --   -1.59789  -1.39343  -1.19271  -1.08677  -1.08564
 Alpha  occ. eigenvalues --   -1.04669  -1.03709  -0.96199  -0.95511  -0.87235
 Alpha  occ. eigenvalues --   -0.86065  -0.82344  -0.79793  -0.78362  -0.77385
 Alpha  occ. eigenvalues --   -0.71985  -0.71111  -0.70390  -0.65196  -0.64923
 Alpha  occ. eigenvalues --   -0.64673  -0.62059  -0.61078  -0.59543  -0.57782
 Alpha  occ. eigenvalues --   -0.55529  -0.55156  -0.53110  -0.52898  -0.52673
 Alpha  occ. eigenvalues --   -0.52583  -0.50113  -0.48740  -0.48740  -0.48098
 Alpha  occ. eigenvalues --   -0.46781  -0.45914  -0.45811  -0.44757  -0.43950
 Alpha  occ. eigenvalues --   -0.37264  -0.36257
 Alpha virt. eigenvalues --    0.05117   0.11365   0.16600   0.20770   0.22812
 Alpha virt. eigenvalues --    0.24059   0.25748   0.26384   0.27518   0.27956
 Alpha virt. eigenvalues --    0.29300   0.29790   0.31438   0.31562   0.32126

 Mulliken charges:
               1
     1  C   -0.170752
     2  C   -0.219052
     3  C   -0.170533
     4  C    0.157720
     5  C   -0.175361
     6  C   -0.222152
     7  H    0.225176
     8  H    0.223016
     9  H    0.275206
    10  H    0.284987
    11  H    0.224697
    12  N    0.487492
    13  O   -0.460965
    14  O   -0.460728
    15  C   -0.299347
    16  C   -0.299510
    17  C   -0.483444
    18  H    0.151517
    19  H    0.147377
    20  H    0.159828
    21  H    0.152757
    22  H    0.150407
    23  H    0.153889
    24  H    0.165247
    25  C   -0.298854
    26  C   -0.299835
    27  C   -0.475887
    28  H    0.152180
    29  H    0.149501
    30  H    0.152779
    31  H    0.150915
    32  H    0.154991
    33  H    0.156382
    34  H    0.160355
 Sum of Mulliken charges =  -0.00000

 Dipole moment (field-independent basis, Debye):
    X=             -0.7041    Y=             -5.0840    Z=             -0.0187  Tot=              5.1325
 Quadrupole moment (field-independent basis, Debye-Ang):
   XX=            -85.3041   YY=            -98.4828   ZZ=            -95.0916
   XY=             16.3681   XZ=             -1.0791   YZ=              0.3531

 Normal termination of Gaussian 16 at Thu May  6 01:21:47 2021.
