 Gaussian 16, Revision A.03,
 Gaussian 16:  EM64L-G16RevA.03 25-Dec-2016

 -------------
 #p 6-31g* mp2
 -------------

 ------------------------------------------------------
 Input file generated by CHIRIPA (05-May-2021 14:51:11)
 ------------------------------------------------------
 Symbolic Z-matrix:
 Charge =  0 Multiplicity = 1

                         Standard orientation:
 ---------------------------------------------------------------------
 Center     Atomic      Atomic             Coordinates (Angstroms)
 Number     Number       Type             X           Y           Z
 ---------------------------------------------------------------------
      1          6           0       -3.762620   -0.211997   -0.009838
      2          6           0       -3.145856   -1.441088   -0.678360
      3          6           0       -3.968672   -2.710438   -0.455833
      4          1           0       -3.864072   -0.400717    1.067676
      5          1           0       -4.779708   -0.063578   -0.398294
      6          1           0       -2.129724   -1.586334   -0.289777
      7          1           0       -3.045684   -1.249348   -1.754379
      8          1           0       -4.979126   -2.590285   -0.859749
      9          1           0       -4.057962   -2.929186    0.613175
     10          1           0       -3.509681   -3.576815   -0.942227
     11          6           0       -2.951501    1.064809   -0.223333
     12          6           0       -3.568266    2.293900    0.445188
     13          6           0       -2.745449    3.563250    0.222662
     14          1           0       -1.934413    0.916390    0.165122
     15          1           0       -2.850050    1.253529   -1.300848
     16          1           0       -3.668438    2.102160    1.521208
     17          1           0       -4.584397    2.439146    0.056606
     18          1           0       -2.656160    3.781999   -0.846346
     19          1           0       -1.734996    3.443098    0.626577
     20          1           0       -3.204440    4.429627    0.709056
     21          6           0        3.668270    0.237121   -0.098620
     22          6           0        5.196415    0.204960   -0.140093
     23          6           0        5.804273    1.539664   -0.572376
     24          1           0        3.286540    0.510998   -1.091705
     25          1           0        3.343702    1.029181    0.590358
     26          1           0        5.518012   -0.587720   -0.827734
     27          1           0        5.574545   -0.069060    0.853158
     28          1           0        5.512040    2.337626    0.117883
     29          1           0        5.455187    1.816019   -1.572559
     30          1           0        6.897563    1.494281   -0.595143
     31          6           0        3.045852   -1.089933    0.331791
     32          6           0        1.517706   -1.057772    0.373264
     33          6           0        0.909848   -2.392476    0.805547
     34          1           0        3.370420   -1.881993   -0.357187
     35          1           0        3.427581   -1.363811    1.324878
     36          1           0        1.139576   -0.783752   -0.619987
     37          1           0        1.196109   -0.265093    1.060905
     38          1           0        1.258936   -2.668832    1.805731
     39          1           0        1.202081   -3.190438    0.115288
     40          1           0       -0.183441   -2.347094    0.828314
 ---------------------------------------------------------------------

 SCF Done:  E(RHF) =  -470.733372532     A.U. after   11 cycles
 E2 =    -0.1582765132D+01 EUMP2 =    -0.47231613766360D+03

 The electronic state is 1-A.
 Alpha  occ. eigenvalues --  -11.21643 -11.21613 -11.21589 -11.21579 -11.21428
 Alpha  occ. eigenvalues --  -11.21389 -11.21367 -11.21329 -11.21103 -11.21077
 Alpha  occ. eigenvalues --  -11.21063 -11.21059  -1.08457  -1.08415  -1.03564
 Alpha  occ. eigenvalues --   -1.03511  -0.96008  -0.95963  -0.87030  -0.86975
 Alpha  occ. eigenvalues --   -0.79633  -0.79566  -0.78278  -0.78217  -0.65084
 Alpha  occ. eigenvalues --   -0.65061  -0.60983  -0.60925  -0.59446  -0.59261
 Alpha  occ. eigenvalues --   -0.57649  -0.57544  -0.55292  -0.55250  -0.52735
 Alpha  occ. eigenvalues --   -0.52649  -0.52455  -0.52368  -0.49942  -0.49905
 Alpha  occ. eigenvalues --   -0.48017  -0.47821  -0.46651  -0.46592  -0.45838
 Alpha  occ. eigenvalues --   -0.45754  -0.45727  -0.45663  -0.43801  -0.43757
 Alpha virt. eigenvalues --    0.20733   0.23086   0.23728   0.24517   0.26146
 Alpha virt. eigenvalues --    0.26607   0.27059   0.27484   0.28049   0.29218
 Alpha virt. eigenvalues --    0.30408   0.31384   0.31695   0.31847   0.31995

 Mulliken charges:
               1
     1  C   -0.297671
     2  C   -0.308664
     3  C   -0.475366
     4  H    0.149362
     5  H    0.149553
     6  H    0.159934
     7  H    0.151967
     8  H    0.155292
     9  H    0.154985
    10  H    0.160436
    11  C   -0.299537
    12  C   -0.299639
    13  C   -0.475658
    14  H    0.150997
    15  H    0.149518
    16  H    0.151821
    17  H    0.151897
    18  H    0.155176
    19  H    0.155239
    20  H    0.160142
    21  C   -0.298328
    22  C   -0.299693
    23  C   -0.475727
    24  H    0.149932
    25  H    0.149435
    26  H    0.151975
    27  H    0.151930
    28  H    0.155216
    29  H    0.155273
    30  H    0.160289
    31  C   -0.298346
    32  C   -0.300634
    33  C   -0.481765
    34  H    0.149768
    35  H    0.149738
    36  H    0.153444
    37  H    0.151331
    38  H    0.155392
    39  H    0.155679
    40  H    0.165307
 Sum of Mulliken charges =  -0.00000

 Dipole moment (field-independent basis, Debye):
    X=              0.0188    Y=             -0.0058    Z=             -0.0084  Tot=              0.0214
 Quadrupole moment (field-independent basis, Debye-Ang):
   XX=            -85.1184   YY=            -86.4751   ZZ=            -83.1684
   XY=             -1.1076   XZ=              0.6934   YZ=              0.4733

 Normal termination of Gaussian 16 at Thu May  6 05:25:36 2021.
