 Gaussian 16, Revision A.03,
 Gaussian 16:  EM64L-G16RevA.03 25-Dec-2016

 -------------
 #p 6-31g* mp2
 -------------

 ------------------------------------------------------
 Input file generated by CHIRIPA (05-May-2021 14:51:10)
 ------------------------------------------------------
 Symbolic Z-matrix:
 Charge =  0 Multiplicity = 1

                         Standard orientation:
 ---------------------------------------------------------------------
 Center     Atomic      Atomic             Coordinates (Angstroms)
 Number     Number       Type             X           Y           Z
 ---------------------------------------------------------------------
      1          6           0       -2.886174   -0.759679   -0.487948
      2          6           0       -1.574603   -1.181123   -1.151386
      3          6           0       -1.555702   -2.660666   -1.536599
      4          1           0       -3.051359   -1.375172    0.406942
      5          1           0       -3.719685   -0.972183   -1.171685
      6          1           0       -0.743684   -0.966610   -0.467153
      7          1           0       -1.412425   -0.564425   -2.044693
      8          1           0       -2.365107   -2.886397   -2.238390
      9          1           0       -1.692566   -3.290867   -0.651886
     10          1           0       -0.609009   -2.940399   -2.009231
     11          6           0       -2.920311    0.716730   -0.097075
     12          6           0       -4.231882    1.138174    0.566363
     13          6           0       -4.250783    2.617717    0.951576
     14          1           0       -2.086800    0.929234    0.586662
     15          1           0       -2.755126    1.332223   -0.991964
     16          1           0       -4.394060    0.521476    1.459670
     17          1           0       -5.062801    0.923661   -0.117870
     18          1           0       -4.113919    3.247918    0.066864
     19          1           0       -3.441378    2.843448    1.653367
     20          1           0       -5.197476    2.897450    1.424209
     21          6           0        2.539249   -0.644674    0.207737
     22          6           0        2.327470   -1.391852    1.524878
     23          6           0        1.597984   -2.722663    1.338912
     24          1           0        1.564329   -0.466906   -0.266474
     25          1           0        3.109768   -1.283554   -0.480547
     26          1           0        1.758713   -0.751217    2.210967
     27          1           0        3.302993   -1.567692    1.996102
     28          1           0        2.164962   -3.383289    0.675054
     29          1           0        0.611909   -2.562175    0.891140
     30          1           0        1.457183   -3.240058    2.293028
     31          6           0        3.267237    0.687623    0.377285
     32          6           0        3.479015    1.434801   -0.939856
     33          6           0        4.208501    2.765612   -0.753890
     34          1           0        2.696717    1.326503    1.065569
     35          1           0        4.242156    0.509855    0.851496
     36          1           0        2.503492    1.610641   -1.411080
     37          1           0        4.047772    0.794166   -1.625945
     38          1           0        5.194576    2.605124   -0.306117
     39          1           0        3.641522    3.426239   -0.090031
     40          1           0        4.349302    3.283007   -1.708006
 ---------------------------------------------------------------------

 SCF Done:  E(RHF) =  -470.732785046     A.U. after   11 cycles
 E2 =    -0.1583842357D+01 EUMP2 =    -0.47231662740365D+03

 The electronic state is 1-A.
 Alpha  occ. eigenvalues --  -11.21640 -11.21638 -11.21606 -11.21585 -11.21454
 Alpha  occ. eigenvalues --  -11.21394 -11.21385 -11.21322 -11.21105 -11.21088
 Alpha  occ. eigenvalues --  -11.21059 -11.21047  -1.08491  -1.08413  -1.03600
 Alpha  occ. eigenvalues --   -1.03501  -0.96030  -0.95958  -0.87048  -0.86972
 Alpha  occ. eigenvalues --   -0.79674  -0.79564  -0.78367  -0.78165  -0.65273
 Alpha  occ. eigenvalues --   -0.64935  -0.61204  -0.60726  -0.59433  -0.59282
 Alpha  occ. eigenvalues --   -0.57634  -0.57572  -0.55412  -0.55160  -0.52708
 Alpha  occ. eigenvalues --   -0.52665  -0.52449  -0.52383  -0.50022  -0.49853
 Alpha  occ. eigenvalues --   -0.48082  -0.47843  -0.46881  -0.46522  -0.46070
 Alpha  occ. eigenvalues --   -0.45794  -0.45739  -0.45230  -0.43820  -0.43773
 Alpha virt. eigenvalues --    0.20540   0.23179   0.23522   0.24873   0.25808
 Alpha virt. eigenvalues --    0.26638   0.27130   0.27530   0.28676   0.29190
 Alpha virt. eigenvalues --    0.30555   0.31287   0.31542   0.31847   0.32055

 Mulliken charges:
               1
     1  C   -0.297455
     2  C   -0.310485
     3  C   -0.476440
     4  H    0.149641
     5  H    0.149929
     6  H    0.160050
     7  H    0.152195
     8  H    0.155583
     9  H    0.155733
    10  H    0.161689
    11  C   -0.298300
    12  C   -0.299683
    13  C   -0.475744
    14  H    0.148730
    15  H    0.149694
    16  H    0.152109
    17  H    0.152154
    18  H    0.155226
    19  H    0.155077
    20  H    0.160453
    21  C   -0.306434
    22  C   -0.299220
    23  C   -0.482413
    24  H    0.157359
    25  H    0.149416
    26  H    0.150854
    27  H    0.152142
    28  H    0.155395
    29  H    0.162385
    30  H    0.159919
    31  C   -0.297518
    32  C   -0.299801
    33  C   -0.475702
    34  H    0.149150
    35  H    0.149581
    36  H    0.152390
    37  H    0.151843
    38  H    0.155109
    39  H    0.155193
    40  H    0.160201
 Sum of Mulliken charges =  -0.00000

 Dipole moment (field-independent basis, Debye):
    X=             -0.0250    Y=             -0.0111    Z=             -0.0240  Tot=              0.0364
 Quadrupole moment (field-independent basis, Debye-Ang):
   XX=            -84.1371   YY=            -86.5602   ZZ=            -84.0532
   XY=             -0.8500   XZ=              0.2885   YZ=             -0.4418

 Normal termination of Gaussian 16 at Wed May  5 23:03:44 2021.
