 Gaussian 16, Revision A.03,
 Gaussian 16:  EM64L-G16RevA.03 25-Dec-2016

 -------------
 #p 6-31g* mp2
 -------------

 ------------------------------------------------------
 Input file generated by CHIRIPA (05-May-2021 14:53:12)
 ------------------------------------------------------
 Symbolic Z-matrix:
 Charge =  0 Multiplicity = 1

                         Standard orientation:
 ---------------------------------------------------------------------
 Center     Atomic      Atomic             Coordinates (Angstroms)
 Number     Number       Type             X           Y           Z
 ---------------------------------------------------------------------
      1          6           0       -3.219684   -0.539932    0.145330
      2          6           0       -3.761788   -1.769970   -0.583446
      3          6           0       -4.032474   -2.943582    0.358446
      4          1           0       -2.293821   -0.811354    0.670738
      5          1           0       -3.938841   -0.233287    0.917455
      6          1           0       -3.042460   -2.073374   -1.354891
      7          1           0       -4.686365   -1.495541   -1.107337
      8          1           0       -4.767013   -2.664289    1.120712
      9          1           0       -3.113767   -3.245405    0.871750
     10          1           0       -4.419400   -3.812232   -0.183399
     11          6           0       -2.944134    0.641669   -0.782905
     12          6           0       -2.402029    1.871707   -0.054129
     13          6           0       -2.131344    3.045318   -0.996020
     14          1           0       -2.224976    0.335023   -1.555029
     15          1           0       -3.869996    0.913090   -1.308312
     16          1           0       -1.477452    1.597278    0.469762
     17          1           0       -3.121358    2.175110    0.717317
     18          1           0       -3.050051    3.347142   -1.509324
     19          1           0       -1.396805    2.766026   -1.758286
     20          1           0       -1.744417    3.913968   -0.454176
     21          6           0        3.872801   -1.512459   -1.182948
     22          6           0        3.708717   -0.161618   -1.506722
     23          6           0        2.899350    0.663729   -0.720417
     24          6           0        2.266104    0.102636    0.387493
     25          6           0        2.409786   -1.239446    0.736006
     26          6           0        3.223956   -2.046120   -0.064590
     27          1           0        4.503401   -2.146355   -1.799321
     28          1           0        4.211397    0.255549   -2.374668
     29          1           0        2.754853    1.712851   -0.948191
     30          1           0        1.895812   -1.626654    1.607395
     31          1           0        3.349555   -3.094849    0.189254
     32          7           0        1.406723    0.966510    1.227484
     33          8           0        0.859705    0.448002    2.198338
     34          8           0        1.296430    2.145766    0.899109
 ---------------------------------------------------------------------

 SCF Done:  E(RHF) =  -669.536248485     A.U. after   15 cycles
 E2 =    -0.2092042184D+01 EUMP2 =    -0.67162829066890D+03

 The electronic state is 1-A.
 Alpha  occ. eigenvalues --  -20.61028 -20.61022 -15.86032 -11.31346 -11.27905
 Alpha  occ. eigenvalues --  -11.27900 -11.27637 -11.26904 -11.26894 -11.21160
 Alpha  occ. eigenvalues --  -11.20735 -11.20700 -11.20605 -11.20386 -11.20044
 Alpha  occ. eigenvalues --   -1.60081  -1.39632  -1.19511  -1.08918  -1.07696
 Alpha  occ. eigenvalues --   -1.04902  -1.02772  -0.95761  -0.95255  -0.86303
 Alpha  occ. eigenvalues --   -0.86284  -0.82595  -0.78856  -0.77653  -0.77456
 Alpha  occ. eigenvalues --   -0.72248  -0.71415  -0.70617  -0.65163  -0.64903
 Alpha  occ. eigenvalues --   -0.64335  -0.62248  -0.60176  -0.58640  -0.56827
 Alpha  occ. eigenvalues --   -0.55406  -0.54571  -0.53236  -0.52992  -0.51949
 Alpha  occ. eigenvalues --   -0.51680  -0.49262  -0.49019  -0.49018  -0.47157
 Alpha  occ. eigenvalues --   -0.45905  -0.45036  -0.45010  -0.44846  -0.43030
 Alpha  occ. eigenvalues --   -0.37486  -0.36502
 Alpha virt. eigenvalues --    0.04824   0.11150   0.16314   0.21272   0.23480
 Alpha virt. eigenvalues --    0.25016   0.27177   0.27245   0.28022   0.28430
 Alpha virt. eigenvalues --    0.28671   0.30886   0.31989   0.32425   0.32542

 Mulliken charges:
               1
     1  C   -0.298560
     2  C   -0.298806
     3  C   -0.474744
     4  H    0.153126
     5  H    0.150468
     6  H    0.148154
     7  H    0.150827
     8  H    0.156084
     9  H    0.153443
    10  H    0.157390
    11  C   -0.298213
    12  C   -0.306112
    13  C   -0.471850
    14  H    0.143282
    15  H    0.146203
    16  H    0.170506
    17  H    0.150613
    18  H    0.148292
    19  H    0.148494
    20  H    0.166417
    21  C   -0.170421
    22  C   -0.218615
    23  C   -0.170919
    24  C    0.158989
    25  C   -0.171101
    26  C   -0.218584
    27  H    0.226285
    28  H    0.224133
    29  H    0.276253
    30  H    0.275891
    31  H    0.224103
    32  N    0.486330
    33  O   -0.459397
    34  O   -0.457960
 Sum of Mulliken charges =  -0.00000

 Dipole moment (field-independent basis, Debye):
    X=              3.2714    Y=             -2.9703    Z=             -2.8019  Tot=              5.2321
 Quadrupole moment (field-independent basis, Debye-Ang):
   XX=            -81.1047   YY=            -93.4875   ZZ=            -96.2352
   XY=             -6.5544   XZ=             -6.9104   YZ=             -3.3602

 Normal termination of Gaussian 16 at Thu May  6 08:50:48 2021.
