 Gaussian 16, Revision A.03,
 Gaussian 16:  EM64L-G16RevA.03 25-Dec-2016

 -------------
 #p 6-31g* mp2
 -------------

 ------------------------------------------------------
 Input file generated by CHIRIPA (05-May-2021 14:55:21)
 ------------------------------------------------------
 Symbolic Z-matrix:
 Charge =  0 Multiplicity = 1

                         Standard orientation:
 ---------------------------------------------------------------------
 Center     Atomic      Atomic             Coordinates (Angstroms)
 Number     Number       Type             X           Y           Z
 ---------------------------------------------------------------------
      1          6           0       -1.429492   -2.145032    1.544331
      2          6           0       -0.756211   -0.918981    1.548067
      3          6           0       -1.198261    0.136242    0.744548
      4          6           0       -2.322056   -0.070226   -0.054043
      5          6           0       -3.014246   -1.279979   -0.079729
      6          6           0       -2.554378   -2.321307    0.731878
      7          1           0       -1.079176   -2.959358    2.171666
      8          1           0        0.117671   -0.779231    2.178023
      9          1           0       -0.695898    1.095813    0.728058
     10          1           0       -3.882409   -1.389233   -0.718302
     11          1           0       -3.079234   -3.272383    0.726945
     12          7           0       -2.799466    1.039536   -0.908973
     13          8           0       -3.792035    0.832262   -1.603583
     14          8           0       -2.172052    2.095629   -0.868271
     15          6           0        2.333989    0.769905    0.198120
     16          6           0        2.809021    2.199467    0.460189
     17          6           0        1.722486    3.079346    1.079101
     18          1           0        1.459436    0.796898   -0.466240
     19          1           0        1.994651    0.324581    1.143600
     20          1           0        3.148654    2.641487   -0.485265
     21          1           0        3.682661    2.169057    1.123849
     22          1           0        1.389260    2.664324    2.035824
     23          1           0        0.852220    3.139439    0.417567
     24          1           0        2.083519    4.096937    1.258048
     25          6           0        3.409046   -0.121896   -0.420482
     26          6           0        2.934013   -1.551459   -0.682552
     27          6           0        4.020549   -2.431338   -1.301463
     28          1           0        3.748384    0.323426   -1.365962
     29          1           0        4.283598   -0.148891    0.243878
     30          1           0        2.060373   -1.521048   -1.346211
     31          1           0        2.594380   -1.993479    0.262903
     32          1           0        4.890816   -2.491431   -0.639929
     33          1           0        4.353775   -2.016316   -2.258186
     34          1           0        3.659516   -3.448929   -1.480410
 ---------------------------------------------------------------------

 SCF Done:  E(RHF) =  -669.534176627     A.U. after   15 cycles
 E2 =    -0.2094457354D+01 EUMP2 =    -0.67162863398125D+03

 The electronic state is 1-A.
 Alpha  occ. eigenvalues --  -20.60771 -20.60765 -15.85815 -11.31100 -11.27685
 Alpha  occ. eigenvalues --  -11.27597 -11.27422 -11.26688 -11.26643 -11.22017
 Alpha  occ. eigenvalues --  -11.21972 -11.21914 -11.21793 -11.21419 -11.21380
 Alpha  occ. eigenvalues --   -1.59840  -1.39397  -1.19283  -1.08894  -1.08692
 Alpha  occ. eigenvalues --   -1.04680  -1.03921  -0.96380  -0.95538  -0.87396
 Alpha  occ. eigenvalues --   -0.86085  -0.82392  -0.79996  -0.78835  -0.77346
 Alpha  occ. eigenvalues --   -0.72035  -0.71161  -0.70397  -0.65593  -0.64933
 Alpha  occ. eigenvalues --   -0.64637  -0.62070  -0.61299  -0.59723  -0.58015
 Alpha  occ. eigenvalues --   -0.55667  -0.55193  -0.53147  -0.53002  -0.52862
 Alpha  occ. eigenvalues --   -0.52660  -0.50312  -0.48791  -0.48787  -0.48280
 Alpha  occ. eigenvalues --   -0.47001  -0.46238  -0.46147  -0.44811  -0.44191
 Alpha  occ. eigenvalues --   -0.37270  -0.36202
 Alpha virt. eigenvalues --    0.05087   0.11260   0.16547   0.19965   0.22798
 Alpha virt. eigenvalues --    0.23626   0.24763   0.26310   0.27081   0.28622
 Alpha virt. eigenvalues --    0.30148   0.30322   0.31467   0.31639   0.31806

 Mulliken charges:
               1
     1  C   -0.170921
     2  C   -0.220745
     3  C   -0.174029
     4  C    0.154841
     5  C   -0.170340
     6  C   -0.219244
     7  H    0.225150
     8  H    0.224348
     9  H    0.287936
    10  H    0.275074
    11  H    0.222956
    12  N    0.488371
    13  O   -0.460078
    14  O   -0.463392
    15  C   -0.305763
    16  C   -0.297642
    17  C   -0.489085
    18  H    0.157030
    19  H    0.138166
    20  H    0.157192
    21  H    0.151675
    22  H    0.147149
    23  H    0.170948
    24  H    0.166551
    25  C   -0.298077
    26  C   -0.299071
    27  C   -0.476058
    28  H    0.153739
    29  H    0.149592
    30  H    0.155910
    31  H    0.145082
    32  H    0.154934
    33  H    0.157679
    34  H    0.160123
 Sum of Mulliken charges =  -0.00000

 Dipole moment (field-independent basis, Debye):
    X=              1.7763    Y=             -3.7955    Z=              2.8639  Tot=              5.0757
 Quadrupole moment (field-independent basis, Debye-Ang):
   XX=           -100.4717   YY=            -93.0466   ZZ=            -94.6337
   XY=             12.1780   XZ=             -5.4446   YZ=              0.3972

 Normal termination of Gaussian 16 at Wed May  5 15:56:49 2021.
