 Gaussian 16, Revision A.03,
 Gaussian 16:  EM64L-G16RevA.03 25-Dec-2016

 -------------
 #p 6-31g* mp2
 -------------

 ------------------------------------------------------
 Input file generated by CHIRIPA (05-May-2021 14:53:15)
 ------------------------------------------------------
 Symbolic Z-matrix:
 Charge =  0 Multiplicity = 1

                         Standard orientation:
 ---------------------------------------------------------------------
 Center     Atomic      Atomic             Coordinates (Angstroms)
 Number     Number       Type             X           Y           Z
 ---------------------------------------------------------------------
      1          6           0        3.535444   -0.168216    0.099138
      2          6           0        2.886006   -0.940038    1.248271
      3          6           0        1.359479   -0.954018    1.162750
      4          1           0        3.157334    0.863277    0.098800
      5          1           0        3.224829   -0.615296   -0.855342
      6          1           0        3.198855   -0.492493    2.200345
      7          1           0        3.265850   -1.969761    1.245991
      8          1           0        1.030246   -1.419547    0.228143
      9          1           0        0.962870    0.066114    1.187920
     10          1           0        0.915905   -1.511072    1.993889
     11          6           0        5.061246   -0.145286    0.170754
     12          6           0        5.710684    0.626537   -0.978379
     13          6           0        7.237211    0.640516   -0.892858
     14          1           0        5.371861    0.301795    1.125234
     15          1           0        5.439355   -1.176779    0.171092
     16          1           0        5.330840    1.656259   -0.976099
     17          1           0        5.397835    0.178992   -1.930453
     18          1           0        7.633820   -0.379616   -0.918028
     19          1           0        7.566444    1.106046    0.041749
     20          1           0        7.680784    1.197570   -1.723997
     21          6           0       -3.427510   -2.364509   -0.525048
     22          6           0       -2.307787   -1.788345    0.083867
     23          6           0       -2.258413   -0.411480    0.321252
     24          6           0       -3.351370    0.362893   -0.064859
     25          6           0       -4.481145   -0.181587   -0.673497
     26          6           0       -4.508709   -1.560708   -0.901123
     27          1           0       -3.457393   -3.434967   -0.705664
     28          1           0       -1.466658   -2.410139    0.376987
     29          1           0       -1.404061    0.060655    0.790921
     30          1           0       -5.304293    0.464050   -0.954567
     31          1           0       -5.379612   -2.005429   -1.374195
     32          7           0       -3.310644    1.821712    0.181284
     33          8           0       -4.286484    2.482153   -0.168275
     34          8           0       -2.303655    2.277072    0.719109
 ---------------------------------------------------------------------

 SCF Done:  E(RHF) =  -669.535365203     A.U. after   15 cycles
 E2 =    -0.2091736985D+01 EUMP2 =    -0.67162710218758D+03

 The electronic state is 1-A.
 Alpha  occ. eigenvalues --  -20.60693 -20.60688 -15.85742 -11.31052 -11.27646
 Alpha  occ. eigenvalues --  -11.27555 -11.27382 -11.26657 -11.26591 -11.22134
 Alpha  occ. eigenvalues --  -11.21956 -11.21724 -11.21686 -11.21573 -11.21159
 Alpha  occ. eigenvalues --   -1.59767  -1.39323  -1.19233  -1.08740  -1.08643
 Alpha  occ. eigenvalues --   -1.04633  -1.03904  -0.96397  -0.95480  -0.87439
 Alpha  occ. eigenvalues --   -0.86032  -0.82316  -0.80003  -0.78513  -0.77346
 Alpha  occ. eigenvalues --   -0.71964  -0.71089  -0.70354  -0.65374  -0.64885
 Alpha  occ. eigenvalues --   -0.64643  -0.62001  -0.61297  -0.59770  -0.57962
 Alpha  occ. eigenvalues --   -0.55696  -0.55158  -0.53096  -0.53011  -0.52866
 Alpha  occ. eigenvalues --   -0.52616  -0.50297  -0.48722  -0.48717  -0.48279
 Alpha  occ. eigenvalues --   -0.46975  -0.46063  -0.45955  -0.44739  -0.44141
 Alpha  occ. eigenvalues --   -0.37228  -0.36223
 Alpha virt. eigenvalues --    0.05154   0.11410   0.16611   0.20603   0.22670
 Alpha virt. eigenvalues --    0.23956   0.25620   0.26084   0.27286   0.28011
 Alpha virt. eigenvalues --    0.29170   0.29697   0.31122   0.31592   0.32198

 Mulliken charges:
               1
     1  C   -0.300020
     2  C   -0.299115
     3  C   -0.489864
     4  H    0.154883
     5  H    0.149077
     6  H    0.156398
     7  H    0.152162
     8  H    0.152601
     9  H    0.164081
    10  H    0.159058
    11  C   -0.298843
    12  C   -0.300161
    13  C   -0.475946
    14  H    0.150947
    15  H    0.148980
    16  H    0.154267
    17  H    0.151771
    18  H    0.154664
    19  H    0.155883
    20  H    0.161198
    21  C   -0.170737
    22  C   -0.225073
    23  C   -0.176808
    24  C    0.158823
    25  C   -0.170459
    26  C   -0.219140
    27  H    0.224945
    28  H    0.226819
    29  H    0.286179
    30  H    0.275069
    31  H    0.222822
    32  N    0.487845
    33  O   -0.460744
    34  O   -0.461564
 Sum of Mulliken charges =  -0.00000

 Dipole moment (field-independent basis, Debye):
    X=              0.0765    Y=             -5.0768    Z=             -0.8451  Tot=              5.1473
 Quadrupole moment (field-independent basis, Debye-Ang):
   XX=            -90.6544   YY=            -98.4896   ZZ=            -94.2475
   XY=             16.8769   XZ=              5.2378   YZ=              0.3486

 Normal termination of Gaussian 16 at Wed May  5 21:53:24 2021.
