 Gaussian 16, Revision A.03,
 Gaussian 16:  EM64L-G16RevA.03 25-Dec-2016

 -------------
 #p 6-31g* mp2
 -------------

 ------------------------------------------------------
 Input file generated by CHIRIPA (05-May-2021 14:53:17)
 ------------------------------------------------------
 Symbolic Z-matrix:
 Charge =  0 Multiplicity = 1

                         Standard orientation:
 ---------------------------------------------------------------------
 Center     Atomic      Atomic             Coordinates (Angstroms)
 Number     Number       Type             X           Y           Z
 ---------------------------------------------------------------------
      1          6           0        3.090808    0.975883   -0.494983
      2          6           0        1.745262    1.599192   -0.867777
      3          6           0        1.832877    3.110618   -1.081577
      4          1           0        3.469476    1.455447    0.418019
      5          1           0        3.819959    1.193337   -1.287731
      6          1           0        1.018503    1.379448   -0.075218
      7          1           0        1.369662    1.117955   -1.779891
      8          1           0        2.536965    3.345679   -1.886318
      9          1           0        2.183810    3.608657   -0.171960
     10          1           0        0.859884    3.535576   -1.347199
     11          6           0        3.019407   -0.534595   -0.277988
     12          6           0        4.364954   -1.157905    0.094806
     13          6           0        4.277338   -2.669330    0.308606
     14          1           0        2.290257   -0.752049    0.514759
     15          1           0        2.640739   -1.014160   -1.190990
     16          1           0        4.740554   -0.676667    1.006919
     17          1           0        5.091713   -0.938160   -0.697753
     18          1           0        3.926405   -3.167369   -0.601011
     19          1           0        3.573251   -2.904391    1.113347
     20          1           0        5.250331   -3.094288    0.574228
     21          6           0       -3.613559   -1.626282   -1.355513
     22          6           0       -3.806327   -0.240889   -1.362507
     23          6           0       -3.131882    0.574428   -0.448762
     24          6           0       -2.268205   -0.031821    0.462178
     25          6           0       -2.055081   -1.409080    0.494163
     26          6           0       -2.740091   -2.204935   -0.428834
     27          1           0       -4.141587   -2.252081   -2.068926
     28          1           0       -4.484065    0.211249   -2.081039
     29          1           0       -3.262531    1.649635   -0.432103
     30          1           0       -1.373065   -1.830829    1.222450
     31          1           0       -2.588436   -3.280568   -0.421088
     32          7           0       -1.548608    0.821018    1.434417
     33          8           0       -0.793120    0.262459    2.226810
     34          8           0       -1.753702    2.031884    1.385655
 ---------------------------------------------------------------------

 SCF Done:  E(RHF) =  -669.536165895     A.U. after   15 cycles
 E2 =    -0.2091735994D+01 EUMP2 =    -0.67162790188897D+03

 The electronic state is 1-A.
 Alpha  occ. eigenvalues --  -20.60906 -20.60896 -15.85931 -11.31240 -11.27807
 Alpha  occ. eigenvalues --  -11.27803 -11.27545 -11.26812 -11.26802 -11.21232
 Alpha  occ. eigenvalues --  -11.20991 -11.20911 -11.20837 -11.20804 -11.20399
 Alpha  occ. eigenvalues --   -1.59973  -1.39525  -1.19410  -1.08820  -1.07925
 Alpha  occ. eigenvalues --   -1.04806  -1.03043  -0.95664  -0.95493  -0.86516
 Alpha  occ. eigenvalues --   -0.86208  -0.82498  -0.79126  -0.77754  -0.77551
 Alpha  occ. eigenvalues --   -0.72155  -0.71303  -0.70524  -0.65067  -0.64812
 Alpha  occ. eigenvalues --   -0.64533  -0.62155  -0.60424  -0.58876  -0.57110
 Alpha  occ. eigenvalues --   -0.55315  -0.54772  -0.53135  -0.52900  -0.52199
 Alpha  occ. eigenvalues --   -0.51933  -0.49436  -0.48918  -0.48916  -0.47444
 Alpha  occ. eigenvalues --   -0.46138  -0.45307  -0.45214  -0.44884  -0.43292
 Alpha  occ. eigenvalues --   -0.37388  -0.36403
 Alpha virt. eigenvalues --    0.04955   0.11242   0.16437   0.21326   0.23349
 Alpha virt. eigenvalues --    0.24743   0.26691   0.27335   0.27675   0.28411
 Alpha virt. eigenvalues --    0.28558   0.31008   0.31692   0.32101   0.32274

 Mulliken charges:
               1
     1  C   -0.296989
     2  C   -0.304030
     3  C   -0.473577
     4  H    0.153776
     5  H    0.146394
     6  H    0.160036
     7  H    0.145488
     8  H    0.150408
     9  H    0.159894
    10  H    0.160165
    11  C   -0.301086
    12  C   -0.299121
    13  C   -0.475594
    14  H    0.156345
    15  H    0.144447
    16  H    0.154291
    17  H    0.150309
    18  H    0.151954
    19  H    0.155180
    20  H    0.159504
    21  C   -0.170552
    22  C   -0.218671
    23  C   -0.170608
    24  C    0.157696
    25  C   -0.170328
    26  C   -0.218579
    27  H    0.225809
    28  H    0.223604
    29  H    0.275643
    30  H    0.275615
    31  H    0.223781
    32  N    0.488391
    33  O   -0.460801
    34  O   -0.458795
 Sum of Mulliken charges =  -0.00000

 Dipole moment (field-independent basis, Debye):
    X=             -2.6454    Y=             -2.9412    Z=             -3.3066  Tot=              5.1558
 Quadrupole moment (field-independent basis, Debye-Ang):
   XX=            -83.0399   YY=            -92.6709   ZZ=            -97.0938
   XY=              5.2478   XZ=              7.9658   YZ=             -2.5234

 Normal termination of Gaussian 16 at Wed May  5 15:45:21 2021.
