 Gaussian 16, Revision A.03,
 Gaussian 16:  EM64L-G16RevA.03 25-Dec-2016

 -------------
 #p 6-31g* mp2
 -------------

 ------------------------------------------------------
 Input file generated by CHIRIPA (05-May-2021 14:51:10)
 ------------------------------------------------------
 Symbolic Z-matrix:
 Charge =  0 Multiplicity = 1

                         Standard orientation:
 ---------------------------------------------------------------------
 Center     Atomic      Atomic             Coordinates (Angstroms)
 Number     Number       Type             X           Y           Z
 ---------------------------------------------------------------------
      1          6           0       -3.105968    0.449450    0.917599
      2          6           0       -2.121251    1.570260    0.582783
      3          6           0       -1.778136    2.437263    1.794546
      4          1           0       -4.025498    0.888447    1.328319
      5          1           0       -2.678704   -0.179776    1.710642
      6          1           0       -2.549649    2.196371   -0.210361
      7          1           0       -1.204032    1.128555    0.172633
      8          1           0       -1.327256    1.830921    2.586794
      9          1           0       -2.680519    2.904803    2.201624
     10          1           0       -1.072828    3.232137    1.532675
     11          6           0       -3.458729   -0.425937   -0.283644
     12          6           0       -4.443446   -1.546747    0.051172
     13          6           0       -4.786561   -2.413750   -1.160592
     14          1           0       -3.885993    0.203289   -1.076687
     15          1           0       -2.539199   -0.864934   -0.694365
     16          1           0       -5.360665   -1.105042    0.461322
     17          1           0       -4.015048   -2.172858    0.844315
     18          1           0       -3.884178   -2.881290   -1.567670
     19          1           0       -5.237441   -1.807408   -1.952839
     20          1           0       -5.491869   -3.208624   -0.898720
     21          6           0        2.668973    0.241319   -0.695338
     22          6           0        2.695846    1.747858   -0.955338
     23          6           0        1.462057    2.239064   -1.713148
     24          1           0        2.591030   -0.288548   -1.654562
     25          1           0        1.763582   -0.009263   -0.125362
     26          1           0        3.601616    1.995715   -1.523460
     27          1           0        2.773928    2.274193    0.004605
     28          1           0        0.550363    2.020434   -1.147802
     29          1           0        1.382754    1.740374   -2.684549
     30          1           0        1.501946    3.318691   -1.888295
     31          6           0        3.895723   -0.264831    0.061383
     32          6           0        3.868851   -1.771371    0.321383
     33          6           0        5.102640   -2.262578    1.079193
     34          1           0        4.801114   -0.014250   -0.508592
     35          1           0        3.973668    0.265034    1.020607
     36          1           0        3.790770   -2.297706   -0.638560
     37          1           0        2.963081   -2.019228    0.889505
     38          1           0        5.181943   -1.763887    2.050594
     39          1           0        6.014334   -2.043947    0.513848
     40          1           0        5.062751   -3.342204    1.254341
 ---------------------------------------------------------------------

 SCF Done:  E(RHF) =  -470.733278147     A.U. after   11 cycles
 E2 =    -0.1582794199D+01 EUMP2 =    -0.47231607234551D+03

 The electronic state is 1-A.
 Alpha  occ. eigenvalues --  -11.21644 -11.21622 -11.21609 -11.21590 -11.21426
 Alpha  occ. eigenvalues --  -11.21425 -11.21365 -11.21364 -11.21117 -11.21087
 Alpha  occ. eigenvalues --  -11.21072 -11.21001  -1.08461  -1.08435  -1.03573
 Alpha  occ. eigenvalues --   -1.03515  -0.96013  -0.95967  -0.87024  -0.86989
 Alpha  occ. eigenvalues --   -0.79682  -0.79542  -0.78306  -0.78218  -0.65149
 Alpha  occ. eigenvalues --   -0.65017  -0.61071  -0.60835  -0.59392  -0.59328
 Alpha  occ. eigenvalues --   -0.57672  -0.57538  -0.55329  -0.55219  -0.52700
 Alpha  occ. eigenvalues --   -0.52666  -0.52437  -0.52394  -0.50009  -0.49877
 Alpha  occ. eigenvalues --   -0.48082  -0.47798  -0.46809  -0.46499  -0.45929
 Alpha  occ. eigenvalues --   -0.45764  -0.45757  -0.45487  -0.43807  -0.43787
 Alpha virt. eigenvalues --    0.20836   0.23201   0.23510   0.25019   0.25735
 Alpha virt. eigenvalues --    0.26814   0.27098   0.27390   0.28162   0.28879
 Alpha virt. eigenvalues --    0.30596   0.31210   0.31671   0.31773   0.32020

 Mulliken charges:
               1
     1  C   -0.297502
     2  C   -0.305868
     3  C   -0.476486
     4  H    0.149848
     5  H    0.149267
     6  H    0.152826
     7  H    0.156341
     8  H    0.154818
     9  H    0.155737
    10  H    0.161050
    11  C   -0.298535
    12  C   -0.299661
    13  C   -0.475743
    14  H    0.149785
    15  H    0.149960
    16  H    0.151947
    17  H    0.151870
    18  H    0.155323
    19  H    0.155250
    20  H    0.160254
    21  C   -0.299307
    22  C   -0.299128
    23  C   -0.484036
    24  H    0.149746
    25  H    0.149164
    26  H    0.151882
    27  H    0.151816
    28  H    0.164314
    29  H    0.154903
    30  H    0.159923
    31  C   -0.298302
    32  C   -0.299622
    33  C   -0.475717
    34  H    0.149781
    35  H    0.149795
    36  H    0.151951
    37  H    0.151588
    38  H    0.155234
    39  H    0.155282
    40  H    0.160253
 Sum of Mulliken charges =  -0.00000

 Dipole moment (field-independent basis, Debye):
    X=             -0.0232    Y=              0.0047    Z=              0.0008  Tot=              0.0237
 Quadrupole moment (field-independent basis, Debye-Ang):
   XX=            -84.7032   YY=            -85.1457   ZZ=            -84.8670
   XY=             -0.4590   XZ=             -0.9485   YZ=             -0.2455

 Normal termination of Gaussian 16 at Thu May  6 02:13:48 2021.
