 Gaussian 16, Revision A.03,
 Gaussian 16:  EM64L-G16RevA.03 25-Dec-2016

 -------------
 #p 6-31g* mp2
 -------------

 ------------------------------------------------------
 Input file generated by CHIRIPA (05-May-2021 14:55:19)
 ------------------------------------------------------
 Symbolic Z-matrix:
 Charge =  0 Multiplicity = 1

                         Standard orientation:
 ---------------------------------------------------------------------
 Center     Atomic      Atomic             Coordinates (Angstroms)
 Number     Number       Type             X           Y           Z
 ---------------------------------------------------------------------
      1          6           0        1.257487    1.551766    1.466816
      2          6           0        0.783167    0.247461    1.292665
      3          6           0        1.550836   -0.702254    0.612021
      4          6           0        2.793825   -0.311626    0.116363
      5          6           0        3.293909    0.980056    0.273725
      6          6           0        2.509138    1.913264    0.957688
      7          1           0        0.654501    2.283116    1.996846
      8          1           0       -0.188505   -0.036100    1.686988
      9          1           0        1.207904   -1.718912    0.462950
     10          1           0        4.266478    1.233040   -0.130660
     11          1           0        2.880045    2.925481    1.091442
     12          7           0        3.615575   -1.308309   -0.605961
     13          8           0        4.707309   -0.939105   -1.033093
     14          8           0        3.152367   -2.439841   -0.731309
     15          6           0       -3.889258   -0.380208   -0.453529
     16          6           0       -4.018379   -1.389410    0.687884
     17          6           0       -4.995227   -2.521436    0.368388
     18          1           0       -4.879473    0.040076   -0.676644
     19          1           0       -3.560307   -0.904276   -1.361569
     20          1           0       -4.345656   -0.863364    1.593854
     21          1           0       -3.027710   -1.807198    0.908437
     22          1           0       -4.669713   -3.071848   -0.520256
     23          1           0       -5.995147   -2.122652    0.169056
     24          1           0       -5.072239   -3.231324    1.197839
     25          6           0       -2.916223    0.757452   -0.149124
     26          6           0       -2.787102    1.766654   -1.290536
     27          6           0       -1.810254    2.898680   -0.971040
     28          1           0       -3.245174    1.281520    0.758918
     29          1           0       -1.926008    0.337169    0.073993
     30          1           0       -3.777771    2.184442   -1.511088
     31          1           0       -2.459825    1.240608   -2.196506
     32          1           0       -0.810335    2.499895   -0.771708
     33          1           0       -2.135768    3.449092   -0.082396
     34          1           0       -1.733243    3.608569   -1.800491
 ---------------------------------------------------------------------

 SCF Done:  E(RHF) =  -669.535320390     A.U. after   15 cycles
 E2 =    -0.2092842329D+01 EUMP2 =    -0.67162816271962D+03

 The electronic state is 1-A.
 Alpha  occ. eigenvalues --  -20.60807 -20.60802 -15.85862 -11.31246 -11.27816
 Alpha  occ. eigenvalues --  -11.27813 -11.27550 -11.26831 -11.26798 -11.22239
 Alpha  occ. eigenvalues --  -11.22152 -11.22064 -11.21934 -11.21615 -11.21517
 Alpha  occ. eigenvalues --   -1.59883  -1.39436  -1.19426  -1.09047  -1.08808
 Alpha  occ. eigenvalues --   -1.04830  -1.04089  -0.96539  -0.95641  -0.87557
 Alpha  occ. eigenvalues --   -0.86223  -0.82473  -0.80168  -0.78906  -0.77510
 Alpha  occ. eigenvalues --   -0.72079  -0.71206  -0.70514  -0.65717  -0.65071
 Alpha  occ. eigenvalues --   -0.64795  -0.62178  -0.61479  -0.59905  -0.58164
 Alpha  occ. eigenvalues --   -0.55837  -0.55302  -0.53228  -0.53187  -0.53060
 Alpha  occ. eigenvalues --   -0.52802  -0.50469  -0.48842  -0.48833  -0.48477
 Alpha  occ. eigenvalues --   -0.47195  -0.46400  -0.46326  -0.44837  -0.44357
 Alpha  occ. eigenvalues --   -0.37354  -0.36402
 Alpha virt. eigenvalues --    0.04992   0.11126   0.16374   0.20343   0.22723
 Alpha virt. eigenvalues --    0.23525   0.25082   0.26286   0.27053   0.28636
 Alpha virt. eigenvalues --    0.29086   0.30785   0.30973   0.31582   0.31933

 Mulliken charges:
               1
     1  C   -0.170930
     2  C   -0.218581
     3  C   -0.172945
     4  C    0.158729
     5  C   -0.170520
     6  C   -0.219444
     7  H    0.227997
     8  H    0.227600
     9  H    0.275593
    10  H    0.275956
    11  H    0.224215
    12  N    0.488094
    13  O   -0.460197
    14  O   -0.460346
    15  C   -0.298291
    16  C   -0.299645
    17  C   -0.476035
    18  H    0.152021
    19  H    0.152989
    20  H    0.151144
    21  H    0.145873
    22  H    0.157850
    23  H    0.156821
    24  H    0.161533
    25  C   -0.304964
    26  C   -0.298378
    27  C   -0.482557
    28  H    0.145816
    29  H    0.148614
    30  H    0.153619
    31  H    0.155792
    32  H    0.159808
    33  H    0.149927
    34  H    0.162847
 Sum of Mulliken charges =  -0.00000

 Dipole moment (field-independent basis, Debye):
    X=             -2.9228    Y=              3.4908    Z=              2.4868  Tot=              5.1877
 Quadrupole moment (field-independent basis, Debye-Ang):
   XX=           -108.1804   YY=            -95.4060   ZZ=            -94.5662
   XY=             12.9391   XZ=              6.1846   YZ=             -0.7270

 Normal termination of Gaussian 16 at Thu May  6 04:28:52 2021.
