 Gaussian 16, Revision A.03,
 Gaussian 16:  EM64L-G16RevA.03 25-Dec-2016

 -------------
 #p 6-31g* mp2
 -------------

 ------------------------------------------------------
 Input file generated by CHIRIPA (05-May-2021 14:55:24)
 ------------------------------------------------------
 Symbolic Z-matrix:
 Charge =  0 Multiplicity = 1

                         Standard orientation:
 ---------------------------------------------------------------------
 Center     Atomic      Atomic             Coordinates (Angstroms)
 Number     Number       Type             X           Y           Z
 ---------------------------------------------------------------------
      1          6           0       -3.855666    1.888024    0.914065
      2          6           0       -4.494800    0.660646    0.710172
      3          6           0       -3.808483   -0.409166    0.127919
      4          6           0       -2.477898   -0.215774   -0.240092
      5          6           0       -1.813541    0.994922   -0.050004
      6          6           0       -2.519432    2.050957    0.533996
      7          1           0       -4.396416    2.713728    1.367051
      8          1           0       -5.532469    0.531237    1.004353
      9          1           0       -4.278951   -1.370100   -0.041446
     10          1           0       -0.778422    1.093656   -0.353647
     11          1           0       -2.020522    3.003029    0.691134
     12          7           0       -1.740964   -1.341044   -0.857422
     13          8           0       -0.569323   -1.145112   -1.172869
     14          8           0       -2.348949   -2.397655   -1.014150
     15          6           0        3.111675    0.659379   -0.212631
     16          6           0        4.040425    1.856695   -0.008067
     17          6           0        3.596145    3.090567   -0.794179
     18          1           0        3.066534    0.417150   -1.283253
     19          1           0        2.092449    0.939277    0.087756
     20          1           0        5.057862    1.574192   -0.307448
     21          1           0        4.083510    2.095982    1.062213
     22          1           0        2.591017    3.399920   -0.489845
     23          1           0        3.570906    2.875165   -1.867289
     24          1           0        4.274116    3.934587   -0.633423
     25          6           0        3.542671   -0.581770    0.566803
     26          6           0        2.613920   -1.779084    0.362240
     27          6           0        3.058200   -3.012956    1.148352
     28          1           0        4.561896   -0.861666    0.266417
     29          1           0        3.587812   -0.339540    1.637426
     30          1           0        2.570835   -2.018372   -0.708040
     31          1           0        1.596483   -1.496581    0.661621
     32          1           0        3.083440   -2.797555    2.221462
     33          1           0        4.063328   -3.322309    0.844018
     34          1           0        2.380228   -3.856977    0.987596
 ---------------------------------------------------------------------

 SCF Done:  E(RHF) =  -669.535717990     A.U. after   15 cycles
 E2 =    -0.2091940571D+01 EUMP2 =    -0.67162765856036D+03

 The electronic state is 1-A.
 Alpha  occ. eigenvalues --  -20.60891 -20.60872 -15.85908 -11.31258 -11.27824
 Alpha  occ. eigenvalues --  -11.27819 -11.27565 -11.26838 -11.26828 -11.21381
 Alpha  occ. eigenvalues --  -11.21051 -11.20970 -11.20716 -11.20408 -11.20161
 Alpha  occ. eigenvalues --   -1.59946  -1.39501  -1.19430  -1.08830  -1.07869
 Alpha  occ. eigenvalues --   -1.04829  -1.02941  -0.95668  -0.95457  -0.86481
 Alpha  occ. eigenvalues --   -0.86228  -0.82503  -0.79030  -0.77705  -0.77421
 Alpha  occ. eigenvalues --   -0.72127  -0.71262  -0.70538  -0.65084  -0.64839
 Alpha  occ. eigenvalues --   -0.64515  -0.62176  -0.60350  -0.58847  -0.57012
 Alpha  occ. eigenvalues --   -0.55333  -0.54781  -0.53161  -0.52923  -0.52153
 Alpha  occ. eigenvalues --   -0.51863  -0.49441  -0.48906  -0.48898  -0.47341
 Alpha  occ. eigenvalues --   -0.46102  -0.45393  -0.45049  -0.44544  -0.43204
 Alpha  occ. eigenvalues --   -0.37409  -0.36432
 Alpha virt. eigenvalues --    0.04950   0.11206   0.16427   0.20419   0.23048
 Alpha virt. eigenvalues --    0.24736   0.25258   0.27582   0.27635   0.28388
 Alpha virt. eigenvalues --    0.29399   0.31242   0.31890   0.32109   0.32456

 Mulliken charges:
               1
     1  C   -0.170497
     2  C   -0.218709
     3  C   -0.170463
     4  C    0.157311
     5  C   -0.175063
     6  C   -0.219631
     7  H    0.225895
     8  H    0.223704
     9  H    0.275744
    10  H    0.281309
    11  H    0.223895
    12  N    0.488041
    13  O   -0.458919
    14  O   -0.459695
    15  C   -0.296713
    16  C   -0.299415
    17  C   -0.473863
    18  H    0.155403
    19  H    0.142952
    20  H    0.153003
    21  H    0.149618
    22  H    0.147004
    23  H    0.157133
    24  H    0.159513
    25  C   -0.299600
    26  C   -0.297267
    27  C   -0.477028
    28  H    0.147327
    29  H    0.144544
    30  H    0.161415
    31  H    0.158701
    32  H    0.149271
    33  H    0.151253
    34  H    0.163825
 Sum of Mulliken charges =  -0.00000

 Dipole moment (field-independent basis, Debye):
    X=             -2.7459    Y=              3.8406    Z=              2.0334  Tot=              5.1405
 Quadrupole moment (field-independent basis, Debye-Ang):
   XX=            -78.8463   YY=            -96.3986   ZZ=            -96.3756
   XY=             -6.8390   XZ=             -6.3007   YZ=             -0.6306

 Normal termination of Gaussian 16 at Wed May  5 19:07:32 2021.
