 Gaussian 16, Revision A.03,
 Gaussian 16:  EM64L-G16RevA.03 25-Dec-2016

 -------------
 #p 6-31g* mp2
 -------------

 ------------------------------------------------------
 Input file generated by CHIRIPA (05-May-2021 14:53:13)
 ------------------------------------------------------
 Symbolic Z-matrix:
 Charge =  0 Multiplicity = 1

                         Standard orientation:
 ---------------------------------------------------------------------
 Center     Atomic      Atomic             Coordinates (Angstroms)
 Number     Number       Type             X           Y           Z
 ---------------------------------------------------------------------
      1          6           0        3.338037    0.443050   -0.405916
      2          6           0        3.567357    1.945332   -0.236959
      3          6           0        2.504885    2.788560   -0.942587
      4          1           0        3.325652    0.198645   -1.476924
      5          1           0        2.344221    0.184638   -0.014830
      6          1           0        4.561002    2.200605   -0.626986
      7          1           0        3.579389    2.186159    0.833776
      8          1           0        1.509046    2.562761   -0.547719
      9          1           0        2.496237    2.577289   -2.016781
     10          1           0        2.688105    3.859266   -0.808877
     11          6           0        4.392037   -0.413153    0.293891
     12          6           0        4.162717   -1.915434    0.124933
     13          6           0        5.225189   -2.758663    0.830562
     14          1           0        5.385853   -0.154740   -0.097195
     15          1           0        4.404422   -0.168748    1.364899
     16          1           0        4.150685   -2.156262   -0.945802
     17          1           0        3.169072   -2.170708    0.514961
     18          1           0        5.233837   -2.547392    1.904755
     19          1           0        6.221028   -2.532864    0.435693
     20          1           0        5.041969   -3.829369    0.696852
     21          6           0       -1.935227    2.140793    0.790093
     22          6           0       -1.544757    1.540112   -0.411255
     23          6           0       -2.138720    0.347424   -0.834639
     24          6           0       -3.124390   -0.219771   -0.028393
     25          6           0       -3.535032    0.354497    1.173638
     26          6           0       -2.927368    1.547115    1.577317
     27          1           0       -1.468500    3.067274    1.111334
     28          1           0       -0.774508    1.998922   -1.024651
     29          1           0       -1.855499   -0.138959   -1.760185
     30          1           0       -4.305609   -0.126549    1.763742
     31          1           0       -3.232611    2.011373    2.510772
     32          7           0       -3.760443   -1.482379   -0.466181
     33          8           0       -4.626494   -1.962086    0.262156
     34          8           0       -3.380888   -1.968396   -1.529366
 ---------------------------------------------------------------------

 SCF Done:  E(RHF) =  -669.535621478     A.U. after   15 cycles
 E2 =    -0.2091079196D+01 EUMP2 =    -0.67162670067359D+03

 The electronic state is 1-A.
 Alpha  occ. eigenvalues --  -20.60761 -20.60755 -15.85814 -11.31184 -11.27759
 Alpha  occ. eigenvalues --  -11.27746 -11.27498 -11.26771 -11.26730 -11.22289
 Alpha  occ. eigenvalues --  -11.22061 -11.21903 -11.21831 -11.21729 -11.21235
 Alpha  occ. eigenvalues --   -1.59836  -1.39389  -1.19358  -1.08902  -1.08752
 Alpha  occ. eigenvalues --   -1.04760  -1.04029  -0.96502  -0.95585  -0.87529
 Alpha  occ. eigenvalues --   -0.86157  -0.82415  -0.80107  -0.78676  -0.77462
 Alpha  occ. eigenvalues --   -0.72032  -0.71159  -0.70464  -0.65544  -0.65008
 Alpha  occ. eigenvalues --   -0.64775  -0.62143  -0.61401  -0.59879  -0.58087
 Alpha  occ. eigenvalues --   -0.55811  -0.55256  -0.53206  -0.53115  -0.53048
 Alpha  occ. eigenvalues --   -0.52699  -0.50444  -0.48797  -0.48787  -0.48402
 Alpha  occ. eigenvalues --   -0.47122  -0.46227  -0.46121  -0.44794  -0.44262
 Alpha  occ. eigenvalues --   -0.37338  -0.36357
 Alpha virt. eigenvalues --    0.05070   0.11185   0.16542   0.20337   0.22593
 Alpha virt. eigenvalues --    0.23929   0.25615   0.26400   0.27265   0.28071
 Alpha virt. eigenvalues --    0.28728   0.30632   0.31162   0.31324   0.31874

 Mulliken charges:
               1
     1  C   -0.299900
     2  C   -0.298887
     3  C   -0.480877
     4  H    0.150296
     5  H    0.149873
     6  H    0.155176
     7  H    0.152666
     8  H    0.146855
     9  H    0.157271
    10  H    0.162559
    11  C   -0.298580
    12  C   -0.300409
    13  C   -0.476075
    14  H    0.150291
    15  H    0.149874
    16  H    0.152971
    17  H    0.153724
    18  H    0.155170
    19  H    0.155194
    20  H    0.162365
    21  C   -0.172422
    22  C   -0.223091
    23  C   -0.171706
    24  C    0.158581
    25  C   -0.171042
    26  C   -0.218606
    27  H    0.225879
    28  H    0.230486
    29  H    0.276150
    30  H    0.275603
    31  H    0.223382
    32  N    0.488021
    33  O   -0.460504
    34  O   -0.460288
 Sum of Mulliken charges =  -0.00000

 Dipole moment (field-independent basis, Debye):
    X=              2.3715    Y=              4.3975    Z=              1.5517  Tot=              5.2316
 Quadrupole moment (field-independent basis, Debye-Ang):
   XX=           -107.3427   YY=            -97.9429   ZZ=            -91.1883
   XY=            -14.0330   XZ=             -8.4886   YZ=             -0.0575

 Normal termination of Gaussian 16 at Thu May  6 17:01:59 2021.
