 Gaussian 16, Revision A.03,
 Gaussian 16:  EM64L-G16RevA.03 25-Dec-2016

 -------------
 #p 6-31g* mp2
 -------------

 ------------------------------------------------------
 Input file generated by CHIRIPA (05-May-2021 14:55:20)
 ------------------------------------------------------
 Symbolic Z-matrix:
 Charge =  0 Multiplicity = 1

                         Standard orientation:
 ---------------------------------------------------------------------
 Center     Atomic      Atomic             Coordinates (Angstroms)
 Number     Number       Type             X           Y           Z
 ---------------------------------------------------------------------
      1          6           0        3.440420   -1.816062   -1.372956
      2          6           0        3.600535   -0.434273   -1.519735
      3          6           0        3.031243    0.448430   -0.597081
      4          6           0        2.304873   -0.087490    0.465212
      5          6           0        2.127604   -1.459272    0.638647
      6          6           0        2.705761   -2.323257   -0.296132
      7          1           0        3.886103   -2.494497   -2.094405
      8          1           0        4.170564   -0.037549   -2.355033
      9          1           0        3.139542    1.522514   -0.686716
     10          1           0        1.553924   -1.824934    1.481618
     11          1           0        2.579773   -3.395917   -0.179626
     12          7           0        1.697497    0.837081    1.448402
     13          8           0        1.062162    0.339765    2.375583
     14          8           0        1.868271    2.041567    1.273229
     15          6           0       -3.673625   -0.143781   -0.548896
     16          6           0       -3.998875   -1.139200    0.565258
     17          6           0       -5.192086   -2.034065    0.228716
     18          1           0       -4.557142    0.479071   -0.744852
     19          1           0       -3.468734   -0.696255   -1.476358
     20          1           0       -4.201737   -0.585076    1.490681
     21          1           0       -3.114419   -1.759625    0.758716
     22          1           0       -4.995843   -2.612187   -0.680054
     23          1           0       -6.089339   -1.430962    0.056069
     24          1           0       -5.407117   -2.737938    1.038767
     25          6           0       -2.483113    0.757848   -0.227220
     26          6           0       -2.157864    1.753268   -1.341373
     27          6           0       -0.964652    2.648132   -1.004832
     28          1           0       -2.688005    1.310323    0.700244
     29          1           0       -1.599597    0.134997   -0.031263
     30          1           0       -3.042319    2.373694   -1.534832
     31          1           0       -1.955001    1.199144   -2.266796
     32          1           0       -0.067400    2.045030   -0.832184
     33          1           0       -1.160896    3.226255   -0.096061
     34          1           0       -0.749622    3.352006   -1.814882
 ---------------------------------------------------------------------

 SCF Done:  E(RHF) =  -669.535819412     A.U. after   15 cycles
 E2 =    -0.2092411619D+01 EUMP2 =    -0.67162823103131D+03

 The electronic state is 1-A.
 Alpha  occ. eigenvalues --  -20.60882 -20.60877 -15.85894 -11.31281 -11.27840
 Alpha  occ. eigenvalues --  -11.27833 -11.27579 -11.26857 -11.26846 -11.21246
 Alpha  occ. eigenvalues --  -11.21049 -11.20991 -11.20827 -11.20807 -11.20289
 Alpha  occ. eigenvalues --   -1.59933  -1.39489  -1.19447  -1.08841  -1.07964
 Alpha  occ. eigenvalues --   -1.04846  -1.03059  -0.95675  -0.95491  -0.86504
 Alpha  occ. eigenvalues --   -0.86243  -0.82504  -0.79121  -0.77763  -0.77544
 Alpha  occ. eigenvalues --   -0.72125  -0.71259  -0.70547  -0.65098  -0.64846
 Alpha  occ. eigenvalues --   -0.64603  -0.62191  -0.60464  -0.58883  -0.57101
 Alpha  occ. eigenvalues --   -0.55345  -0.54789  -0.53174  -0.52935  -0.52202
 Alpha  occ. eigenvalues --   -0.51908  -0.49458  -0.48890  -0.48872  -0.47443
 Alpha  occ. eigenvalues --   -0.46182  -0.45311  -0.45223  -0.44761  -0.43316
 Alpha  occ. eigenvalues --   -0.37422  -0.36445
 Alpha virt. eigenvalues --    0.04975   0.11122   0.16433   0.21320   0.23185
 Alpha virt. eigenvalues --    0.24586   0.26800   0.27184   0.27703   0.28264
 Alpha virt. eigenvalues --    0.28582   0.30765   0.31618   0.32176   0.32346

 Mulliken charges:
               1
     1  C   -0.170730
     2  C   -0.218452
     3  C   -0.172185
     4  C    0.157334
     5  C   -0.171676
     6  C   -0.218461
     7  H    0.225977
     8  H    0.224016
     9  H    0.276752
    10  H    0.276008
    11  H    0.223824
    12  N    0.488635
    13  O   -0.458655
    14  O   -0.456785
    15  C   -0.298147
    16  C   -0.298557
    17  C   -0.475479
    18  H    0.149035
    19  H    0.145947
    20  H    0.155130
    21  H    0.149967
    22  H    0.152780
    23  H    0.155112
    24  H    0.159325
    25  C   -0.296827
    26  C   -0.300759
    27  C   -0.473613
    28  H    0.156404
    29  H    0.146084
    30  H    0.150197
    31  H    0.146451
    32  H    0.152064
    33  H    0.164852
    34  H    0.154431
 Sum of Mulliken charges =  -0.00000

 Dipole moment (field-independent basis, Debye):
    X=              2.2671    Y=             -3.1859    Z=             -3.3079  Tot=              5.1217
 Quadrupole moment (field-independent basis, Debye-Ang):
   XX=            -85.3398   YY=            -91.3176   ZZ=            -97.2497
   XY=             -7.4348   XZ=             -8.9635   YZ=             -2.9518

 Normal termination of Gaussian 16 at Wed May  5 23:46:47 2021.
