 Gaussian 16, Revision A.03,
 Gaussian 16:  EM64L-G16RevA.03 25-Dec-2016

 -------------
 #p 6-31g* mp2
 -------------

 ------------------------------------------------------
 Input file generated by CHIRIPA (05-May-2021 14:55:25)
 ------------------------------------------------------
 Symbolic Z-matrix:
 Charge =  0 Multiplicity = 1

                         Standard orientation:
 ---------------------------------------------------------------------
 Center     Atomic      Atomic             Coordinates (Angstroms)
 Number     Number       Type             X           Y           Z
 ---------------------------------------------------------------------
      1          6           0        1.341004   -0.691226    1.558632
      2          6           0        1.269960    0.307906    0.582309
      3          6           0        2.364013    0.568037   -0.248311
      4          6           0        3.518613   -0.193487   -0.074330
      5          6           0        3.620217   -1.195696    0.889279
      6          6           0        2.513839   -1.438521    1.708737
      7          1           0        0.486331   -0.886580    2.199542
      8          1           0        0.360409    0.889836    0.463476
      9          1           0        2.336208    1.335577   -1.012200
     10          1           0        4.540471   -1.759248    0.983931
     11          1           0        2.571863   -2.215085    2.466118
     12          7           0        4.683362    0.072741   -0.947762
     13          8           0        5.689110   -0.612130   -0.774386
     14          8           0        4.568489    0.961241   -1.789195
     15          6           0       -4.447972   -0.365242   -0.404918
     16          6           0       -5.955011   -0.623372   -0.418603
     17          6           0       -6.319095   -1.965806   -1.053508
     18          1           0       -4.066944   -0.400774   -1.434724
     19          1           0       -3.948811   -1.177604    0.141252
     20          1           0       -6.451313    0.189956   -0.963395
     21          1           0       -6.332527   -0.587032    0.611337
     22          1           0       -5.850482   -2.790344   -0.506571
     23          1           0       -5.969942   -2.008942   -2.090251
     24          1           0       -7.401192   -2.129896   -1.052847
     25          6           0       -4.068247    0.972895    0.226687
     26          6           0       -2.561208    1.231026    0.240371
     27          6           0       -2.197125    2.573461    0.875277
     28          1           0       -4.567407    1.785257   -0.319484
     29          1           0       -4.449275    1.008428    1.256493
     30          1           0       -2.183691    1.194685   -0.789569
     31          1           0       -2.064906    0.417698    0.785163
     32          1           0       -2.546277    2.616596    1.912019
     33          1           0       -2.665736    3.397998    0.328339
     34          1           0       -1.115027    2.737551    0.874616
 ---------------------------------------------------------------------

 SCF Done:  E(RHF) =  -669.535044976     A.U. after   15 cycles
 E2 =    -0.2091849938D+01 EUMP2 =    -0.67162689491385D+03

 The electronic state is 1-A.
 Alpha  occ. eigenvalues --  -20.60710 -20.60705 -15.85761 -11.31113 -11.27681
 Alpha  occ. eigenvalues --  -11.27660 -11.27415 -11.26703 -11.26606 -11.22823
 Alpha  occ. eigenvalues --  -11.22285 -11.22244 -11.22186 -11.22090 -11.21550
 Alpha  occ. eigenvalues --   -1.59785  -1.39339  -1.19279  -1.09294  -1.08678
 Alpha  occ. eigenvalues --   -1.04690  -1.04397  -0.96828  -0.95518  -0.87833
 Alpha  occ. eigenvalues --   -0.86084  -0.82351  -0.80504  -0.79065  -0.77397
 Alpha  occ. eigenvalues --   -0.71981  -0.71108  -0.70398  -0.65926  -0.64930
 Alpha  occ. eigenvalues --   -0.64753  -0.62149  -0.61761  -0.60159  -0.58420
 Alpha  occ. eigenvalues --   -0.56076  -0.55180  -0.53563  -0.53301  -0.53007
 Alpha  occ. eigenvalues --   -0.52636  -0.50744  -0.48813  -0.48737  -0.48724
 Alpha  occ. eigenvalues --   -0.47525  -0.46596  -0.46495  -0.44748  -0.44641
 Alpha  occ. eigenvalues --   -0.37261  -0.36276
 Alpha virt. eigenvalues --    0.05128   0.11332   0.16606   0.19641   0.22414
 Alpha virt. eigenvalues --    0.23845   0.25108   0.25977   0.26454   0.28045
 Alpha virt. eigenvalues --    0.28924   0.29963   0.30831   0.31489   0.31968

 Mulliken charges:
               1
     1  C   -0.175400
     2  C   -0.228612
     3  C   -0.174578
     4  C    0.159145
     5  C   -0.171500
     6  C   -0.218347
     7  H    0.225128
     8  H    0.243488
     9  H    0.275533
    10  H    0.275257
    11  H    0.222953
    12  N    0.488015
    13  O   -0.460737
    14  O   -0.460584
    15  C   -0.298880
    16  C   -0.300426
    17  C   -0.476131
    18  H    0.151875
    19  H    0.148159
    20  H    0.153581
    21  H    0.152362
    22  H    0.155126
    23  H    0.156590
    24  H    0.162154
    25  C   -0.297922
    26  C   -0.306566
    27  C   -0.481181
    28  H    0.153486
    29  H    0.151243
    30  H    0.154991
    31  H    0.143728
    32  H    0.159405
    33  H    0.162927
    34  H    0.155719
 Sum of Mulliken charges =  -0.00000

 Dipole moment (field-independent basis, Debye):
    X=             -4.3938    Y=             -0.8923    Z=              3.0355  Tot=              5.4145
 Quadrupole moment (field-independent basis, Debye-Ang):
   XX=           -122.0776   YY=            -92.6282   ZZ=            -94.0616
   XY=             -5.3035   XZ=             12.5740   YZ=             -3.3232

 Normal termination of Gaussian 16 at Thu May  6 20:57:44 2021.
