 Gaussian 16, Revision A.03,
 Gaussian 16:  EM64L-G16RevA.03 25-Dec-2016

 -------------
 #p 6-31g* mp2
 -------------

 ------------------------------------------------------
 Input file generated by CHIRIPA (05-May-2021 14:51:14)
 ------------------------------------------------------
 Symbolic Z-matrix:
 Charge =  0 Multiplicity = 1

                         Standard orientation:
 ---------------------------------------------------------------------
 Center     Atomic      Atomic             Coordinates (Angstroms)
 Number     Number       Type             X           Y           Z
 ---------------------------------------------------------------------
      1          6           0       -3.284845   -0.015403   -0.173953
      2          6           0       -4.787830   -0.232910   -0.352034
      3          6           0       -5.487646    0.968287   -0.988571
      4          1           0       -3.120803    0.876962    0.445498
      5          1           0       -2.833538    0.196541   -1.153135
      6          1           0       -5.235946   -0.445747    0.627000
      7          1           0       -4.948316   -1.124971   -0.970975
      8          1           0       -5.067769    1.179266   -1.977405
      9          1           0       -5.357034    1.862348   -0.370351
     10          1           0       -6.561241    0.791294   -1.106583
     11          6           0       -2.571266   -1.207509    0.461197
     12          6           0       -1.068281   -0.990003    0.639278
     13          6           0       -0.368466   -2.191200    1.275814
     14          1           0       -3.022573   -1.419453    1.440378
     15          1           0       -2.735308   -2.099874   -0.158255
     16          1           0       -0.907796   -0.097942    1.258218
     17          1           0       -0.620165   -0.777166   -0.339757
     18          1           0       -0.499077   -3.085261    0.657594
     19          1           0       -0.788342   -2.402178    2.264648
     20          1           0        0.705129   -2.014206    1.393827
     21          6           0        2.816411    1.353179   -0.287895
     22          6           0        1.907324    2.039226    0.732343
     23          6           0        1.693502    3.522733    0.430217
     24          1           0        3.786690    1.867994   -0.309536
     25          1           0        2.380772    1.465074   -1.290438
     26          1           0        2.343844    1.924875    1.732838
     27          1           0        0.939162    1.522599    0.751695
     28          1           0        1.236102    3.653025   -0.555892
     29          1           0        2.648767    4.057588    0.430825
     30          1           0        1.040655    3.993454    1.171887
     31          6           0        3.039701   -0.130266    0.000652
     32          6           0        3.948788   -0.816313   -1.019586
     33          6           0        4.162610   -2.299820   -0.717460
     34          1           0        3.475340   -0.242162    1.003194
     35          1           0        2.069421   -0.645082    0.022293
     36          1           0        4.916950   -0.299686   -1.038938
     37          1           0        3.512267   -0.701963   -2.020081
     38          1           0        3.207345   -2.834675   -0.718068
     39          1           0        4.620009   -2.430113    0.268648
     40          1           0        4.815458   -2.770542   -1.459130
 ---------------------------------------------------------------------

 SCF Done:  E(RHF) =  -470.732626227     A.U. after   11 cycles
 E2 =    -0.1584249156D+01 EUMP2 =    -0.47231687538377D+03

 The electronic state is 1-A.
 Alpha  occ. eigenvalues --  -11.21680 -11.21637 -11.21581 -11.21511 -11.21459
 Alpha  occ. eigenvalues --  -11.21399 -11.21355 -11.21293 -11.21098 -11.21079
 Alpha  occ. eigenvalues --  -11.21058 -11.21029  -1.08500  -1.08382  -1.03585
 Alpha  occ. eigenvalues --   -1.03493  -0.96037  -0.95936  -0.87053  -0.86950
 Alpha  occ. eigenvalues --   -0.79706  -0.79515  -0.78391  -0.78136  -0.65132
 Alpha  occ. eigenvalues --   -0.65038  -0.61041  -0.60838  -0.59422  -0.59310
 Alpha  occ. eigenvalues --   -0.57739  -0.57482  -0.55324  -0.55212  -0.52766
 Alpha  occ. eigenvalues --   -0.52625  -0.52527  -0.52282  -0.49984  -0.49875
 Alpha  occ. eigenvalues --   -0.48151  -0.47740  -0.46781  -0.46495  -0.45991
 Alpha  occ. eigenvalues --   -0.45754  -0.45707  -0.45400  -0.43819  -0.43744
 Alpha virt. eigenvalues --    0.21010   0.23146   0.23680   0.24175   0.26100
 Alpha virt. eigenvalues --    0.26350   0.26997   0.27480   0.27947   0.29729
 Alpha virt. eigenvalues --    0.30363   0.31236   0.31670   0.31811   0.32185

 Mulliken charges:
               1
     1  C   -0.298495
     2  C   -0.299675
     3  C   -0.475746
     4  H    0.149677
     5  H    0.149288
     6  H    0.152084
     7  H    0.152030
     8  H    0.155176
     9  H    0.155318
    10  H    0.160400
    11  C   -0.297671
    12  C   -0.304968
    13  C   -0.481380
    14  H    0.149925
    15  H    0.149832
    16  H    0.156307
    17  H    0.151390
    18  H    0.154853
    19  H    0.155777
    20  H    0.165854
    21  C   -0.296764
    22  C   -0.307627
    23  C   -0.475198
    24  H    0.149401
    25  H    0.148776
    26  H    0.151001
    27  H    0.160609
    28  H    0.155065
    29  H    0.154933
    30  H    0.159645
    31  C   -0.309156
    32  C   -0.298886
    33  C   -0.476612
    34  H    0.148617
    35  H    0.161763
    36  H    0.151907
    37  H    0.151418
    38  H    0.155742
    39  H    0.155105
    40  H    0.160284
 Sum of Mulliken charges =  -0.00000

 Dipole moment (field-independent basis, Debye):
    X=             -0.0422    Y=             -0.0229    Z=              0.0136  Tot=              0.0499
 Quadrupole moment (field-independent basis, Debye-Ang):
   XX=            -84.6665   YY=            -86.4620   ZZ=            -83.7859
   XY=              0.8384   XZ=             -0.0108   YZ=              0.9336

 Normal termination of Gaussian 16 at Thu May  6 02:25:17 2021.
