 Gaussian 16, Revision A.03,
 Gaussian 16:  EM64L-G16RevA.03 25-Dec-2016

 -------------
 #p 6-31g* mp2
 -------------

 ------------------------------------------------------
 Input file generated by CHIRIPA (05-May-2021 14:57:23)
 ------------------------------------------------------
 Symbolic Z-matrix:
 Charge =  0 Multiplicity = 1

                         Standard orientation:
 ---------------------------------------------------------------------
 Center     Atomic      Atomic             Coordinates (Angstroms)
 Number     Number       Type             X           Y           Z
 ---------------------------------------------------------------------
      1          6           0       -6.173391    1.218277   -0.083240
      2          6           0       -6.067200   -0.006612    0.583761
      3          6           0       -4.840337   -0.673371    0.652943
      4          6           0       -3.735098   -0.083846    0.041225
      5          6           0       -3.808912    1.135329   -0.630679
      6          6           0       -5.045896    1.784341   -0.687266
      7          1           0       -7.130380    1.729338   -0.132090
      8          1           0       -6.941153   -0.448587    1.053772
      9          1           0       -4.729902   -1.622710    1.162823
     10          1           0       -2.920060    1.551018   -1.089550
     11          1           0       -5.125407    2.735494   -1.205948
     12          7           0       -2.430916   -0.780319    0.107798
     13          8           0       -1.472103   -0.239931   -0.439282
     14          8           0       -2.392205   -1.853416    0.705797
     15          6           0        6.081649    1.142353    0.637251
     16          6           0        5.911197    0.694312   -0.676798
     17          6           0        4.734277    0.042992   -1.057838
     18          6           0        3.743968   -0.144371   -0.094785
     19          6           0        3.884059    0.290469    1.222250
     20          6           0        5.069321    0.939359    1.580918
     21          1           0        6.999149    1.647370    0.924563
     22          1           0        6.695692    0.850582   -1.411775
     23          1           0        4.576082   -0.314062   -2.068236
     24          1           0        3.084201    0.120185    1.932637
     25          1           0        5.198946    1.286246    2.602148
     26          7           0        2.493600   -0.832608   -0.486332
     27          8           0        1.636192   -0.985429    0.380924
     28          8           0        2.394645   -1.206195   -1.653071
 ---------------------------------------------------------------------

 SCF Done:  E(RHF) =  -868.334064235     A.U. after   15 cycles
 E2 =    -0.2600702646D+01 EUMP2 =    -0.87093476688039D+03

 The electronic state is 1-A.
 Alpha  occ. eigenvalues --  -20.59536 -20.59482 -20.59430 -20.59318 -15.84598
 Alpha  occ. eigenvalues --  -15.84450 -11.30406 -11.30303 -11.27030 -11.27026
 Alpha  occ. eigenvalues --  -11.26939 -11.26918 -11.26857 -11.26771 -11.26148
 Alpha  occ. eigenvalues --  -11.26138 -11.26063 -11.26050  -1.58578  -1.58439
 Alpha  occ. eigenvalues --   -1.38130  -1.37985  -1.18621  -1.18523  -1.07932
 Alpha  occ. eigenvalues --   -1.07826  -1.04091  -1.03999  -0.94696  -0.94567
 Alpha  occ. eigenvalues --   -0.85469  -0.85374  -0.81530  -0.81407  -0.76497
 Alpha  occ. eigenvalues --   -0.76376  -0.70863  -0.70585  -0.69948  -0.69784
 Alpha  occ. eigenvalues --   -0.69726  -0.69630  -0.64263  -0.64164  -0.64097
 Alpha  occ. eigenvalues --   -0.64006  -0.61435  -0.61342  -0.54581  -0.54488
 Alpha  occ. eigenvalues --   -0.52397  -0.52304  -0.52191  -0.52099  -0.47825
 Alpha  occ. eigenvalues --   -0.47538  -0.47410  -0.47050  -0.43492  -0.43218
 Alpha  occ. eigenvalues --   -0.36629  -0.36533  -0.35716  -0.35626
 Alpha virt. eigenvalues --    0.06025   0.06192   0.11931   0.12021   0.17442
 Alpha virt. eigenvalues --    0.17596   0.22007   0.22090   0.27886   0.27966
 Alpha virt. eigenvalues --    0.28937   0.29028   0.31524   0.31604   0.33197

 Mulliken charges:
               1
     1  C   -0.172357
     2  C   -0.218509
     3  C   -0.171817
     4  C    0.159493
     5  C   -0.171798
     6  C   -0.218542
     7  H    0.222613
     8  H    0.220922
     9  H    0.274969
    10  H    0.275293
    11  H    0.220699
    12  N    0.486215
    13  O   -0.447059
    14  O   -0.460063
    15  C   -0.172558
    16  C   -0.218591
    17  C   -0.172045
    18  C    0.159756
    19  C   -0.171745
    20  C   -0.218678
    21  H    0.222166
    22  H    0.220358
    23  H    0.274403
    24  H    0.276457
    25  H    0.220548
    26  N    0.486570
    27  O   -0.442865
    28  O   -0.463835
 Sum of Mulliken charges =  -0.00000

 Dipole moment (field-independent basis, Debye):
    X=             -0.2328    Y=              4.7222    Z=              1.1575  Tot=              4.8676
 Quadrupole moment (field-independent basis, Debye-Ang):
   XX=            -40.6702   YY=           -104.5226   ZZ=           -100.3159
   XY=              1.2630   XZ=              2.3932   YZ=             -2.0866

 Normal termination of Gaussian 16 at Thu May  6 19:36:12 2021.
