 Gaussian 16, Revision A.03,
 Gaussian 16:  EM64L-G16RevA.03 25-Dec-2016

 -------------
 #p 6-31g* mp2
 -------------

 ------------------------------------------------------
 Input file generated by CHIRIPA (05-May-2021 14:51:14)
 ------------------------------------------------------
 Symbolic Z-matrix:
 Charge =  0 Multiplicity = 1

                         Standard orientation:
 ---------------------------------------------------------------------
 Center     Atomic      Atomic             Coordinates (Angstroms)
 Number     Number       Type             X           Y           Z
 ---------------------------------------------------------------------
      1          6           0        3.152438    0.120402   -0.187439
      2          6           0        2.830931    1.614605   -0.231876
      3          6           0        3.978833    2.449638   -0.800062
      4          1           0        4.055960   -0.035924    0.417669
      5          1           0        3.392005   -0.226341   -1.202216
      6          1           0        2.590693    1.958128    0.782468
      7          1           0        1.927960    1.767372   -0.836790
      8          1           0        4.215232    2.134917   -1.821663
      9          1           0        4.881730    2.326757   -0.193204
     10          1           0        3.727631    3.514647   -0.822713
     11          6           0        2.014553   -0.727556    0.378170
     12          6           0        2.336060   -2.221759    0.422607
     13          6           0        1.188159   -3.056792    0.990793
     14          1           0        1.774986   -0.380813    1.392947
     15          1           0        1.111031   -0.571230   -0.226938
     16          1           0        3.239031   -2.374527    1.027521
     17          1           0        2.576298   -2.565282   -0.591737
     18          1           0        0.285261   -2.933911    0.383935
     19          1           0        0.951759   -2.742072    2.012393
     20          1           0        1.439360   -4.121802    1.013444
     21          6           0       -2.934490    0.981647   -0.073986
     22          6           0       -2.093441    2.079496    0.578202
     23          6           0       -2.809166    3.430156    0.613526
     24          1           0       -3.195121    1.286969   -1.096627
     25          1           0       -3.881996    0.881363    0.473345
     26          1           0       -1.147216    2.176728    0.030644
     27          1           0       -1.834620    1.771440    1.599343
     28          1           0       -3.744719    3.355752    1.177268
     29          1           0       -3.053409    3.763343   -0.400344
     30          1           0       -2.190011    4.200420    1.083845
     31          6           0       -2.232501   -0.374492   -0.116746
     32          6           0       -3.073551   -1.472342   -0.768932
     33          6           0       -2.357825   -2.823002   -0.804256
     34          1           0       -1.284995   -0.274209   -0.664075
     35          1           0       -1.971869   -0.679814    0.905896
     36          1           0       -3.332372   -1.164286   -1.790074
     37          1           0       -4.019776   -1.569574   -0.221374
     38          1           0       -2.113581   -3.156189    0.209613
     39          1           0       -1.422272   -2.748599   -1.367999
     40          1           0       -2.976980   -3.593266   -1.274575
 ---------------------------------------------------------------------

 SCF Done:  E(RHF) =  -470.732120028     A.U. after   11 cycles
 E2 =    -0.1584839081D+01 EUMP2 =    -0.47231695910923D+03

 The electronic state is 1-A.
 Alpha  occ. eigenvalues --  -11.21642 -11.21598 -11.21589 -11.21506 -11.21417
 Alpha  occ. eigenvalues --  -11.21358 -11.21351 -11.21267 -11.21120 -11.21067
 Alpha  occ. eigenvalues --  -11.21066 -11.20850  -1.08468  -1.08361  -1.03577
 Alpha  occ. eigenvalues --   -1.03449  -0.96048  -0.95879  -0.87090  -0.86874
 Alpha  occ. eigenvalues --   -0.79729  -0.79446  -0.78439  -0.78012  -0.65163
 Alpha  occ. eigenvalues --   -0.64940  -0.60980  -0.60873  -0.59422  -0.59235
 Alpha  occ. eigenvalues --   -0.57813  -0.57396  -0.55329  -0.55186  -0.52721
 Alpha  occ. eigenvalues --   -0.52685  -0.52584  -0.52095  -0.49976  -0.49812
 Alpha  occ. eigenvalues --   -0.48246  -0.47604  -0.46692  -0.46549  -0.46322
 Alpha  occ. eigenvalues --   -0.45779  -0.45612  -0.44979  -0.43803  -0.43717
 Alpha virt. eigenvalues --    0.20785   0.22722   0.23463   0.24500   0.25181
 Alpha virt. eigenvalues --    0.26283   0.26808   0.27545   0.28974   0.29789
 Alpha virt. eigenvalues --    0.30838   0.31373   0.31487   0.31937   0.32144

 Mulliken charges:
               1
     1  C   -0.297910
     2  C   -0.300464
     3  C   -0.475676
     4  H    0.149681
     5  H    0.148924
     6  H    0.152517
     7  H    0.151566
     8  H    0.155035
     9  H    0.155355
    10  H    0.160163
    11  C   -0.304266
    12  C   -0.298892
    13  C   -0.485278
    14  H    0.149378
    15  H    0.155718
    16  H    0.151248
    17  H    0.150706
    18  H    0.167831
    19  H    0.153177
    20  H    0.159034
    21  C   -0.297927
    22  C   -0.300961
    23  C   -0.475708
    24  H    0.149279
    25  H    0.149604
    26  H    0.153547
    27  H    0.152109
    28  H    0.155110
    29  H    0.154998
    30  H    0.160367
    31  C   -0.304042
    32  C   -0.299033
    33  C   -0.480529
    34  H    0.153741
    35  H    0.151322
    36  H    0.151694
    37  H    0.152232
    38  H    0.159631
    39  H    0.155339
    40  H    0.161378
 Sum of Mulliken charges =  -0.00000

 Dipole moment (field-independent basis, Debye):
    X=             -0.0711    Y=             -0.0048    Z=             -0.0035  Tot=              0.0713
 Quadrupole moment (field-independent basis, Debye-Ang):
   XX=            -85.2699   YY=            -86.3927   ZZ=            -83.2466
   XY=              0.1848   XZ=              0.2756   YZ=              0.1454

 Normal termination of Gaussian 16 at Wed May  5 15:24:19 2021.
