 Gaussian 16, Revision A.03,
 Gaussian 16:  EM64L-G16RevA.03 25-Dec-2016

 -------------
 #p 6-31g* mp2
 -------------

 ------------------------------------------------------
 Input file generated by CHIRIPA (05-May-2021 14:57:22)
 ------------------------------------------------------
 Symbolic Z-matrix:
 Charge =  0 Multiplicity = 1

                         Standard orientation:
 ---------------------------------------------------------------------
 Center     Atomic      Atomic             Coordinates (Angstroms)
 Number     Number       Type             X           Y           Z
 ---------------------------------------------------------------------
      1          6           0        1.242987   -1.352953    1.061713
      2          6           0        1.900137   -2.009529    0.015968
      3          6           0        3.063486   -1.470337   -0.541202
      4          6           0        3.544081   -0.267490   -0.025956
      5          6           0        2.911968    0.410474    1.015239
      6          6           0        1.750106   -0.147173    1.557138
      7          1           0        0.339847   -1.778978    1.488605
      8          1           0        1.508582   -2.946092   -0.370787
      9          1           0        3.592190   -1.957634   -1.351407
     10          1           0        3.326322    1.342627    1.379684
     11          1           0        1.241847    0.364934    2.369212
     12          7           0        4.774880    0.313097   -0.607724
     13          8           0        5.177995    1.374038   -0.135984
     14          8           0        5.313159   -0.303774   -1.524437
     15          6           0       -1.738521    2.262185    0.367131
     16          6           0       -1.821306    1.194824    1.267357
     17          6           0       -2.705757    0.137256    1.035313
     18          6           0       -3.496175    0.179589   -0.112179
     19          6           0       -3.436668    1.228974   -1.027898
     20          6           0       -2.545044    2.275829   -0.775609
     21          1           0       -1.048672    3.079568    0.555252
     22          1           0       -1.196164    1.181570    2.155652
     23          1           0       -2.790117   -0.701459    1.715649
     24          1           0       -4.072647    1.214179   -1.904670
     25          1           0       -2.482878    3.103456   -1.476476
     26          7           0       -4.436300   -0.934339   -0.368550
     27          8           0       -5.121846   -0.873399   -1.386858
     28          8           0       -4.469823   -1.847286    0.453668
 ---------------------------------------------------------------------

 SCF Done:  E(RHF) =  -868.336724953     A.U. after   16 cycles
 E2 =    -0.2600751661D+01 EUMP2 =    -0.87093747661400D+03

 The electronic state is 1-A.
 Alpha  occ. eigenvalues --  -20.61416 -20.61395 -20.61171 -20.61158 -15.86465
 Alpha  occ. eigenvalues --  -15.86225 -11.31887 -11.31640 -11.28540 -11.28400
 Alpha  occ. eigenvalues --  -11.28284 -11.28182 -11.28179 -11.27990 -11.27591
 Alpha  occ. eigenvalues --  -11.27402 -11.27366 -11.27168  -1.60483  -1.60243
 Alpha  occ. eigenvalues --   -1.40036  -1.39795  -1.20062  -1.19829  -1.09438
 Alpha  occ. eigenvalues --   -1.09212  -1.05495  -1.05249  -0.96264  -0.96036
 Alpha  occ. eigenvalues --   -0.86909  -0.86629  -0.83109  -0.82876  -0.78173
 Alpha  occ. eigenvalues --   -0.77905  -0.72680  -0.72442  -0.71810  -0.71569
 Alpha  occ. eigenvalues --   -0.71160  -0.70928  -0.65720  -0.65695  -0.65476
 Alpha  occ. eigenvalues --   -0.65149  -0.62901  -0.62537  -0.55950  -0.55754
 Alpha  occ. eigenvalues --   -0.53887  -0.53667  -0.53466  -0.53262  -0.49446
 Alpha  occ. eigenvalues --   -0.49432  -0.49204  -0.49192  -0.45430  -0.45190
 Alpha  occ. eigenvalues --   -0.38137  -0.37816  -0.37060  -0.36710
 Alpha virt. eigenvalues --    0.04310   0.04709   0.10168   0.11128   0.15762
 Alpha virt. eigenvalues --    0.16174   0.18457   0.22137   0.24829   0.25888
 Alpha virt. eigenvalues --    0.28131   0.28966   0.29707   0.31195   0.32295

 Mulliken charges:
               1
     1  C   -0.166993
     2  C   -0.218790
     3  C   -0.169966
     4  C    0.158696
     5  C   -0.172538
     6  C   -0.218459
     7  H    0.225167
     8  H    0.228082
     9  H    0.277695
    10  H    0.274152
    11  H    0.214024
    12  N    0.487998
    13  O   -0.461234
    14  O   -0.458448
    15  C   -0.169056
    16  C   -0.215313
    17  C   -0.175631
    18  C    0.159433
    19  C   -0.169882
    20  C   -0.217654
    21  H    0.227945
    22  H    0.215508
    23  H    0.271472
    24  H    0.278051
    25  H    0.227367
    26  N    0.487943
    27  O   -0.457386
    28  O   -0.462181
 Sum of Mulliken charges =  -0.00000

 Dipole moment (field-independent basis, Debye):
    X=             -1.0699    Y=              1.8817    Z=              2.6808  Tot=              3.4456
 Quadrupole moment (field-independent basis, Debye-Ang):
   XX=           -159.3181   YY=            -98.6829   ZZ=           -100.4865
   XY=            -20.8319   XZ=              5.2682   YZ=             -0.2326

 Normal termination of Gaussian 16 at Thu May  6 22:41:30 2021.
