 Gaussian 16, Revision A.03,
 Gaussian 16:  EM64L-G16RevA.03 25-Dec-2016

 -------------
 #p 6-31g* mp2
 -------------

 ------------------------------------------------------
 Input file generated by CHIRIPA (05-May-2021 14:57:26)
 ------------------------------------------------------
 Symbolic Z-matrix:
 Charge =  0 Multiplicity = 1

                         Standard orientation:
 ---------------------------------------------------------------------
 Center     Atomic      Atomic             Coordinates (Angstroms)
 Number     Number       Type             X           Y           Z
 ---------------------------------------------------------------------
      1          6           0       -1.871149    2.341476    0.314784
      2          6           0       -2.075146    1.749120   -0.935824
      3          6           0       -2.730099    0.518390   -1.040168
      4          6           0       -3.169912   -0.094925    0.131881
      5          6           0       -2.981701    0.469897    1.392374
      6          6           0       -2.324279    1.701103    1.472850
      7          1           0       -1.361407    3.297722    0.386571
      8          1           0       -1.724316    2.244158   -1.836880
      9          1           0       -2.901293    0.037434   -1.995570
     10          1           0       -3.342779   -0.047657    2.272816
     11          1           0       -2.167243    2.158789    2.445428
     12          7           0       -3.864589   -1.398096    0.034050
     13          8           0       -4.242479   -1.918100    1.081634
     14          8           0       -4.018032   -1.874841   -1.088361
     15          6           0        5.317919   -0.939984    0.609898
     16          6           0        4.318724   -1.857674    0.269345
     17          6           0        3.061427   -1.414601   -0.151889
     18          6           0        2.836691   -0.040566   -0.221275
     19          6           0        3.811768    0.898549    0.111257
     20          6           0        5.061704    0.432778    0.529908
     21          1           0        6.291758   -1.292989    0.936119
     22          1           0        4.514880   -2.924363    0.330512
     23          1           0        2.269844   -2.103164   -0.421507
     24          1           0        3.586469    1.955722    0.040235
     25          1           0        5.835800    1.147763    0.793760
     26          7           0        1.509544    0.440510   -0.665850
     27          8           0        1.336678    1.656233   -0.718498
     28          8           0        0.667322   -0.407255   -0.953241
 ---------------------------------------------------------------------

 SCF Done:  E(RHF) =  -868.338798273     A.U. after   16 cycles
 E2 =    -0.2601278581D+01 EUMP2 =    -0.87094007685353D+03

 The electronic state is 1-A.
 Alpha  occ. eigenvalues --  -20.61461 -20.61406 -20.59536 -20.59516 -15.86456
 Alpha  occ. eigenvalues --  -15.84569 -11.31631 -11.29550 -11.28205 -11.28137
 Alpha  occ. eigenvalues --  -11.27878 -11.27162 -11.27115 -11.26197 -11.26011
 Alpha  occ. eigenvalues --  -11.25747 -11.25165 -11.24891  -1.60490  -1.58610
 Alpha  occ. eigenvalues --   -1.40054  -1.38176  -1.19784  -1.17692  -1.09217
 Alpha  occ. eigenvalues --   -1.07157  -1.05155  -1.03061  -0.96085  -0.94061
 Alpha  occ. eigenvalues --   -0.86563  -0.84489  -0.82927  -0.80929  -0.77993
 Alpha  occ. eigenvalues --   -0.76023  -0.72707  -0.71796  -0.70888  -0.70810
 Alpha  occ. eigenvalues --   -0.69919  -0.68833  -0.65440  -0.65157  -0.63368
 Alpha  occ. eigenvalues --   -0.63109  -0.62502  -0.60463  -0.55672  -0.53588
 Alpha  occ. eigenvalues --   -0.53498  -0.53243  -0.51608  -0.51198  -0.49457
 Alpha  occ. eigenvalues --   -0.49208  -0.47575  -0.47527  -0.45509  -0.43669
 Alpha  occ. eigenvalues --   -0.37755  -0.36751  -0.35572  -0.34524
 Alpha virt. eigenvalues --    0.04511   0.06533   0.10907   0.13054   0.16042
 Alpha virt. eigenvalues --    0.18140   0.21077   0.22956   0.26999   0.27954
 Alpha virt. eigenvalues --    0.28833   0.29812   0.30657   0.32173   0.32463

 Mulliken charges:
               1
     1  C   -0.161877
     2  C   -0.197215
     3  C   -0.159290
     4  C    0.156810
     5  C   -0.174442
     6  C   -0.223849
     7  H    0.222498
     8  H    0.222734
     9  H    0.270884
    10  H    0.268086
    11  H    0.214655
    12  N    0.488229
    13  O   -0.467496
    14  O   -0.463657
    15  C   -0.170124
    16  C   -0.218589
    17  C   -0.170469
    18  C    0.158597
    19  C   -0.171229
    20  C   -0.218579
    21  H    0.227259
    22  H    0.226139
    23  H    0.278792
    24  H    0.273048
    25  H    0.223975
    26  N    0.489663
    27  O   -0.469443
    28  O   -0.455112
 Sum of Mulliken charges =  -0.00000

 Dipole moment (field-independent basis, Debye):
    X=              7.6109    Y=              2.8875    Z=              1.6339  Tot=              8.3026
 Quadrupole moment (field-independent basis, Debye-Ang):
   XX=            -95.6748   YY=           -101.8998   ZZ=           -101.6390
   XY=            -18.8843   XZ=              3.1677   YZ=              1.1026

 Normal termination of Gaussian 16 at Thu May  6 11:28:22 2021.
