 Gaussian 16, Revision A.03,
 Gaussian 16:  EM64L-G16RevA.03 25-Dec-2016

 -------------
 #p 6-31g* mp2
 -------------

 ------------------------------------------------------
 Input file generated by CHIRIPA (05-May-2021 14:51:13)
 ------------------------------------------------------
 Symbolic Z-matrix:
 Charge =  0 Multiplicity = 1

                         Standard orientation:
 ---------------------------------------------------------------------
 Center     Atomic      Atomic             Coordinates (Angstroms)
 Number     Number       Type             X           Y           Z
 ---------------------------------------------------------------------
      1          6           0        2.699545   -0.327401   -0.321003
      2          6           0        2.945954   -1.502565    0.625705
      3          6           0        2.739883   -2.858845   -0.049450
      4          1           0        1.676008   -0.390665   -0.715102
      5          1           0        3.373026   -0.414083   -1.184893
      6          1           0        2.273173   -1.412941    1.488230
      7          1           0        3.968960   -1.436390    1.017745
      8          1           0        3.421192   -2.973910   -0.898673
      9          1           0        1.715770   -2.950329   -0.425514
     10          1           0        2.921222   -3.684840    0.645321
     11          6           0        2.901612    1.035231    0.339400
     12          6           0        2.655203    2.210395   -0.607308
     13          6           0        2.861274    3.566675    0.067847
     14          1           0        2.228131    1.121914    1.203289
     15          1           0        3.925149    1.098495    0.733499
     16          1           0        1.632196    2.144220   -0.999348
     17          1           0        3.327983    2.120772   -1.469833
     18          1           0        3.885387    3.658159    0.443910
     19          1           0        2.179965    3.681741    0.917069
     20          1           0        2.679935    4.392671   -0.626925
     21          6           0       -2.776174    0.408241    0.035001
     22          6           0       -4.159689    1.058864    0.058654
     23          6           0       -4.094344    2.583880    0.147259
     24          1           0       -2.224747    0.701141    0.938928
     25          1           0       -2.208010    0.802068   -0.819098
     26          1           0       -4.725572    0.662898    0.911650
     27          1           0       -4.707957    0.764228   -0.845341
     28          1           0       -3.552830    2.996724   -0.710017
     29          1           0       -3.570545    2.894819    1.056958
     30          1           0       -5.094382    3.028335    0.162865
     31          6           0       -2.824983   -1.116072   -0.053398
     32          6           0       -1.441467   -1.766695   -0.077051
     33          6           0       -1.506813   -3.291711   -0.165656
     34          1           0       -3.393147   -1.509898    0.800702
     35          1           0       -3.376409   -1.408972   -0.957325
     36          1           0       -0.893200   -1.472057    0.826945
     37          1           0       -0.875585   -1.370729   -0.930047
     38          1           0       -2.030613   -3.602650   -1.075354
     39          1           0       -2.048327   -3.704554    0.691621
     40          1           0       -0.506775   -3.736164   -0.181262
 ---------------------------------------------------------------------

 SCF Done:  E(RHF) =  -470.733118088     A.U. after   11 cycles
 E2 =    -0.1583682936D+01 EUMP2 =    -0.47231680102436D+03

 The electronic state is 1-A.
 Alpha  occ. eigenvalues --  -11.21699 -11.21654 -11.21571 -11.21567 -11.21480
 Alpha  occ. eigenvalues --  -11.21421 -11.21355 -11.21288 -11.21112 -11.21108
 Alpha  occ. eigenvalues --  -11.21045 -11.21027  -1.08508  -1.08383  -1.03613
 Alpha  occ. eigenvalues --   -1.03481  -0.96058  -0.95930  -0.87082  -0.86940
 Alpha  occ. eigenvalues --   -0.79665  -0.79562  -0.78344  -0.78178  -0.65133
 Alpha  occ. eigenvalues --   -0.65027  -0.60992  -0.60967  -0.59411  -0.59292
 Alpha  occ. eigenvalues --   -0.57726  -0.57499  -0.55322  -0.55231  -0.52786
 Alpha  occ. eigenvalues --   -0.52631  -0.52541  -0.52265  -0.49979  -0.49877
 Alpha  occ. eigenvalues --   -0.47954  -0.47870  -0.46762  -0.46535  -0.46009
 Alpha  occ. eigenvalues --   -0.45817  -0.45696  -0.45471  -0.43847  -0.43743
 Alpha virt. eigenvalues --    0.20304   0.23032   0.23486   0.24912   0.25330
 Alpha virt. eigenvalues --    0.26040   0.26703   0.27746   0.28869   0.29445
 Alpha virt. eigenvalues --    0.30639   0.30694   0.31227   0.31787   0.32117

 Mulliken charges:
               1
     1  C   -0.302873
     2  C   -0.298776
     3  C   -0.483266
     4  H    0.154774
     5  H    0.148929
     6  H    0.151810
     7  H    0.151725
     8  H    0.155102
     9  H    0.162657
    10  H    0.159791
    11  C   -0.297908
    12  C   -0.299662
    13  C   -0.475635
    14  H    0.149287
    15  H    0.149391
    16  H    0.151991
    17  H    0.151696
    18  H    0.155055
    19  H    0.155223
    20  H    0.160122
    21  C   -0.298385
    22  C   -0.299692
    23  C   -0.475771
    24  H    0.149357
    25  H    0.149165
    26  H    0.152132
    27  H    0.152171
    28  H    0.155288
    29  H    0.155176
    30  H    0.160508
    31  C   -0.298250
    32  C   -0.303597
    33  C   -0.481347
    34  H    0.149992
    35  H    0.150090
    36  H    0.152884
    37  H    0.154057
    38  H    0.155518
    39  H    0.155704
    40  H    0.165567
 Sum of Mulliken charges =  -0.00000

 Dipole moment (field-independent basis, Debye):
    X=             -0.0469    Y=             -0.0112    Z=             -0.0053  Tot=              0.0485
 Quadrupole moment (field-independent basis, Debye-Ang):
   XX=            -83.8782   YY=            -87.1063   ZZ=            -83.7789
   XY=              0.0299   XZ=             -0.3206   YZ=             -0.4773

 Normal termination of Gaussian 16 at Wed May  5 16:50:27 2021.
