 Gaussian 16, Revision A.03,
 Gaussian 16:  EM64L-G16RevA.03 25-Dec-2016

 -------------
 #p 6-31g* mp2
 -------------

 ------------------------------------------------------
 Input file generated by CHIRIPA (05-May-2021 14:51:12)
 ------------------------------------------------------
 Symbolic Z-matrix:
 Charge =  0 Multiplicity = 1

                         Standard orientation:
 ---------------------------------------------------------------------
 Center     Atomic      Atomic             Coordinates (Angstroms)
 Number     Number       Type             X           Y           Z
 ---------------------------------------------------------------------
      1          6           0       -2.408547   -0.126345   -0.379403
      2          6           0       -3.596926   -0.910474   -0.936969
      3          6           0       -3.228081   -2.340389   -1.333314
      4          1           0       -1.606755   -0.105023   -1.130150
      5          1           0       -2.005037   -0.657369    0.493860
      6          1           0       -3.998938   -0.377411   -1.808087
      7          1           0       -4.396055   -0.929768   -0.184881
      8          1           0       -2.847146   -2.893677   -0.468813
      9          1           0       -2.447772   -2.338181   -2.101242
     10          1           0       -4.092263   -2.882819   -1.729318
     11          6           0       -2.761483    1.304948    0.021303
     12          6           0       -1.573103    2.089077    0.578869
     13          6           0       -1.941948    3.518993    0.975214
     14          1           0       -3.164993    1.835973   -0.851960
     15          1           0       -3.563274    1.283627    0.772050
     16          1           0       -0.773974    2.108371   -0.173220
     17          1           0       -1.171092    1.556014    1.449987
     18          1           0       -2.722257    3.516785    1.743142
     19          1           0       -2.322884    4.072280    0.110712
     20          1           0       -1.077766    4.061423    1.371218
     21          6           0        1.905542   -0.745359    0.491131
     22          6           0        1.790590   -2.179952    1.007575
     23          6           0        0.425548   -2.476907    1.629084
     24          1           0        1.718673   -0.048176    1.319359
     25          1           0        1.116398   -0.566325   -0.252235
     26          1           0        2.580575   -2.356660    1.748732
     27          1           0        1.977942   -2.873800    0.178063
     28          1           0       -0.372677   -2.328186    0.894700
     29          1           0        0.233380   -1.808107    2.474293
     30          1           0        0.365213   -3.507810    1.991657
     31          6           0        3.264488   -0.433244   -0.133031
     32          6           0        3.379440    1.001348   -0.649474
     33          6           0        4.744481    1.298304   -1.270984
     34          1           0        4.053632   -0.612278    0.610335
     35          1           0        3.451356   -1.130427   -0.961259
     36          1           0        3.192087    1.695197    0.180037
     37          1           0        2.589454    1.178056   -1.390631
     38          1           0        4.936650    0.629504   -2.116193
     39          1           0        5.542707    1.149582   -0.536600
     40          1           0        4.804816    2.329206   -1.633557
 ---------------------------------------------------------------------

 SCF Done:  E(RHF) =  -470.733014464     A.U. after   11 cycles
 E2 =    -0.1584155901D+01 EUMP2 =    -0.47231717036568D+03

 The electronic state is 1-A.
 Alpha  occ. eigenvalues --  -11.21610 -11.21596 -11.21568 -11.21560 -11.21384
 Alpha  occ. eigenvalues --  -11.21365 -11.21323 -11.21293 -11.21106 -11.21067
 Alpha  occ. eigenvalues --  -11.21049 -11.21023  -1.08446  -1.08378  -1.03536
 Alpha  occ. eigenvalues --   -1.03500  -0.95982  -0.95956  -0.87007  -0.86968
 Alpha  occ. eigenvalues --   -0.79637  -0.79539  -0.78415  -0.78027  -0.65064
 Alpha  occ. eigenvalues --   -0.65031  -0.60985  -0.60855  -0.59366  -0.59313
 Alpha  occ. eigenvalues --   -0.57621  -0.57539  -0.55296  -0.55224  -0.52680
 Alpha  occ. eigenvalues --   -0.52649  -0.52471  -0.52340  -0.49958  -0.49891
 Alpha  occ. eigenvalues --   -0.48052  -0.47825  -0.46740  -0.46538  -0.46170
 Alpha  occ. eigenvalues --   -0.45759  -0.45577  -0.45145  -0.43777  -0.43755
 Alpha virt. eigenvalues --    0.21063   0.22791   0.23477   0.24113   0.24709
 Alpha virt. eigenvalues --    0.26051   0.26943   0.27483   0.28871   0.30169
 Alpha virt. eigenvalues --    0.30423   0.31353   0.31716   0.31893   0.32190

 Mulliken charges:
               1
     1  C   -0.305853
     2  C   -0.299339
     3  C   -0.478246
     4  H    0.149419
     5  H    0.157679
     6  H    0.151821
     7  H    0.152101
     8  H    0.157279
     9  H    0.154581
    10  H    0.160733
    11  C   -0.297931
    12  C   -0.300563
    13  C   -0.475789
    14  H    0.149186
    15  H    0.149533
    16  H    0.153049
    17  H    0.152766
    18  H    0.154988
    19  H    0.155035
    20  H    0.160115
    21  C   -0.301989
    22  C   -0.299170
    23  C   -0.483205
    24  H    0.150089
    25  H    0.153949
    26  H    0.151589
    27  H    0.151791
    28  H    0.163590
    29  H    0.153796
    30  H    0.159858
    31  C   -0.298391
    32  C   -0.299546
    33  C   -0.475675
    34  H    0.149410
    35  H    0.149387
    36  H    0.152212
    37  H    0.151230
    38  H    0.155112
    39  H    0.155257
    40  H    0.160142
 Sum of Mulliken charges =  -0.00000

 Dipole moment (field-independent basis, Debye):
    X=             -0.0204    Y=             -0.0028    Z=              0.0023  Tot=              0.0207
 Quadrupole moment (field-independent basis, Debye-Ang):
   XX=            -85.5356   YY=            -85.9190   ZZ=            -83.4443
   XY=              0.0228   XZ=              0.5488   YZ=             -0.1626

 Normal termination of Gaussian 16 at Thu May  6 05:30:57 2021.
