 Gaussian 16, Revision A.03,
 Gaussian 16:  EM64L-G16RevA.03 25-Dec-2016

 -------------
 #p 6-31g* mp2
 -------------

 ------------------------------------------------------
 Input file generated by CHIRIPA (05-May-2021 14:51:08)
 ------------------------------------------------------
 Symbolic Z-matrix:
 Charge =  0 Multiplicity = 1

                         Standard orientation:
 ---------------------------------------------------------------------
 Center     Atomic      Atomic             Coordinates (Angstroms)
 Number     Number       Type             X           Y           Z
 ---------------------------------------------------------------------
      1          6           0       -2.593524   -0.114063    0.234762
      2          6           0       -1.867205   -1.249499    0.956727
      3          6           0       -0.354228   -1.037911    1.019388
      4          1           0       -2.192527   -0.019903   -0.783707
      5          1           0       -2.375812    0.834265    0.745320
      6          1           0       -2.087337   -2.195592    0.445782
      7          1           0       -2.270110   -1.341092    1.973532
      8          1           0       -0.116717   -0.108912    1.547733
      9          1           0        0.067095   -0.968267    0.011302
     10          1           0        0.145081   -1.861254    1.539635
     11          6           0       -4.106749   -0.311218    0.163999
     12          6           0       -4.833068    0.824217   -0.557965
     13          6           0       -6.346045    0.612630   -0.620626
     14          1           0       -4.324461   -1.259547   -0.346558
     15          1           0       -4.507746   -0.405378    1.182469
     16          1           0       -4.430163    0.915810   -1.574771
     17          1           0       -4.612936    1.770311   -0.047020
     18          1           0       -6.767368    0.542985    0.387460
     19          1           0       -6.583556   -0.316370   -1.148972
     20          1           0       -6.845354    1.435973   -1.140873
     21          6           0        3.515386   -0.488142    0.055624
     22          6           0        3.135285   -1.596258   -0.927020
     23          6           0        3.472065   -2.992473   -0.402660
     24          1           0        4.590830   -0.550905    0.271095
     25          1           0        2.995248   -0.658305    1.008460
     26          1           0        3.654910   -1.423285   -1.878170
     27          1           0        2.060658   -1.530730   -1.140324
     28          1           0        2.942248   -3.190065    0.534811
     29          1           0        4.545559   -3.082009   -0.207227
     30          1           0        3.192024   -3.769394   -1.120876
     31          6           0        3.184887    0.913424   -0.454385
     32          6           0        3.564989    2.021539    0.528258
     33          6           0        3.228208    3.417755    0.003900
     34          1           0        3.705025    1.083587   -1.407221
     35          1           0        2.109443    0.976187   -0.669855
     36          1           0        4.639616    1.956011    0.741563
     37          1           0        3.045364    1.848567    1.479408
     38          1           0        2.154714    3.507290   -0.191535
     39          1           0        3.758024    3.615346   -0.933573
     40          1           0        3.508249    4.194676    0.722114
 ---------------------------------------------------------------------

 SCF Done:  E(RHF) =  -470.733020305     A.U. after   11 cycles
 E2 =    -0.1583491865D+01 EUMP2 =    -0.47231651217058D+03

 The electronic state is 1-A.
 Alpha  occ. eigenvalues --  -11.21678 -11.21637 -11.21545 -11.21506 -11.21465
 Alpha  occ. eigenvalues --  -11.21402 -11.21309 -11.21244 -11.21174 -11.21098
 Alpha  occ. eigenvalues --  -11.21030 -11.21014  -1.08494  -1.08346  -1.03600
 Alpha  occ. eigenvalues --   -1.03457  -0.96051  -0.95909  -0.87079  -0.86920
 Alpha  occ. eigenvalues --   -0.79667  -0.79525  -0.78305  -0.78163  -0.65157
 Alpha  occ. eigenvalues --   -0.64962  -0.61103  -0.60773  -0.59414  -0.59277
 Alpha  occ. eigenvalues --   -0.57657  -0.57524  -0.55352  -0.55186  -0.52738
 Alpha  occ. eigenvalues --   -0.52624  -0.52462  -0.52340  -0.50073  -0.49794
 Alpha  occ. eigenvalues --   -0.48004  -0.47836  -0.46798  -0.46470  -0.45919
 Alpha  occ. eigenvalues --   -0.45783  -0.45652  -0.45467  -0.43838  -0.43710
 Alpha virt. eigenvalues --    0.20547   0.22967   0.23891   0.24676   0.25572
 Alpha virt. eigenvalues --    0.26103   0.26964   0.27668   0.27901   0.29691
 Alpha virt. eigenvalues --    0.30218   0.30683   0.31771   0.32150   0.32412

 Mulliken charges:
               1
     1  C   -0.298581
     2  C   -0.300408
     3  C   -0.481133
     4  H    0.149566
     5  H    0.149512
     6  H    0.152375
     7  H    0.152246
     8  H    0.155260
     9  H    0.160770
    10  H    0.160687
    11  C   -0.298318
    12  C   -0.299723
    13  C   -0.475751
    14  H    0.149708
    15  H    0.149819
    16  H    0.152044
    17  H    0.151988
    18  H    0.155238
    19  H    0.155261
    20  H    0.160409
    21  C   -0.299888
    22  C   -0.302704
    23  C   -0.476019
    24  H    0.149081
    25  H    0.153393
    26  H    0.151278
    27  H    0.155125
    28  H    0.155464
    29  H    0.154981
    30  H    0.159654
    31  C   -0.299758
    32  C   -0.299637
    33  C   -0.475713
    34  H    0.148873
    35  H    0.151235
    36  H    0.151740
    37  H    0.151790
    38  H    0.155137
    39  H    0.155058
    40  H    0.159943
 Sum of Mulliken charges =  -0.00000

 Dipole moment (field-independent basis, Debye):
    X=             -0.0477    Y=             -0.0081    Z=              0.0138  Tot=              0.0504
 Quadrupole moment (field-independent basis, Debye-Ang):
   XX=            -85.2682   YY=            -85.7661   ZZ=            -83.8960
   XY=              0.1997   XZ=             -0.6237   YZ=              0.6579

 Normal termination of Gaussian 16 at Thu May  6 02:07:04 2021.
