 Gaussian 16, Revision A.03,
 Gaussian 16:  EM64L-G16RevA.03 25-Dec-2016

 -------------
 #p 6-31g* mp2
 -------------

 ------------------------------------------------------
 Input file generated by CHIRIPA (05-May-2021 14:57:23)
 ------------------------------------------------------
 Symbolic Z-matrix:
 Charge =  0 Multiplicity = 1

                         Standard orientation:
 ---------------------------------------------------------------------
 Center     Atomic      Atomic             Coordinates (Angstroms)
 Number     Number       Type             X           Y           Z
 ---------------------------------------------------------------------
      1          6           0        3.064067   -2.188645    1.041006
      2          6           0        2.573796   -1.991999   -0.254172
      3          6           0        2.562935   -0.714926   -0.822955
      4          6           0        3.052127    0.347737   -0.064847
      5          6           0        3.547092    0.183917    1.228004
      6          6           0        3.548297   -1.101975    1.776663
      7          1           0        3.068753   -3.184132    1.475034
      8          1           0        2.197113   -2.834070   -0.827819
      9          1           0        2.189116   -0.534362   -1.823492
     10          1           0        3.916018    1.042839    1.775329
     11          1           0        3.929648   -1.251724    2.782740
     12          7           0        3.045740    1.704386   -0.656340
     13          8           0        3.482266    2.624127    0.032252
     14          8           0        2.604330    1.822297   -1.797344
     15          6           0       -1.001152   -1.183293   -1.049159
     16          6           0       -0.905382   -0.495623    0.165113
     17          6           0       -2.035789    0.095137    0.737590
     18          6           0       -3.251562   -0.021751    0.065635
     19          6           0       -3.379135   -0.700310   -1.145386
     20          6           0       -2.235547   -1.283266   -1.699388
     21          1           0       -0.117906   -1.639179   -1.486697
     22          1           0        0.051963   -0.416385    0.672320
     23          1           0       -1.990019    0.633318    1.676572
     24          1           0       -4.347191   -0.762455   -1.627491
     25          1           0       -2.312897   -1.816710   -2.642520
     26          7           0       -4.455250    0.599530    0.661911
     27          8           0       -5.514758    0.482331    0.050074
     28          8           0       -4.316401    1.191924    1.729818
 ---------------------------------------------------------------------

 SCF Done:  E(RHF) =  -868.335365083     A.U. after   16 cycles
 E2 =    -0.2603700674D+01 EUMP2 =    -0.87093906575686D+03

 The electronic state is 1-A.
 Alpha  occ. eigenvalues --  -20.61659 -20.61654 -20.60738 -20.60733 -15.86726
 Alpha  occ. eigenvalues --  -15.85789 -11.32378 -11.31195 -11.29014 -11.28927
 Alpha  occ. eigenvalues --  -11.28704 -11.28069 -11.27943 -11.27755 -11.27721
 Alpha  occ. eigenvalues --  -11.27561 -11.26833 -11.26702  -1.60732  -1.59811
 Alpha  occ. eigenvalues --   -1.40275  -1.39364  -1.20610  -1.19362  -1.09898
 Alpha  occ. eigenvalues --   -1.08782  -1.06049  -1.04760  -0.96693  -0.95608
 Alpha  occ. eigenvalues --   -0.87380  -0.86174  -0.83537  -0.82429  -0.78542
 Alpha  occ. eigenvalues --   -0.77455  -0.72932  -0.72084  -0.72005  -0.71655
 Alpha  occ. eigenvalues --   -0.71131  -0.70553  -0.66208  -0.65988  -0.65028
 Alpha  occ. eigenvalues --   -0.64820  -0.63346  -0.62139  -0.56442  -0.55346
 Alpha  occ. eigenvalues --   -0.54402  -0.54089  -0.53089  -0.52726  -0.49712
 Alpha  occ. eigenvalues --   -0.49671  -0.48769  -0.48762  -0.45614  -0.44760
 Alpha  occ. eigenvalues --   -0.38610  -0.37654  -0.37321  -0.36332
 Alpha virt. eigenvalues --    0.03976   0.05047   0.09817   0.11456   0.15311
 Alpha virt. eigenvalues --    0.16498   0.19271   0.22010   0.24986   0.27101
 Alpha virt. eigenvalues --    0.27277   0.29479   0.29720   0.31261   0.32420

 Mulliken charges:
               1
     1  C   -0.171023
     2  C   -0.223005
     3  C   -0.182248
     4  C    0.158306
     5  C   -0.172250
     6  C   -0.219151
     7  H    0.231101
     8  H    0.223348
     9  H    0.276370
    10  H    0.280713
    11  H    0.229285
    12  N    0.488500
    13  O   -0.456154
    14  O   -0.457407
    15  C   -0.170233
    16  C   -0.221177
    17  C   -0.170952
    18  C    0.159643
    19  C   -0.170872
    20  C   -0.217571
    21  H    0.212661
    22  H    0.230120
    23  H    0.275951
    24  H    0.275781
    25  H    0.222354
    26  N    0.488015
    27  O   -0.460235
    28  O   -0.459872
 Sum of Mulliken charges =  -0.00000

 Dipole moment (field-independent basis, Debye):
    X=              4.5298    Y=             -6.8296    Z=              0.1542  Tot=              8.1968
 Quadrupole moment (field-independent basis, Debye-Ang):
   XX=           -129.9832   YY=           -107.9439   ZZ=            -99.1957
   XY=             -5.7938   XZ=             18.4144   YZ=              3.8605

 Normal termination of Gaussian 16 at Fri May  7 11:01:41 2021.
