 Gaussian 16, Revision A.03,
 Gaussian 16:  EM64L-G16RevA.03 25-Dec-2016

 -------------
 #p 6-31g* mp2
 -------------

 ------------------------------------------------------
 Input file generated by CHIRIPA (05-May-2021 14:53:17)
 ------------------------------------------------------
 Symbolic Z-matrix:
 Charge =  0 Multiplicity = 1

                         Standard orientation:
 ---------------------------------------------------------------------
 Center     Atomic      Atomic             Coordinates (Angstroms)
 Number     Number       Type             X           Y           Z
 ---------------------------------------------------------------------
      1          6           0        3.463012    0.736579    0.154975
      2          6           0        2.776302    1.758105   -0.752163
      3          6           0        2.355923    3.024023   -0.004815
      4          1           0        2.784110    0.470582    0.976731
      5          1           0        4.345402    1.201130    0.616468
      6          1           0        1.896255    1.291339   -1.212881
      7          1           0        3.456845    2.021558   -1.571962
      8          1           0        3.226797    3.515208    0.441186
      9          1           0        1.657340    2.780840    0.802306
     10          1           0        1.867071    3.740586   -0.672214
     11          6           0        3.889131   -0.534386   -0.577690
     12          6           0        4.575841   -1.555912    0.329447
     13          6           0        4.996220   -2.821829   -0.417900
     14          1           0        3.006741   -0.998936   -1.039183
     15          1           0        4.568033   -0.268389   -1.399446
     16          1           0        3.895298   -1.819364    1.149246
     17          1           0        5.455888   -1.089145    0.790166
     18          1           0        5.694803   -2.578646   -1.225022
     19          1           0        4.125346   -3.313014   -0.863901
     20          1           0        5.485072   -3.538392    0.249498
     21          6           0       -4.924175   -0.866884   -1.073192
     22          6           0       -4.018418   -0.003071   -1.697654
     23          6           0       -2.877967    0.439887   -1.021114
     24          6           0       -2.673527   -0.002811    0.284839
     25          6           0       -3.557403   -0.863336    0.934107
     26          6           0       -4.691188   -1.293507    0.238383
     27          1           0       -5.807516   -1.206017   -1.606196
     28          1           0       -4.196798    0.329882   -2.716166
     29          1           0       -2.160389    1.108722   -1.480637
     30          1           0       -3.352597   -1.178047    1.950193
     31          1           0       -5.392895   -1.964346    0.725855
     32          7           0       -1.469711    0.459362    1.011216
     33          8           0       -1.312385    0.054828    2.161103
     34          8           0       -0.706282    1.217393    0.416911
 ---------------------------------------------------------------------

 SCF Done:  E(RHF) =  -669.536348912     A.U. after   15 cycles
 E2 =    -0.2091535458D+01 EUMP2 =    -0.67162788436961D+03

 The electronic state is 1-A.
 Alpha  occ. eigenvalues --  -20.61072 -20.61059 -15.86087 -11.31364 -11.27921
 Alpha  occ. eigenvalues --  -11.27918 -11.27651 -11.26919 -11.26909 -11.20805
 Alpha  occ. eigenvalues --  -11.20471 -11.20434 -11.20177 -11.20062 -11.19381
 Alpha  occ. eigenvalues --   -1.60124  -1.39681  -1.19528  -1.08942  -1.07315
 Alpha  occ. eigenvalues --   -1.04917  -1.02384  -0.95793  -0.94844  -0.86320
 Alpha  occ. eigenvalues --   -0.85868  -0.82625  -0.78513  -0.77684  -0.77087
 Alpha  occ. eigenvalues --   -0.72325  -0.71432  -0.70636  -0.65189  -0.64921
 Alpha  occ. eigenvalues --   -0.63924  -0.62265  -0.59740  -0.58285  -0.56462
 Alpha  occ. eigenvalues --   -0.55424  -0.54108  -0.53252  -0.53007  -0.51577
 Alpha  occ. eigenvalues --   -0.51280  -0.49160  -0.49065  -0.48668  -0.46811
 Alpha  occ. eigenvalues --   -0.45566  -0.45094  -0.44622  -0.44462  -0.42662
 Alpha  occ. eigenvalues --   -0.37505  -0.36516
 Alpha virt. eigenvalues --    0.04826   0.11139   0.16320   0.21231   0.23917
 Alpha virt. eigenvalues --    0.25423   0.27140   0.27600   0.28285   0.28631
 Alpha virt. eigenvalues --    0.29143   0.30812   0.32049   0.32658   0.32984

 Mulliken charges:
               1
     1  C   -0.300833
     2  C   -0.295561
     3  C   -0.479279
     4  H    0.161773
     5  H    0.144647
     6  H    0.155835
     7  H    0.141887
     8  H    0.145234
     9  H    0.179589
    10  H    0.151198
    11  C   -0.297023
    12  C   -0.299370
    13  C   -0.474870
    14  H    0.147001
    15  H    0.145568
    16  H    0.153971
    17  H    0.150589
    18  H    0.153308
    19  H    0.153057
    20  H    0.158025
    21  C   -0.170427
    22  C   -0.218539
    23  C   -0.170827
    24  C    0.157396
    25  C   -0.170453
    26  C   -0.218605
    27  H    0.226296
    28  H    0.224188
    29  H    0.276050
    30  H    0.275954
    31  H    0.224065
    32  N    0.491900
    33  O   -0.458943
    34  O   -0.462800
 Sum of Mulliken charges =  -0.00000

 Dipole moment (field-independent basis, Debye):
    X=             -4.6486    Y=             -1.6553    Z=             -2.4021  Tot=              5.4881
 Quadrupole moment (field-independent basis, Debye-Ang):
   XX=            -72.8179   YY=            -95.4172   ZZ=            -93.4302
   XY=              5.9747   XZ=              4.9728   YZ=             -3.2289

 Normal termination of Gaussian 16 at Thu May  6 15:37:29 2021.
