 Gaussian 16, Revision A.03,
 Gaussian 16:  EM64L-G16RevA.03 25-Dec-2016

 -------------
 #p 6-31g* mp2
 -------------

 ------------------------------------------------------
 Input file generated by CHIRIPA (05-May-2021 14:53:12)
 ------------------------------------------------------
 Symbolic Z-matrix:
 Charge =  0 Multiplicity = 1

                         Standard orientation:
 ---------------------------------------------------------------------
 Center     Atomic      Atomic             Coordinates (Angstroms)
 Number     Number       Type             X           Y           Z
 ---------------------------------------------------------------------
      1          6           0        4.416279   -0.088081   -0.599918
      2          6           0        5.632146   -0.932477   -0.216971
      3          6           0        6.066991   -1.882909   -1.332938
      4          1           0        3.582852   -0.754326   -0.861568
      5          1           0        4.650272    0.489933   -1.504651
      6          1           0        5.396405   -1.507678    0.687565
      7          1           0        6.462717   -0.264143    0.043983
      8          1           0        6.328836   -1.322329   -2.236147
      9          1           0        5.256465   -2.572930   -1.588909
     10          1           0        6.937675   -2.476816   -1.037905
     11          6           0        3.969584    0.867047    0.505488
     12          6           0        2.753717    1.711443    0.122541
     13          6           0        2.318872    2.661876    1.238508
     14          1           0        3.735591    0.289034    1.410221
     15          1           0        4.803011    1.533293    0.767139
     16          1           0        1.923146    1.043110   -0.138413
     17          1           0        2.989458    2.286645   -0.781995
     18          1           0        3.129398    3.351896    1.494479
     19          1           0        2.057027    2.101295    2.141717
     20          1           0        1.448188    3.255782    0.943475
     21          6           0       -1.398340   -1.410036    1.309149
     22          6           0       -2.661863   -2.008462    1.265334
     23          6           0       -3.709454   -1.404751    0.563455
     24          6           0       -3.457227   -0.197383   -0.086111
     25          6           0       -2.209412    0.423597   -0.060991
     26          6           0       -1.176539   -0.198053    0.647014
     27          1           0       -0.590262   -1.885982    1.856765
     28          1           0       -2.837006   -2.949689    1.778619
     29          1           0       -4.697392   -1.846188    0.513181
     30          1           0       -2.065267    1.362017   -0.582535
     31          1           0       -0.196294    0.268981    0.679328
     32          7           0       -4.558474    0.451234   -0.832401
     33          8           0       -4.310557    1.514793   -1.396331
     34          8           0       -5.648697   -0.116219   -0.839282
 ---------------------------------------------------------------------

 SCF Done:  E(RHF) =  -669.535491579     A.U. after   15 cycles
 E2 =    -0.2091090084D+01 EUMP2 =    -0.67162658166317D+03

 The electronic state is 1-A.
 Alpha  occ. eigenvalues --  -20.60745 -20.60740 -15.85798 -11.31165 -11.27737
 Alpha  occ. eigenvalues --  -11.27726 -11.27482 -11.26755 -11.26718 -11.22599
 Alpha  occ. eigenvalues --  -11.22208 -11.22184 -11.22051 -11.21980 -11.21553
 Alpha  occ. eigenvalues --   -1.59820  -1.39374  -1.19337  -1.09202  -1.08734
 Alpha  occ. eigenvalues --   -1.04742  -1.04286  -0.96712  -0.95569  -0.87722
 Alpha  occ. eigenvalues --   -0.86142  -0.82402  -0.80359  -0.78991  -0.77446
 Alpha  occ. eigenvalues --   -0.72017  -0.71143  -0.70451  -0.65892  -0.64990
 Alpha  occ. eigenvalues --   -0.64740  -0.62182  -0.61598  -0.60085  -0.58316
 Alpha  occ. eigenvalues --   -0.56004  -0.55243  -0.53403  -0.53125  -0.53070
 Alpha  occ. eigenvalues --   -0.52832  -0.50655  -0.48790  -0.48771  -0.48642
 Alpha  occ. eigenvalues --   -0.47404  -0.46525  -0.46449  -0.44779  -0.44527
 Alpha  occ. eigenvalues --   -0.37323  -0.36341
 Alpha virt. eigenvalues --    0.05087   0.11287   0.16561   0.19165   0.22655
 Alpha virt. eigenvalues --    0.23560   0.25556   0.26484   0.27119   0.28284
 Alpha virt. eigenvalues --    0.28723   0.30123   0.31003   0.31103   0.31974

 Mulliken charges:
               1
     1  C   -0.298722
     2  C   -0.299994
     3  C   -0.476069
     4  H    0.147966
     5  H    0.152404
     6  H    0.150795
     7  H    0.153642
     8  H    0.156846
     9  H    0.155118
    10  H    0.161791
    11  C   -0.297989
    12  C   -0.305988
    13  C   -0.477884
    14  H    0.146662
    15  H    0.153619
    16  H    0.144145
    17  H    0.158460
    18  H    0.161135
    19  H    0.152788
    20  H    0.161762
    21  C   -0.172744
    22  C   -0.218404
    23  C   -0.171144
    24  C    0.158781
    25  C   -0.173199
    26  C   -0.227312
    27  H    0.225489
    28  H    0.223239
    29  H    0.275530
    30  H    0.275732
    31  H    0.236415
    32  N    0.488108
    33  O   -0.460391
    34  O   -0.460586
 Sum of Mulliken charges =  -0.00000

 Dipole moment (field-independent basis, Debye):
    X=              4.0899    Y=             -2.2215    Z=              2.6052  Tot=              5.3338
 Quadrupole moment (field-independent basis, Debye-Ang):
   XX=           -119.0514   YY=            -91.0733   ZZ=            -96.0126
   XY=             10.8760   XZ=            -10.4226   YZ=             -2.2594

 Normal termination of Gaussian 16 at Thu May  6 18:40:47 2021.
