 Gaussian 16, Revision A.03,
 Gaussian 16:  EM64L-G16RevA.03 25-Dec-2016

 -------------
 #p 6-31g* mp2
 -------------

 ------------------------------------------------------
 Input file generated by CHIRIPA (05-May-2021 14:51:07)
 ------------------------------------------------------
 Symbolic Z-matrix:
 Charge =  0 Multiplicity = 1

                         Standard orientation:
 ---------------------------------------------------------------------
 Center     Atomic      Atomic             Coordinates (Angstroms)
 Number     Number       Type             X           Y           Z
 ---------------------------------------------------------------------
      1          6           0       -3.635586   -0.117152    0.509990
      2          6           0       -3.658697   -1.448345   -0.241925
      3          6           0       -4.170857   -2.604197    0.618013
      4          1           0       -3.004543   -0.218920    1.403507
      5          1           0       -4.649095    0.111681    0.867526
      6          1           0       -2.645712   -1.673919   -0.599128
      7          1           0       -4.289604   -1.343340   -1.133859
      8          1           0       -5.190605   -2.405179    0.963132
      9          1           0       -3.537372   -2.737636    1.500902
     10          1           0       -4.179040   -3.546179    0.060822
     11          6           0       -3.125948    1.047970   -0.336467
     12          6           0       -3.102837    2.379163    0.415448
     13          6           0       -2.590677    3.535015   -0.444489
     14          1           0       -2.112439    0.819137   -0.694002
     15          1           0       -3.756990    1.149738   -1.229984
     16          1           0       -2.471929    2.274158    1.307382
     17          1           0       -4.115821    2.604737    0.772651
     18          1           0       -3.224161    3.668454   -1.327378
     19          1           0       -1.570929    3.335997   -0.789609
     20          1           0       -2.582494    4.476997    0.112702
     21          6           0        3.777092    0.185148   -0.030786
     22          6           0        5.249276   -0.030117    0.321803
     23          6           0        6.028959    1.280659    0.430222
     24          1           0        3.710460    0.732733   -0.980868
     25          1           0        3.314385    0.826031    0.732475
     26          1           0        5.708725   -0.671536   -0.441154
     27          1           0        5.312410   -0.577421    1.271060
     28          1           0        5.597155    1.922816    1.204677
     29          1           0        5.995722    1.828167   -0.517265
     30          1           0        7.078989    1.103466    0.683006
     31          6           0        2.984442   -1.115966   -0.142737
     32          6           0        1.512257   -0.900701   -0.495327
     33          6           0        0.732575   -2.211477   -0.603746
     34          1           0        3.447149   -1.756849   -0.905998
     35          1           0        3.051074   -1.663551    0.807345
     36          1           0        1.449123   -0.353397   -1.444584
     37          1           0        1.052808   -0.259282    0.267630
     38          1           0        0.765811   -2.758985    0.343742
     39          1           0        1.164378   -2.853635   -1.378201
     40          1           0       -0.317455   -2.034283   -0.856529
 ---------------------------------------------------------------------

 SCF Done:  E(RHF) =  -470.733381246     A.U. after   11 cycles
 E2 =    -0.1582792652D+01 EUMP2 =    -0.47231617389811D+03

 The electronic state is 1-A.
 Alpha  occ. eigenvalues --  -11.21675 -11.21630 -11.21594 -11.21584 -11.21450
 Alpha  occ. eigenvalues --  -11.21395 -11.21390 -11.21336 -11.21127 -11.21092
 Alpha  occ. eigenvalues --  -11.21058 -11.21052  -1.08478  -1.08420  -1.03580
 Alpha  occ. eigenvalues --   -1.03515  -0.96026  -0.95964  -0.87049  -0.86975
 Alpha  occ. eigenvalues --   -0.79662  -0.79563  -0.78289  -0.78236  -0.65117
 Alpha  occ. eigenvalues --   -0.65054  -0.60981  -0.60937  -0.59440  -0.59285
 Alpha  occ. eigenvalues --   -0.57644  -0.57569  -0.55307  -0.55251  -0.52767
 Alpha  occ. eigenvalues --   -0.52646  -0.52462  -0.52376  -0.49965  -0.49901
 Alpha  occ. eigenvalues --   -0.48036  -0.47834  -0.46677  -0.46599  -0.45831
 Alpha  occ. eigenvalues --   -0.45775  -0.45750  -0.45690  -0.43806  -0.43756
 Alpha virt. eigenvalues --    0.20495   0.23103   0.23854   0.24609   0.26015
 Alpha virt. eigenvalues --    0.26581   0.27126   0.27474   0.27994   0.29104
 Alpha virt. eigenvalues --    0.30154   0.31379   0.31699   0.31964   0.32087

 Mulliken charges:
               1
     1  C   -0.297574
     2  C   -0.308309
     3  C   -0.475098
     4  H    0.149483
     5  H    0.149566
     6  H    0.159330
     7  H    0.152014
     8  H    0.155082
     9  H    0.155273
    10  H    0.160349
    11  C   -0.299839
    12  C   -0.299472
    13  C   -0.475839
    14  H    0.150750
    15  H    0.149622
    16  H    0.151694
    17  H    0.151924
    18  H    0.155108
    19  H    0.155572
    20  H    0.160156
    21  C   -0.298316
    22  C   -0.299690
    23  C   -0.475742
    24  H    0.149759
    25  H    0.149466
    26  H    0.152030
    27  H    0.151992
    28  H    0.155220
    29  H    0.155263
    30  H    0.160366
    31  C   -0.298571
    32  C   -0.299479
    33  C   -0.484121
    34  H    0.149854
    35  H    0.149793
    36  H    0.152091
    37  H    0.151534
    38  H    0.155432
    39  H    0.155885
    40  H    0.167445
 Sum of Mulliken charges =  -0.00000

 Dipole moment (field-independent basis, Debye):
    X=              0.0186    Y=             -0.0088    Z=             -0.0060  Tot=              0.0215
 Quadrupole moment (field-independent basis, Debye-Ang):
   XX=            -84.4029   YY=            -86.3603   ZZ=            -83.9308
   XY=             -1.1251   XZ=              0.1601   YZ=              0.3612

 Normal termination of Gaussian 16 at Wed May  5 19:39:05 2021.
