 Gaussian 16, Revision A.03,
 Gaussian 16:  EM64L-G16RevA.03 25-Dec-2016

 -------------
 #p 6-31g* mp2
 -------------

 ------------------------------------------------------
 Input file generated by CHIRIPA (05-May-2021 14:55:23)
 ------------------------------------------------------
 Symbolic Z-matrix:
 Charge =  0 Multiplicity = 1

                         Standard orientation:
 ---------------------------------------------------------------------
 Center     Atomic      Atomic             Coordinates (Angstroms)
 Number     Number       Type             X           Y           Z
 ---------------------------------------------------------------------
      1          6           0       -2.588892    2.266645    0.431033
      2          6           0       -1.924973    1.593588   -0.599853
      3          6           0       -2.196298    0.246753   -0.858634
      4          6           0       -3.141677   -0.399112   -0.063395
      5          6           0       -3.819754    0.244066    0.970928
      6          6           0       -3.532500    1.590927    1.211757
      7          1           0       -2.371933    3.312908    0.625088
      8          1           0       -1.191669    2.115828   -1.207782
      9          1           0       -1.696959   -0.298486   -1.650337
     10          1           0       -4.545641   -0.303202    1.559999
     11          1           0       -4.049643    2.111097    2.013026
     12          7           0       -3.437349   -1.824959   -0.327852
     13          8           0       -4.274540   -2.371448    0.387058
     14          8           0       -2.826306   -2.369051   -1.245037
     15          6           0        3.356181    0.647314    0.195325
     16          6           0        3.220479    1.871633   -0.710552
     17          6           0        2.009885    2.736522   -0.358097
     18          1           0        2.440379    0.044456    0.125941
     19          1           0        3.433341    0.979484    1.239885
     20          1           0        3.144989    1.537314   -1.753216
     21          1           0        4.136787    2.471546   -0.639150
     22          1           0        2.081803    3.098132    0.672760
     23          1           0        1.084369    2.158592   -0.447637
     24          1           0        1.932003    3.606168   -1.018030
     25          6           0        4.561764   -0.227180   -0.144613
     26          6           0        4.697466   -1.451498    0.761264
     27          6           0        5.908059   -2.316388    0.408809
     28          1           0        4.484603   -0.559349   -1.189174
     29          1           0        5.477566    0.375679   -0.075229
     30          1           0        3.781157   -2.051412    0.689860
     31          1           0        4.772956   -1.117180    1.803928
     32          1           0        6.833575   -1.738457    0.498349
     33          1           0        5.836141   -2.677998   -0.622048
     34          1           0        5.985940   -3.186033    1.068741
 ---------------------------------------------------------------------

 SCF Done:  E(RHF) =  -669.535474559     A.U. after   15 cycles
 E2 =    -0.2091177808D+01 EUMP2 =    -0.67162665236654D+03

 The electronic state is 1-A.
 Alpha  occ. eigenvalues --  -20.60778 -20.60773 -15.85832 -11.31199 -11.27775
 Alpha  occ. eigenvalues --  -11.27772 -11.27503 -11.26778 -11.26748 -11.22148
 Alpha  occ. eigenvalues --  -11.21863 -11.21751 -11.21722 -11.21600 -11.21137
 Alpha  occ. eigenvalues --   -1.59854  -1.39407  -1.19374  -1.08773  -1.08754
 Alpha  occ. eigenvalues --   -1.04781  -1.03897  -0.96366  -0.95598  -0.87397
 Alpha  occ. eigenvalues --   -0.86170  -0.82434  -0.79972  -0.78539  -0.77482
 Alpha  occ. eigenvalues --   -0.72050  -0.71177  -0.70472  -0.65414  -0.65023
 Alpha  occ. eigenvalues --   -0.64788  -0.62167  -0.61268  -0.59749  -0.57951
 Alpha  occ. eigenvalues --   -0.55695  -0.55249  -0.53165  -0.53077  -0.52933
 Alpha  occ. eigenvalues --   -0.52656  -0.50289  -0.48808  -0.48805  -0.48272
 Alpha  occ. eigenvalues --   -0.46985  -0.46089  -0.45990  -0.44813  -0.44138
 Alpha  occ. eigenvalues --   -0.37339  -0.36368
 Alpha virt. eigenvalues --    0.05051   0.11171   0.16474   0.20812   0.22675
 Alpha virt. eigenvalues --    0.23990   0.26029   0.26610   0.27327   0.28255
 Alpha virt. eigenvalues --    0.28658   0.30526   0.31220   0.31651   0.32030

 Mulliken charges:
               1
     1  C   -0.171431
     2  C   -0.218849
     3  C   -0.172709
     4  C    0.158601
     5  C   -0.170582
     6  C   -0.218651
     7  H    0.226564
     8  H    0.227212
     9  H    0.275348
    10  H    0.275697
    11  H    0.223540
    12  N    0.488126
    13  O   -0.460349
    14  O   -0.460624
    15  C   -0.298881
    16  C   -0.299153
    17  C   -0.482345
    18  H    0.150922
    19  H    0.150082
    20  H    0.152131
    21  H    0.154197
    22  H    0.157485
    23  H    0.151616
    24  H    0.158348
    25  C   -0.298709
    26  C   -0.300379
    27  C   -0.475988
    28  H    0.150362
    29  H    0.149727
    30  H    0.154478
    31  H    0.151797
    32  H    0.154698
    33  H    0.156065
    34  H    0.161654
 Sum of Mulliken charges =  -0.00000

 Dipole moment (field-independent basis, Debye):
    X=              1.1123    Y=              4.9876    Z=              0.9777  Tot=              5.2028
 Quadrupole moment (field-independent basis, Debye-Ang):
   XX=            -99.4988   YY=            -99.7129   ZZ=            -92.0707
   XY=            -15.6002   XZ=             -5.4379   YZ=             -0.3205

 Normal termination of Gaussian 16 at Thu May  6 11:00:02 2021.
