 Gaussian 16, Revision A.03,
 Gaussian 16:  EM64L-G16RevA.03 25-Dec-2016

 -------------
 #p 6-31g* mp2
 -------------

 ------------------------------------------------------
 Input file generated by CHIRIPA (05-May-2021 14:55:23)
 ------------------------------------------------------
 Symbolic Z-matrix:
 Charge =  0 Multiplicity = 1

                         Standard orientation:
 ---------------------------------------------------------------------
 Center     Atomic      Atomic             Coordinates (Angstroms)
 Number     Number       Type             X           Y           Z
 ---------------------------------------------------------------------
      1          6           0        3.288816    2.067617    0.882432
      2          6           0        1.908160    1.845739    0.849571
      3          6           0        1.392474    0.656020    0.326900
      4          6           0        2.290266   -0.294511   -0.156577
      5          6           0        3.670913   -0.102821   -0.137635
      6          6           0        4.164243    1.094344    0.389593
      7          1           0        3.680730    2.994711    1.290226
      8          1           0        1.225926    2.599823    1.231618
      9          1           0        0.328085    0.458334    0.289285
     10          1           0        4.326066   -0.873205   -0.525836
     11          1           0        5.236947    1.263941    0.413838
     12          7           0        1.756166   -1.557955   -0.712317
     13          8           0        2.568171   -2.379606   -1.132049
     14          8           0        0.535647   -1.702668   -0.717652
     15          6           0       -3.101738   -0.639564   -0.049561
     16          6           0       -2.788365   -1.498100    1.176284
     17          6           0       -2.907729   -2.996228    0.894933
     18          1           0       -4.117572   -0.868541   -0.399695
     19          1           0       -2.420068   -0.915721   -0.865929
     20          1           0       -3.469511   -1.219442    1.990538
     21          1           0       -1.773230   -1.266912    1.523657
     22          1           0       -2.216577   -3.295225    0.100257
     23          1           0       -3.922496   -3.247484    0.569790
     24          1           0       -2.679480   -3.591250    1.784715
     25          6           0       -2.986690    0.860441    0.215921
     26          6           0       -3.300062    1.718977   -1.009925
     27          6           0       -3.180699    3.217105   -0.728574
     28          1           0       -3.668361    1.136599    1.032288
     29          1           0       -1.970856    1.089419    0.566056
     30          1           0       -4.315198    1.487789   -1.357298
     31          1           0       -2.618917    1.440319   -1.824178
     32          1           0       -2.165932    3.468361   -0.403430
     33          1           0       -3.871850    3.516102    0.066103
     34          1           0       -3.408948    3.812128   -1.618355
 ---------------------------------------------------------------------

 SCF Done:  E(RHF) =  -669.536016435     A.U. after   15 cycles
 E2 =    -0.2092972142D+01 EUMP2 =    -0.67162898857751D+03

 The electronic state is 1-A.
 Alpha  occ. eigenvalues --  -20.60974 -20.60965 -15.86004 -11.31282 -11.27845
 Alpha  occ. eigenvalues --  -11.27823 -11.27577 -11.26847 -11.26834 -11.21637
 Alpha  occ. eigenvalues --  -11.21448 -11.21299 -11.20960 -11.20800 -11.20118
 Alpha  occ. eigenvalues --   -1.60030  -1.39587  -1.19450  -1.08862  -1.08175
 Alpha  occ. eigenvalues --   -1.04843  -1.03187  -0.95713  -0.95661  -0.86670
 Alpha  occ. eigenvalues --   -0.86246  -0.82548  -0.79338  -0.77926  -0.77605
 Alpha  occ. eigenvalues --   -0.72240  -0.71340  -0.70570  -0.65126  -0.65009
 Alpha  occ. eigenvalues --   -0.64653  -0.62171  -0.60552  -0.59089  -0.57261
 Alpha  occ. eigenvalues --   -0.55365  -0.54946  -0.53175  -0.52932  -0.52353
 Alpha  occ. eigenvalues --   -0.52072  -0.49618  -0.48976  -0.48943  -0.47630
 Alpha  occ. eigenvalues --   -0.46395  -0.45499  -0.45307  -0.44948  -0.43469
 Alpha  occ. eigenvalues --   -0.37429  -0.36441
 Alpha virt. eigenvalues --    0.04898   0.11193   0.16406   0.19135   0.23084
 Alpha virt. eigenvalues --    0.24222   0.25433   0.27253   0.27761   0.28272
 Alpha virt. eigenvalues --    0.29685   0.31200   0.31912   0.32141   0.32572

 Mulliken charges:
               1
     1  C   -0.170258
     2  C   -0.222501
     3  C   -0.182102
     4  C    0.158223
     5  C   -0.169686
     6  C   -0.219099
     7  H    0.226164
     8  H    0.224246
     9  H    0.291556
    10  H    0.275753
    11  H    0.223866
    12  N    0.491127
    13  O   -0.458549
    14  O   -0.465878
    15  C   -0.305139
    16  C   -0.295728
    17  C   -0.480297
    18  H    0.147985
    19  H    0.168994
    20  H    0.145412
    21  H    0.150708
    22  H    0.174461
    23  H    0.150000
    24  H    0.156584
    25  C   -0.298249
    26  C   -0.300522
    27  C   -0.473974
    28  H    0.150040
    29  H    0.133120
    30  H    0.154845
    31  H    0.154998
    32  H    0.146699
    33  H    0.155553
    34  H    0.161648
 Sum of Mulliken charges =  -0.00000

 Dipole moment (field-independent basis, Debye):
    X=              1.9831    Y=              4.2780    Z=              1.7879  Tot=              5.0429
 Quadrupole moment (field-independent basis, Debye-Ang):
   XX=            -80.8541   YY=            -98.6901   ZZ=            -96.0710
   XY=              8.1972   XZ=              3.4991   YZ=             -0.7178

 Normal termination of Gaussian 16 at Thu May  6 04:41:30 2021.
