 Gaussian 16, Revision A.03,
 Gaussian 16:  EM64L-G16RevA.03 25-Dec-2016

 -------------
 #p 6-31g* mp2
 -------------

 ------------------------------------------------------
 Input file generated by CHIRIPA (05-May-2021 14:57:22)
 ------------------------------------------------------
 Symbolic Z-matrix:
 Charge =  0 Multiplicity = 1

                         Standard orientation:
 ---------------------------------------------------------------------
 Center     Atomic      Atomic             Coordinates (Angstroms)
 Number     Number       Type             X           Y           Z
 ---------------------------------------------------------------------
      1          6           0        1.977670   -1.740647   -0.014780
      2          6           0        2.793434   -1.622407    1.115295
      3          6           0        3.847681   -0.704454    1.137043
      4          6           0        4.058621    0.082947    0.006205
      5          6           0        3.263303   -0.011463   -1.134780
      6          6           0        2.214790   -0.936215   -1.134237
      7          1           0        1.160933   -2.456376   -0.023016
      8          1           0        2.611625   -2.245838    1.986114
      9          1           0        4.494615   -0.592273    1.998617
     10          1           0        3.469206    0.623720   -1.987755
     11          1           0        1.582871   -1.025878   -2.013261
     12          7           0        5.171670    1.058342    0.017429
     13          8           0        5.336683    1.740463   -0.991590
     14          8           0        5.857988    1.122267    1.035033
     15          6           0       -5.221068    2.188545    0.310757
     16          6           0       -3.838544    2.263058    0.111768
     17          6           0       -3.082806    1.100072   -0.063936
     18          6           0       -3.745061   -0.126248   -0.034819
     19          6           0       -5.121048   -0.233235    0.161403
     20          6           0       -5.856787    0.942833    0.334897
     21          1           0       -5.800376    3.097062    0.446389
     22          1           0       -3.342167    3.229125    0.092553
     23          1           0       -2.011218    1.128861   -0.219781
     24          1           0       -5.587724   -1.210696    0.175621
     25          1           0       -6.930339    0.881937    0.489245
     26          7           0       -2.955581   -1.364374   -0.219659
     27          8           0       -3.562784   -2.432574   -0.189839
     28          8           0       -1.744533   -1.243172   -0.390857
 ---------------------------------------------------------------------

 SCF Done:  E(RHF) =  -868.340453586     A.U. after   16 cycles
 E2 =    -0.2598220671D+01 EUMP2 =    -0.87093867425691D+03

 The electronic state is 1-A.
 Alpha  occ. eigenvalues --  -20.61721 -20.61680 -20.60237 -20.60232 -15.86733
 Alpha  occ. eigenvalues --  -15.85285 -11.31807 -11.30420 -11.28338 -11.28335
 Alpha  occ. eigenvalues --  -11.28022 -11.27287 -11.27273 -11.27002 -11.26979
 Alpha  occ. eigenvalues --  -11.26445 -11.25877 -11.25808  -1.60768  -1.59320
 Alpha  occ. eigenvalues --   -1.40330  -1.38880  -1.19951  -1.18558  -1.09400
 Alpha  occ. eigenvalues --   -1.07939  -1.05308  -1.03940  -0.96285  -0.94820
 Alpha  occ. eigenvalues --   -0.86719  -0.85312  -0.83129  -0.81680  -0.78205
 Alpha  occ. eigenvalues --   -0.76804  -0.72985  -0.72069  -0.71504  -0.71052
 Alpha  occ. eigenvalues --   -0.70646  -0.69518  -0.65606  -0.65304  -0.64181
 Alpha  occ. eigenvalues --   -0.63903  -0.62657  -0.61303  -0.55816  -0.54251
 Alpha  occ. eigenvalues --   -0.53655  -0.53392  -0.52272  -0.52004  -0.49735
 Alpha  occ. eigenvalues --   -0.49692  -0.48275  -0.48238  -0.45798  -0.44339
 Alpha  occ. eigenvalues --   -0.37913  -0.36899  -0.36434  -0.35578
 Alpha virt. eigenvalues --    0.04301   0.05744   0.10760   0.12098   0.15855
 Alpha virt. eigenvalues --    0.17328   0.20933   0.22442   0.26874   0.27737
 Alpha virt. eigenvalues --    0.28203   0.29440   0.30557   0.32015   0.32166

 Mulliken charges:
               1
     1  C   -0.167811
     2  C   -0.221671
     3  C   -0.172470
     4  C    0.156419
     5  C   -0.174243
     6  C   -0.220742
     7  H    0.244221
     8  H    0.221958
     9  H    0.272274
    10  H    0.271620
    11  H    0.227241
    12  N    0.488250
    13  O   -0.463545
    14  O   -0.463015
    15  C   -0.169786
    16  C   -0.218582
    17  C   -0.171076
    18  C    0.157422
    19  C   -0.170550
    20  C   -0.218590
    21  H    0.228101
    22  H    0.226383
    23  H    0.275751
    24  H    0.276059
    25  H    0.225319
    26  N    0.490713
    27  O   -0.457847
    28  O   -0.471803
 Sum of Mulliken charges =  -0.00000

 Dipole moment (field-independent basis, Debye):
    X=             -7.2427    Y=              0.8414    Z=              0.6068  Tot=              7.3166
 Quadrupole moment (field-independent basis, Debye-Ang):
   XX=           -113.5245   YY=           -105.2099   ZZ=           -101.6347
   XY=            -28.9761   XZ=             -1.8977   YZ=             -1.9622

 Normal termination of Gaussian 16 at Thu May  6 03:22:24 2021.
