 Gaussian 16, Revision A.03,
 Gaussian 16:  EM64L-G16RevA.03 25-Dec-2016

 -------------
 #p 6-31g* mp2
 -------------

 ------------------------------------------------------
 Input file generated by CHIRIPA (05-May-2021 14:51:10)
 ------------------------------------------------------
 Symbolic Z-matrix:
 Charge =  0 Multiplicity = 1

                         Standard orientation:
 ---------------------------------------------------------------------
 Center     Atomic      Atomic             Coordinates (Angstroms)
 Number     Number       Type             X           Y           Z
 ---------------------------------------------------------------------
      1          6           0       -4.383006    0.718651    0.024895
      2          6           0       -2.955584    0.254921   -0.267344
      3          6           0       -1.928154    1.378193   -0.124369
      4          1           0       -4.640748    1.542012   -0.655246
      5          1           0       -4.426491    1.129169    1.043217
      6          1           0       -2.915116   -0.155868   -1.284315
      7          1           0       -2.701278   -0.567559    0.413444
      8          1           0       -1.939226    1.783244    0.892692
      9          1           0       -2.154279    2.197274   -0.814713
     10          1           0       -0.914557    1.024711   -0.337751
     11          6           0       -5.421531   -0.393075   -0.113883
     12          6           0       -6.848953    0.070655    0.178356
     13          6           0       -7.876383   -1.052617    0.035381
     14          1           0       -5.378046   -0.803593   -1.132205
     15          1           0       -5.163789   -1.216436    0.566258
     16          1           0       -7.103259    0.893135   -0.502431
     17          1           0       -6.889421    0.481444    1.195327
     18          1           0       -7.650258   -1.871698    0.725725
     19          1           0       -7.865311   -1.457668   -0.981679
     20          1           0       -8.889980   -0.699135    0.248763
     21          6           0        5.582038   -0.070263    0.380328
     22          6           0        6.760242   -0.232639   -0.580638
     23          6           0        8.113376   -0.044665    0.106011
     24          1           0        5.626405    0.926757    0.839596
     25          1           0        5.682837   -0.796262    1.198961
     26          1           0        6.656518    0.492517   -1.397955
     27          1           0        6.712957   -1.229317   -1.037816
     28          1           0        8.242679   -0.776986    0.909496
     29          1           0        8.185919    0.954631    0.547311
     30          1           0        8.941618   -0.165028   -0.599245
     31          6           0        4.222499   -0.255313   -0.291341
     32          6           0        3.044296   -0.092938    0.669626
     33          6           0        1.691161   -0.280911   -0.017024
     34          1           0        4.121700    0.470686   -1.109974
     35          1           0        4.178133   -1.252333   -0.750608
     36          1           0        3.091579    0.903742    1.126803
     37          1           0        3.148019   -0.818093    1.486942
     38          1           0        1.618617   -1.280207   -0.458323
     39          1           0        1.561857    0.451410   -0.820508
     40          1           0        0.862918   -0.160548    0.688233
 ---------------------------------------------------------------------

 SCF Done:  E(RHF) =  -470.732762664     A.U. after   11 cycles
 E2 =    -0.1582496810D+01 EUMP2 =    -0.47231525947336D+03

 The electronic state is 1-A.
 Alpha  occ. eigenvalues --  -11.21622 -11.21609 -11.21567 -11.21518 -11.21418
 Alpha  occ. eigenvalues --  -11.21358 -11.21351 -11.21289 -11.21098 -11.21076
 Alpha  occ. eigenvalues --  -11.21045 -11.20882  -1.08446  -1.08370  -1.03560
 Alpha  occ. eigenvalues --   -1.03454  -0.96045  -0.95876  -0.87098  -0.86864
 Alpha  occ. eigenvalues --   -0.79649  -0.79499  -0.78257  -0.78185  -0.65076
 Alpha  occ. eigenvalues --   -0.65004  -0.60962  -0.60865  -0.59626  -0.59095
 Alpha  occ. eigenvalues --   -0.57658  -0.57472  -0.55297  -0.55199  -0.53043
 Alpha  occ. eigenvalues --   -0.52436  -0.52425  -0.52132  -0.49931  -0.49853
 Alpha  occ. eigenvalues --   -0.47931  -0.47837  -0.46639  -0.46565  -0.45800
 Alpha  occ. eigenvalues --   -0.45732  -0.45716  -0.45655  -0.43948  -0.43518
 Alpha virt. eigenvalues --    0.22401   0.22979   0.23626   0.24869   0.26584
 Alpha virt. eigenvalues --    0.26671   0.27078   0.27474   0.27609   0.28837
 Alpha virt. eigenvalues --    0.30486   0.31366   0.31518   0.31634   0.32065

 Mulliken charges:
               1
     1  C   -0.298107
     2  C   -0.298999
     3  C   -0.485443
     4  H    0.149510
     5  H    0.149223
     6  H    0.151727
     7  H    0.151356
     8  H    0.153471
     9  H    0.153905
    10  H    0.172419
    11  C   -0.298177
    12  C   -0.299586
    13  C   -0.475662
    14  H    0.149421
    15  H    0.149469
    16  H    0.151867
    17  H    0.151823
    18  H    0.155100
    19  H    0.155130
    20  H    0.160122
    21  C   -0.298333
    22  C   -0.299651
    23  C   -0.475715
    24  H    0.149745
    25  H    0.149541
    26  H    0.151969
    27  H    0.151940
    28  H    0.155183
    29  H    0.155216
    30  H    0.160283
    31  C   -0.298733
    32  C   -0.299511
    33  C   -0.480341
    34  H    0.149728
    35  H    0.149657
    36  H    0.152467
    37  H    0.151962
    38  H    0.155597
    39  H    0.155868
    40  H    0.164559
 Sum of Mulliken charges =  -0.00000

 Dipole moment (field-independent basis, Debye):
    X=              0.0629    Y=             -0.0155    Z=             -0.0027  Tot=              0.0648
 Quadrupole moment (field-independent basis, Debye-Ang):
   XX=            -86.8421   YY=            -84.2751   ZZ=            -83.8885
   XY=             -0.7242   XZ=             -0.2703   YZ=             -0.5482

 Normal termination of Gaussian 16 at Wed May  5 21:24:11 2021.
