 Gaussian 16, Revision A.03,
 Gaussian 16:  EM64L-G16RevA.03 25-Dec-2016

 -------------
 #p 6-31g* mp2
 -------------

 ------------------------------------------------------
 Input file generated by CHIRIPA (05-May-2021 14:57:26)
 ------------------------------------------------------
 Symbolic Z-matrix:
 Charge =  0 Multiplicity = 1

                         Standard orientation:
 ---------------------------------------------------------------------
 Center     Atomic      Atomic             Coordinates (Angstroms)
 Number     Number       Type             X           Y           Z
 ---------------------------------------------------------------------
      1          6           0        5.407691    0.779608   -0.961282
      2          6           0        4.993380   -0.507648   -1.318828
      3          6           0        3.910111   -1.110107   -0.672205
      4          6           0        3.261100   -0.393385    0.331979
      5          6           0        3.650086    0.890545    0.710798
      6          6           0        4.735906    1.473373    0.050605
      7          1           0        6.250191    1.239988   -1.468865
      8          1           0        5.513219   -1.048794   -2.104304
      9          1           0        3.568363   -2.105418   -0.929074
     10          1           0        3.112097    1.405128    1.497684
     11          1           0        5.055464    2.473203    0.330369
     12          7           0        2.112942   -1.020790    1.023712
     13          8           0        1.557869   -0.368371    1.905120
     14          8           0        1.789829   -2.153089    0.671386
     15          6           0       -1.327298    1.651971   -0.278319
     16          6           0       -1.303589    0.302066   -0.643989
     17          6           0       -2.473858   -0.462225   -0.614342
     18          6           0       -3.655578    0.158309   -0.212139
     19          6           0       -3.711443    1.501112    0.158063
     20          6           0       -2.529032    2.246139    0.120837
     21          1           0       -0.413489    2.238208   -0.304292
     22          1           0       -0.371750   -0.162013   -0.954395
     23          1           0       -2.483954   -1.509166   -0.892248
     24          1           0       -4.655546    1.935904    0.463091
     25          1           0       -2.550427    3.294294    0.405364
     26          7           0       -4.900917   -0.640615   -0.176740
     27          8           0       -5.929180   -0.070433    0.181315
     28          8           0       -4.825169   -1.821864   -0.507722
 ---------------------------------------------------------------------

 SCF Done:  E(RHF) =  -868.337946933     A.U. after   16 cycles
 E2 =    -0.2599686703D+01 EUMP2 =    -0.87093763363585D+03

 The electronic state is 1-A.
 Alpha  occ. eigenvalues --  -20.61694 -20.61675 -20.60121 -20.60109 -15.86718
 Alpha  occ. eigenvalues --  -15.85169 -11.32052 -11.30449 -11.28613 -11.28579
 Alpha  occ. eigenvalues --  -11.28288 -11.27587 -11.27555 -11.27054 -11.26968
 Alpha  occ. eigenvalues --  -11.26806 -11.26083 -11.26010  -1.60768  -1.59194
 Alpha  occ. eigenvalues --   -1.40316  -1.38749  -1.20208  -1.18622  -1.09604
 Alpha  occ. eigenvalues --   -1.08048  -1.05590  -1.04015  -0.96443  -0.94894
 Alpha  occ. eigenvalues --   -0.86986  -0.85438  -0.83264  -0.81727  -0.78332
 Alpha  occ. eigenvalues --   -0.76778  -0.72919  -0.72130  -0.71393  -0.71283
 Alpha  occ. eigenvalues --   -0.70511  -0.69773  -0.65844  -0.65569  -0.64291
 Alpha  occ. eigenvalues --   -0.64045  -0.62930  -0.61374  -0.56062  -0.54580
 Alpha  occ. eigenvalues --   -0.53937  -0.53664  -0.52333  -0.52133  -0.49693
 Alpha  occ. eigenvalues --   -0.49678  -0.48151  -0.48143  -0.45717  -0.44174
 Alpha  occ. eigenvalues --   -0.38182  -0.37199  -0.36598  -0.35585
 Alpha virt. eigenvalues --    0.04169   0.05765   0.10440   0.12047   0.15682
 Alpha virt. eigenvalues --    0.17269   0.20647   0.21900   0.26563   0.27371
 Alpha virt. eigenvalues --    0.27777   0.28820   0.30405   0.31054   0.32132

 Mulliken charges:
               1
     1  C   -0.170365
     2  C   -0.218112
     3  C   -0.172388
     4  C    0.153960
     5  C   -0.174612
     6  C   -0.218456
     7  H    0.228504
     8  H    0.226558
     9  H    0.277338
    10  H    0.275168
    11  H    0.225294
    12  N    0.485232
    13  O   -0.456856
    14  O   -0.459589
    15  C   -0.165717
    16  C   -0.210442
    17  C   -0.168609
    18  C    0.158042
    19  C   -0.171380
    20  C   -0.218572
    21  H    0.219152
    22  H    0.220433
    23  H    0.277599
    24  H    0.273251
    25  H    0.219621
    26  N    0.488206
    27  O   -0.462995
    28  O   -0.460265
 Sum of Mulliken charges =  -0.00000

 Dipole moment (field-independent basis, Debye):
    X=              8.7331    Y=              4.9126    Z=             -2.5411  Tot=             10.3372
 Quadrupole moment (field-independent basis, Debye-Ang):
   XX=           -109.9361   YY=            -99.6544   ZZ=           -105.5264
   XY=             -6.4420   XZ=             -8.7839   YZ=              5.2999

 Normal termination of Gaussian 16 at Thu May  6 00:26:01 2021.
