 Gaussian 16, Revision A.03,
 Gaussian 16:  EM64L-G16RevA.03 25-Dec-2016

 -------------
 #p 6-31g* mp2
 -------------

 ------------------------------------------------------
 Input file generated by CHIRIPA (05-May-2021 14:55:21)
 ------------------------------------------------------
 Symbolic Z-matrix:
 Charge =  0 Multiplicity = 1

                         Standard orientation:
 ---------------------------------------------------------------------
 Center     Atomic      Atomic             Coordinates (Angstroms)
 Number     Number       Type             X           Y           Z
 ---------------------------------------------------------------------
      1          6           0        5.045853   -0.223432   -1.125019
      2          6           0        3.911121   -0.914128   -1.563017
      3          6           0        2.706694   -0.819392   -0.859505
      4          6           0        2.672463   -0.021377    0.282988
      5          6           0        3.785900    0.678933    0.744630
      6          6           0        4.979738    0.569496    0.025378
      7          1           0        5.977368   -0.302735   -1.677638
      8          1           0        3.959540   -1.530666   -2.456091
      9          1           0        1.813111   -1.343383   -1.176305
     10          1           0        3.706796    1.285732    1.638474
     11          1           0        5.859402    1.107024    0.367869
     12          7           0        1.402995    0.086697    1.036096
     13          8           0        1.398873    0.796332    2.039608
     14          8           0        0.436147   -0.540277    0.608609
     15          6           0       -3.466586   -0.575791    0.173935
     16          6           0       -4.123017   -1.857846   -0.339305
     17          6           0       -3.668919   -3.101535    0.425434
     18          1           0       -2.375002   -0.675299    0.099868
     19          1           0       -3.697788   -0.455729    1.241421
     20          1           0       -3.891794   -1.974730   -1.405837
     21          1           0       -5.213172   -1.755198   -0.264187
     22          1           0       -3.914093   -3.010935    1.488581
     23          1           0       -2.585207   -3.231716    0.340444
     24          1           0       -4.150429   -4.006580    0.042155
     25          6           0       -3.910532    0.676114   -0.580633
     26          6           0       -3.254101    1.958171   -0.067393
     27          6           0       -3.708199    3.201859   -0.832132
     28          1           0       -3.679329    0.556053   -1.648119
     29          1           0       -5.002117    0.775624   -0.506566
     30          1           0       -2.163946    1.855523   -0.142512
     31          1           0       -3.485323    2.075055    0.999139
     32          1           0       -4.791910    3.332039   -0.747142
     33          1           0       -3.463025    3.111260   -1.895279
     34          1           0       -3.226690    4.106904   -0.448854
 ---------------------------------------------------------------------

 SCF Done:  E(RHF) =  -669.536211141     A.U. after   15 cycles
 E2 =    -0.2091152226D+01 EUMP2 =    -0.67162736336676D+03

 The electronic state is 1-A.
 Alpha  occ. eigenvalues --  -20.61008 -20.61002 -15.86045 -11.31343 -11.27906
 Alpha  occ. eigenvalues --  -11.27898 -11.27636 -11.26906 -11.26896 -11.20555
 Alpha  occ. eigenvalues --  -11.20460 -11.20273 -11.20231 -11.20094 -11.19884
 Alpha  occ. eigenvalues --   -1.60066  -1.39624  -1.19509  -1.08916  -1.07256
 Alpha  occ. eigenvalues --   -1.04902  -1.02484  -0.95762  -0.94936  -0.86304
 Alpha  occ. eigenvalues --   -0.85959  -0.82599  -0.78530  -0.77657  -0.77015
 Alpha  occ. eigenvalues --   -0.72265  -0.71379  -0.70618  -0.65167  -0.64905
 Alpha  occ. eigenvalues --   -0.63888  -0.62250  -0.59895  -0.58307  -0.56537
 Alpha  occ. eigenvalues --   -0.55406  -0.54230  -0.53235  -0.52994  -0.51686
 Alpha  occ. eigenvalues --   -0.51358  -0.49061  -0.49015  -0.48854  -0.46853
 Alpha  occ. eigenvalues --   -0.45560  -0.45088  -0.44591  -0.44357  -0.42691
 Alpha  occ. eigenvalues --   -0.37486  -0.36503
 Alpha virt. eigenvalues --    0.04865   0.11153   0.16359   0.21268   0.23983
 Alpha virt. eigenvalues --    0.25268   0.27206   0.27641   0.28149   0.28749
 Alpha virt. eigenvalues --    0.29114   0.30901   0.32270   0.32475   0.32765

 Mulliken charges:
               1
     1  C   -0.170519
     2  C   -0.218490
     3  C   -0.170697
     4  C    0.157351
     5  C   -0.170385
     6  C   -0.218572
     7  H    0.226198
     8  H    0.223989
     9  H    0.275241
    10  H    0.276041
    11  H    0.224017
    12  N    0.493724
    13  O   -0.457982
    14  O   -0.465910
    15  C   -0.309853
    16  C   -0.298244
    17  C   -0.475027
    18  H    0.178271
    19  H    0.148422
    20  H    0.146508
    21  H    0.147206
    22  H    0.155079
    23  H    0.158859
    24  H    0.154082
    25  C   -0.297095
    26  C   -0.299481
    27  C   -0.475231
    28  H    0.143999
    29  H    0.144456
    30  H    0.159378
    31  H    0.152968
    32  H    0.152407
    33  H    0.151268
    34  H    0.158020
 Sum of Mulliken charges =  -0.00000

 Dipole moment (field-independent basis, Debye):
    X=              4.8627    Y=             -0.3808    Z=             -2.5231  Tot=              5.4916
 Quadrupole moment (field-independent basis, Debye-Ang):
   XX=            -71.1663   YY=            -95.0917   ZZ=            -94.4042
   XY=              0.5403   XZ=             -5.4183   YZ=              3.0178

 Normal termination of Gaussian 16 at Thu May  6 01:23:47 2021.
