 Gaussian 16, Revision A.03,
 Gaussian 16:  EM64L-G16RevA.03 25-Dec-2016

 -------------
 #p 6-31g* mp2
 -------------

 ------------------------------------------------------
 Input file generated by CHIRIPA (05-May-2021 14:51:10)
 ------------------------------------------------------
 Symbolic Z-matrix:
 Charge =  0 Multiplicity = 1

                         Standard orientation:
 ---------------------------------------------------------------------
 Center     Atomic      Atomic             Coordinates (Angstroms)
 Number     Number       Type             X           Y           Z
 ---------------------------------------------------------------------
      1          6           0        3.035479    1.239683   -0.187897
      2          6           0        1.639386    1.273975    0.434785
      3          6           0        0.819445    2.482289   -0.018499
      4          1           0        3.568584    2.164563    0.071605
      5          1           0        2.940967    1.230029   -1.282598
      6          1           0        1.736478    1.282164    1.528001
      7          1           0        1.109613    0.348821    0.173930
      8          1           0        0.693024    2.476026   -1.105964
      9          1           0        1.323451    3.414672    0.255802
     10          1           0       -0.174976    2.486987    0.438629
     11          6           0        3.867280    0.037553    0.255633
     12          6           0        5.263373    0.003261   -0.367049
     13          6           0        6.083315   -1.205054    0.086235
     14          1           0        3.961793    0.047207    1.350334
     15          1           0        3.334175   -0.887327   -0.003869
     16          1           0        5.793147    0.928415   -0.106193
     17          1           0        5.166281   -0.004928   -1.460265
     18          1           0        5.579309   -2.137437   -0.188066
     19          1           0        6.209736   -1.198790    1.173700
     20          1           0        7.077735   -1.209751   -0.370893
     21          6           0       -3.066201   -1.287477    0.084668
     22          6           0       -1.575554   -1.175121   -0.236789
     23          6           0       -0.818504   -2.481272    0.005364
     24          1           0       -3.186691   -1.593886    1.132783
     25          1           0       -3.506916   -2.086669   -0.527262
     26          1           0       -1.138070   -0.375450    0.374562
     27          1           0       -1.458601   -0.868758   -1.284205
     28          1           0       -1.227873   -3.284631   -0.615627
     29          1           0       -0.905521   -2.788521    1.052565
     30          1           0        0.245232   -2.378459   -0.230762
     31          6           0       -3.836559    0.010241   -0.152405
     32          6           0       -5.327204   -0.102114    0.169053
     33          6           0       -6.084255    1.204036   -0.073101
     34          1           0       -3.395844    0.809433    0.459525
     35          1           0       -3.716068    0.316650   -1.200518
     36          1           0       -5.444158   -0.408477    1.216469
     37          1           0       -5.764689   -0.901785   -0.442298
     38          1           0       -5.997238    1.511286   -1.120300
     39          1           0       -5.674886    2.007395    0.547892
     40          1           0       -7.147992    1.101223    0.163026
 ---------------------------------------------------------------------

 SCF Done:  E(RHF) =  -470.733086754     A.U. after   11 cycles
 E2 =    -0.1583310366D+01 EUMP2 =    -0.47231639711962D+03

 The electronic state is 1-A.
 Alpha  occ. eigenvalues --  -11.21607 -11.21597 -11.21595 -11.21538 -11.21415
 Alpha  occ. eigenvalues --  -11.21396 -11.21355 -11.21334 -11.21116 -11.21072
 Alpha  occ. eigenvalues --  -11.21065 -11.21054  -1.08456  -1.08403  -1.03580
 Alpha  occ. eigenvalues --   -1.03483  -0.96003  -0.95961  -0.87012  -0.86979
 Alpha  occ. eigenvalues --   -0.79689  -0.79514  -0.78323  -0.78164  -0.65135
 Alpha  occ. eigenvalues --   -0.65001  -0.61068  -0.60828  -0.59462  -0.59234
 Alpha  occ. eigenvalues --   -0.57668  -0.57516  -0.55296  -0.55236  -0.52718
 Alpha  occ. eigenvalues --   -0.52636  -0.52436  -0.52376  -0.49954  -0.49889
 Alpha  occ. eigenvalues --   -0.48015  -0.47831  -0.46811  -0.46474  -0.45910
 Alpha  occ. eigenvalues --   -0.45761  -0.45730  -0.45452  -0.43800  -0.43769
 Alpha virt. eigenvalues --    0.20964   0.22705   0.23688   0.24123   0.25759
 Alpha virt. eigenvalues --    0.26086   0.26913   0.27173   0.28664   0.29063
 Alpha virt. eigenvalues --    0.30989   0.31178   0.31706   0.31732   0.32519

 Mulliken charges:
               1
     1  C   -0.297652
     2  C   -0.308191
     3  C   -0.475734
     4  H    0.149484
     5  H    0.149349
     6  H    0.151054
     7  H    0.161641
     8  H    0.155468
     9  H    0.155064
    10  H    0.159930
    11  C   -0.298712
    12  C   -0.299639
    13  C   -0.475714
    14  H    0.149618
    15  H    0.149377
    16  H    0.152024
    17  H    0.151907
    18  H    0.155217
    19  H    0.155193
    20  H    0.160240
    21  C   -0.297846
    22  C   -0.305104
    23  C   -0.477580
    24  H    0.149654
    25  H    0.149431
    26  H    0.158280
    27  H    0.151541
    28  H    0.155569
    29  H    0.155800
    30  H    0.160290
    31  C   -0.298370
    32  C   -0.299682
    33  C   -0.475706
    34  H    0.149313
    35  H    0.149835
    36  H    0.151941
    37  H    0.151975
    38  H    0.155249
    39  H    0.155219
    40  H    0.160265
 Sum of Mulliken charges =  -0.00000

 Dipole moment (field-independent basis, Debye):
    X=             -0.0165    Y=             -0.0058    Z=             -0.0001  Tot=              0.0175
 Quadrupole moment (field-independent basis, Debye-Ang):
   XX=            -85.6596   YY=            -85.8879   ZZ=            -83.2846
   XY=              1.4288   XZ=              0.2150   YZ=              0.9964

 Normal termination of Gaussian 16 at Wed May  5 18:12:18 2021.
