 Gaussian 16, Revision A.03,
 Gaussian 16:  EM64L-G16RevA.03 25-Dec-2016

 -------------
 #p 6-31g* mp2
 -------------

 ------------------------------------------------------
 Input file generated by CHIRIPA (05-May-2021 14:53:18)
 ------------------------------------------------------
 Symbolic Z-matrix:
 Charge =  0 Multiplicity = 1

                         Standard orientation:
 ---------------------------------------------------------------------
 Center     Atomic      Atomic             Coordinates (Angstroms)
 Number     Number       Type             X           Y           Z
 ---------------------------------------------------------------------
      1          6           0       -2.494319    0.914897    0.332354
      2          6           0       -3.564626    0.004855   -0.271179
      3          6           0       -4.599569   -0.453030    0.756940
      4          1           0       -1.989789    0.383911    1.151162
      5          1           0       -2.979758    1.792539    0.781229
      6          1           0       -3.077203   -0.870129   -0.719998
      7          1           0       -4.066537    0.538000   -1.088771
      8          1           0       -5.112256    0.408248    1.197341
      9          1           0       -4.117301   -1.007881    1.568210
     10          1           0       -5.355189   -1.102514    0.304094
     11          6           0       -1.452499    1.380930   -0.683103
     12          6           0       -0.382192    2.290973   -0.079571
     13          6           0        0.652751    2.748858   -1.107689
     14          1           0       -0.967060    0.503289   -1.131979
     15          1           0       -1.957029    1.911916   -1.501912
     16          1           0        0.119719    1.757828    0.738022
     17          1           0       -0.869614    3.165956    0.369249
     18          1           0        0.170483    3.303709   -1.918959
     19          1           0        1.165438    1.887580   -1.548091
     20          1           0        1.408371    3.398342   -0.654844
     21          6           0       -0.202988   -2.541692   -0.648006
     22          6           0       -0.253236   -2.036746    0.655461
     23          6           0        0.708190   -1.124858    1.101185
     24          6           0        1.710398   -0.737787    0.212904
     25          6           0        1.787378   -1.223004   -1.091675
     26          6           0        0.815363   -2.133929   -1.515883
     27          1           0       -0.953959   -3.249695   -0.985899
     28          1           0       -1.042954   -2.351645    1.331648
     29          1           0        0.693038   -0.718175    2.105076
     30          1           0        2.586692   -0.890393   -1.742739
     31          1           0        0.856876   -2.524424   -2.528719
     32          7           0        2.733821    0.227078    0.673384
     33          8           0        3.606566    0.552298   -0.128605
     34          8           0        2.643856    0.639851    1.827577
 ---------------------------------------------------------------------

 SCF Done:  E(RHF) =  -669.533648670     A.U. after   15 cycles
 E2 =    -0.2100039106D+01 EUMP2 =    -0.67163368777569D+03

 The electronic state is 1-A.
 Alpha  occ. eigenvalues --  -20.60999 -20.60994 -15.85999 -11.31372 -11.27949
 Alpha  occ. eigenvalues --  -11.27929 -11.27688 -11.26977 -11.26963 -11.21980
 Alpha  occ. eigenvalues --  -11.21593 -11.21518 -11.21279 -11.21202 -11.20623
 Alpha  occ. eigenvalues --   -1.60042  -1.39599  -1.19588  -1.08968  -1.08487
 Alpha  occ. eigenvalues --   -1.04981  -1.03584  -0.96023  -0.95791  -0.87050
 Alpha  occ. eigenvalues --   -0.86361  -0.82627  -0.79672  -0.78280  -0.77650
 Alpha  occ. eigenvalues --   -0.72236  -0.71425  -0.70672  -0.65255  -0.65224
 Alpha  occ. eigenvalues --   -0.64943  -0.62315  -0.61010  -0.59418  -0.57599
 Alpha  occ. eigenvalues --   -0.55492  -0.55373  -0.53196  -0.53054  -0.52688
 Alpha  occ. eigenvalues --   -0.52435  -0.50025  -0.49005  -0.48995  -0.47978
 Alpha  occ. eigenvalues --   -0.46822  -0.45949  -0.45668  -0.44731  -0.43772
 Alpha  occ. eigenvalues --   -0.37482  -0.36480
 Alpha virt. eigenvalues --    0.04788   0.10877   0.16194   0.19993   0.23318
 Alpha virt. eigenvalues --    0.23740   0.25636   0.26717   0.27722   0.28011
 Alpha virt. eigenvalues --    0.29241   0.29642   0.31283   0.31870   0.32327

 Mulliken charges:
               1
     1  C   -0.295024
     2  C   -0.300931
     3  C   -0.474924
     4  H    0.142583
     5  H    0.150813
     6  H    0.145010
     7  H    0.154041
     8  H    0.159050
     9  H    0.147915
    10  H    0.159539
    11  C   -0.303172
    12  C   -0.307008
    13  C   -0.480231
    14  H    0.154552
    15  H    0.148049
    16  H    0.155017
    17  H    0.152580
    18  H    0.152516
    19  H    0.152086
    20  H    0.171257
    21  C   -0.172138
    22  C   -0.214878
    23  C   -0.172644
    24  C    0.162115
    25  C   -0.173623
    26  C   -0.218687
    27  H    0.227235
    28  H    0.225779
    29  H    0.276352
    30  H    0.276688
    31  H    0.225001
    32  N    0.491220
    33  O   -0.457486
    34  O   -0.458654
 Sum of Mulliken charges =  -0.00000

 Dipole moment (field-independent basis, Debye):
    X=             -3.3748    Y=             -3.4255    Z=             -1.6165  Tot=              5.0731
 Quadrupole moment (field-independent basis, Debye-Ang):
   XX=           -107.1630   YY=            -89.6719   ZZ=            -92.0066
   XY=             -4.0564   XZ=             -5.1582   YZ=              0.9568

 Normal termination of Gaussian 16 at Thu May  6 09:11:29 2021.
