 Gaussian 16, Revision A.03,
 Gaussian 16:  EM64L-G16RevA.03 25-Dec-2016

 -------------
 #p 6-31g* mp2
 -------------

 ------------------------------------------------------
 Input file generated by CHIRIPA (05-May-2021 14:57:25)
 ------------------------------------------------------
 Symbolic Z-matrix:
 Charge =  0 Multiplicity = 1

                         Standard orientation:
 ---------------------------------------------------------------------
 Center     Atomic      Atomic             Coordinates (Angstroms)
 Number     Number       Type             X           Y           Z
 ---------------------------------------------------------------------
      1          6           0        3.153283    2.314485   -0.499986
      2          6           0        2.372203    1.197373   -0.186148
      3          6           0        2.970808   -0.043638    0.050732
      4          6           0        4.359380   -0.132022   -0.034989
      5          6           0        5.164736    0.962618   -0.345562
      6          6           0        4.544603    2.193756   -0.578553
      7          1           0        2.679911    3.274697   -0.682490
      8          1           0        1.291467    1.288182   -0.124444
      9          1           0        2.390076   -0.924676    0.295558
     10          1           0        6.239763    0.841003   -0.399819
     11          1           0        5.153711    3.059621   -0.822089
     12          7           0        5.004491   -1.440598    0.213726
     13          8           0        6.229769   -1.492215    0.132083
     14          8           0        4.272636   -2.389865    0.485604
     15          6           0       -1.827377    0.153496    0.728482
     16          6           0       -2.823546    0.750590    1.507999
     17          6           0       -4.170782    0.625761    1.155976
     18          6           0       -4.487564   -0.106574    0.012899
     19          6           0       -3.517995   -0.713150   -0.784154
     20          6           0       -2.177165   -0.575183   -0.413094
     21          1           0       -0.783299    0.255569    1.009336
     22          1           0       -2.554829    1.317079    2.395089
     23          1           0       -4.962224    1.077708    1.741452
     24          1           0       -3.816779   -1.271681   -1.662897
     25          1           0       -1.405648   -1.039975   -1.020364
     26          7           0       -5.910431   -0.245678   -0.369848
     27          8           0       -6.163417   -0.896077   -1.381588
     28          8           0       -6.745748    0.298324    0.349140
 ---------------------------------------------------------------------

 SCF Done:  E(RHF) =  -868.336707800     A.U. after   16 cycles
 E2 =    -0.2599674532D+01 EUMP2 =    -0.87093638233260D+03

 The electronic state is 1-A.
 Alpha  occ. eigenvalues --  -20.61422 -20.61409 -20.61173 -20.61168 -15.86479
 Alpha  occ. eigenvalues --  -15.86230 -11.31966 -11.31736 -11.28642 -11.28507
 Alpha  occ. eigenvalues --  -11.28304 -11.28293 -11.28289 -11.28198 -11.27696
 Alpha  occ. eigenvalues --  -11.27517 -11.27407 -11.27387  -1.60492  -1.60245
 Alpha  occ. eigenvalues --   -1.40043  -1.39794  -1.20156  -1.19925  -1.09518
 Alpha  occ. eigenvalues --   -1.09325  -1.05599  -1.05335  -0.96333  -0.96133
 Alpha  occ. eigenvalues --   -0.86981  -0.86743  -0.83189  -0.82942  -0.78218
 Alpha  occ. eigenvalues --   -0.77945  -0.72693  -0.72447  -0.71818  -0.71568
 Alpha  occ. eigenvalues --   -0.71257  -0.71113  -0.65813  -0.65640  -0.65579
 Alpha  occ. eigenvalues --   -0.65335  -0.62959  -0.62666  -0.56114  -0.55892
 Alpha  occ. eigenvalues --   -0.53892  -0.53733  -0.53616  -0.53434  -0.49461
 Alpha  occ. eigenvalues --   -0.49442  -0.49218  -0.49192  -0.45422  -0.45167
 Alpha  occ. eigenvalues --   -0.38116  -0.37959  -0.37204  -0.36923
 Alpha virt. eigenvalues --    0.04349   0.04544   0.10450   0.10707   0.15779
 Alpha virt. eigenvalues --    0.15880   0.17932   0.21964   0.24773   0.26749
 Alpha virt. eigenvalues --    0.27537   0.29257   0.29854   0.31576   0.31994

 Mulliken charges:
               1
     1  C   -0.170288
     2  C   -0.222793
     3  C   -0.171920
     4  C    0.159310
     5  C   -0.169588
     6  C   -0.218130
     7  H    0.228417
     8  H    0.218152
     9  H    0.271106
    10  H    0.278307
    11  H    0.226539
    12  N    0.488117
    13  O   -0.457620
    14  O   -0.460523
    15  C   -0.176674
    16  C   -0.217925
    17  C   -0.170450
    18  C    0.159645
    19  C   -0.170139
    20  C   -0.218421
    21  H    0.220251
    22  H    0.224929
    23  H    0.277472
    24  H    0.278120
    25  H    0.223662
    26  N    0.487874
    27  O   -0.458523
    28  O   -0.458908
 Sum of Mulliken charges =  -0.00000

 Dipole moment (field-independent basis, Debye):
    X=              2.7646    Y=              5.1365    Z=              0.4222  Tot=              5.8485
 Quadrupole moment (field-independent basis, Debye-Ang):
   XX=           -163.6927   YY=           -104.6384   ZZ=           -102.4933
   XY=             19.4183   XZ=            -11.9787   YZ=              1.9473

 Normal termination of Gaussian 16 at Thu May  6 14:42:46 2021.
