 Gaussian 16, Revision A.03,
 Gaussian 16:  EM64L-G16RevA.03 25-Dec-2016

 -------------
 #p 6-31g* mp2
 -------------

 ------------------------------------------------------
 Input file generated by CHIRIPA (05-May-2021 14:53:13)
 ------------------------------------------------------
 Symbolic Z-matrix:
 Charge =  0 Multiplicity = 1

                         Standard orientation:
 ---------------------------------------------------------------------
 Center     Atomic      Atomic             Coordinates (Angstroms)
 Number     Number       Type             X           Y           Z
 ---------------------------------------------------------------------
      1          6           0       -4.011762   -0.431282    0.382379
      2          6           0       -2.840585    0.424695    0.865734
      3          6           0       -1.559112   -0.385193    1.064992
      4          1           0       -4.193810   -1.235687    1.108145
      5          1           0       -3.734776   -0.919402   -0.562296
      6          1           0       -3.120204    0.912148    1.808506
      7          1           0       -2.661427    1.227270    0.138829
      8          1           0       -1.253130   -0.859169    0.126737
      9          1           0       -1.714514   -1.176082    1.805901
     10          1           0       -0.734753    0.246304    1.410685
     11          6           0       -5.299948    0.364182    0.178554
     12          6           0       -6.471125   -0.491795   -0.304801
     13          6           0       -7.752598    0.318093   -0.504059
     14          1           0       -5.576934    0.852302    1.123230
     15          1           0       -5.117900    1.168587   -0.547212
     16          1           0       -6.650283   -1.294370    0.422104
     17          1           0       -6.191506   -0.979248   -1.247573
     18          1           0       -7.597196    1.108982   -1.244967
     19          1           0       -8.058579    0.792069    0.434197
     20          1           0       -8.576957   -0.313404   -0.849752
     21          6           0        6.070217   -0.013969    0.448453
     22          6           0        5.388298   -1.212870    0.215765
     23          6           0        4.040235   -1.202598   -0.154595
     24          6           0        3.402190    0.030095   -0.283653
     25          6           0        4.054286    1.241481   -0.058696
     26          6           0        5.402212    1.207228    0.310723
     27          1           0        7.117371   -0.031263    0.735792
     28          1           0        5.904536   -2.162746    0.321973
     29          1           0        3.488213   -2.115844   -0.340801
     30          1           0        3.512868    2.172785   -0.172529
     31          1           0        5.929272    2.139872    0.490795
     32          7           0        1.975128    0.053664   -0.675237
     33          8           0        1.435640    1.152821   -0.782219
     34          8           0        1.423105   -1.027465   -0.867767
 ---------------------------------------------------------------------

 SCF Done:  E(RHF) =  -669.536180921     A.U. after   15 cycles
 E2 =    -0.2091432199D+01 EUMP2 =    -0.67162761311935D+03

 The electronic state is 1-A.
 Alpha  occ. eigenvalues --  -20.60950 -20.60936 -15.85957 -11.31288 -11.27849
 Alpha  occ. eigenvalues --  -11.27845 -11.27587 -11.26856 -11.26847 -11.20876
 Alpha  occ. eigenvalues --  -11.20498 -11.20471 -11.20279 -11.20197 -11.19265
 Alpha  occ. eigenvalues --   -1.59989  -1.39547  -1.19454  -1.08858  -1.07408
 Alpha  occ. eigenvalues --   -1.04850  -1.02426  -0.95703  -0.94860  -0.86251
 Alpha  occ. eigenvalues --   -0.85883  -0.82534  -0.78537  -0.77586  -0.77182
 Alpha  occ. eigenvalues --   -0.72183  -0.71301  -0.70563  -0.65109  -0.64855
 Alpha  occ. eigenvalues --   -0.64043  -0.62197  -0.59816  -0.58310  -0.56468
 Alpha  occ. eigenvalues --   -0.55361  -0.54149  -0.53182  -0.52942  -0.51567
 Alpha  occ. eigenvalues --   -0.51300  -0.49205  -0.48935  -0.48523  -0.46832
 Alpha  occ. eigenvalues --   -0.45569  -0.44975  -0.44698  -0.44562  -0.42697
 Alpha  occ. eigenvalues --   -0.37431  -0.36451
 Alpha virt. eigenvalues --    0.04928   0.11204   0.16422   0.21339   0.23832
 Alpha virt. eigenvalues --    0.25481   0.27256   0.27653   0.28211   0.28471
 Alpha virt. eigenvalues --    0.29202   0.30915   0.32409   0.32564   0.32698

 Mulliken charges:
               1
     1  C   -0.297956
     2  C   -0.299784
     3  C   -0.477591
     4  H    0.145902
     5  H    0.151526
     6  H    0.144201
     7  H    0.156232
     8  H    0.178927
     9  H    0.142740
    10  H    0.156624
    11  C   -0.297515
    12  C   -0.298942
    13  C   -0.475148
    14  H    0.146977
    15  H    0.149626
    16  H    0.150288
    17  H    0.151862
    18  H    0.154716
    19  H    0.153813
    20  H    0.158048
    21  C   -0.170585
    22  C   -0.218573
    23  C   -0.170664
    24  C    0.158895
    25  C   -0.170887
    26  C   -0.218580
    27  H    0.225964
    28  H    0.223826
    29  H    0.275941
    30  H    0.275770
    31  H    0.223789
    32  N    0.488921
    33  O   -0.459775
    34  O   -0.458585
 Sum of Mulliken charges =  -0.00000

 Dipole moment (field-independent basis, Debye):
    X=              5.3871    Y=             -0.0934    Z=              1.2208  Tot=              5.5244
 Quadrupole moment (field-independent basis, Debye-Ang):
   XX=            -63.3340   YY=            -89.9549   ZZ=            -95.8625
   XY=              0.3668   XZ=              3.3265   YZ=              0.2574

 Normal termination of Gaussian 16 at Thu May  6 15:20:47 2021.
