 Gaussian 16, Revision A.03,
 Gaussian 16:  EM64L-G16RevA.03 25-Dec-2016

 -------------
 #p 6-31g* mp2
 -------------

 ------------------------------------------------------
 Input file generated by CHIRIPA (05-May-2021 14:51:09)
 ------------------------------------------------------
 Symbolic Z-matrix:
 Charge =  0 Multiplicity = 1

                         Standard orientation:
 ---------------------------------------------------------------------
 Center     Atomic      Atomic             Coordinates (Angstroms)
 Number     Number       Type             X           Y           Z
 ---------------------------------------------------------------------
      1          6           0       -4.204041   -0.464438   -0.110586
      2          6           0       -3.637993   -1.882658   -0.031673
      3          6           0       -4.728656   -2.953933   -0.006800
      4          1           0       -4.868485   -0.293406    0.747440
      5          1           0       -4.827288   -0.375469   -1.011165
      6          1           0       -3.014881   -1.968520    0.867757
      7          1           0       -2.974670   -2.050269   -0.889884
      8          1           0       -5.345157   -2.897072   -0.909736
      9          1           0       -5.385596   -2.814858    0.857891
     10          1           0       -4.301837   -3.960157    0.049765
     11          6           0       -3.125943    0.617584   -0.136247
     12          6           0       -3.691991    2.035804   -0.215159
     13          6           0       -2.601328    3.107079   -0.240033
     14          1           0       -2.502696    0.528615    0.764332
     15          1           0       -2.461500    0.446552   -0.994273
     16          1           0       -4.355314    2.203415    0.643051
     17          1           0       -4.315103    2.121666   -1.114590
     18          1           0       -1.944388    2.968004   -1.104724
     19          1           0       -1.984828    3.050218    0.662904
     20          1           0       -3.028147    4.113303   -0.296598
     21          6           0        2.937566   -0.305829    0.081893
     22          6           0        1.952068    0.689929    0.694468
     23          6           0        0.500830    0.217196    0.603763
     24          1           0        2.670890   -0.475822   -0.970216
     25          1           0        2.833853   -1.274046    0.591003
     26          1           0        2.058578    1.656367    0.185283
     27          1           0        2.221235    0.857717    1.745188
     28          1           0        0.372473   -0.735334    1.127988
     29          1           0        0.208891    0.067853   -0.440780
     30          1           0       -0.186641    0.944022    1.047572
     31          6           0        4.392419    0.152683    0.164940
     32          6           0        5.377916   -0.843074   -0.447635
     33          6           0        6.829154   -0.370342   -0.356930
     34          1           0        4.496131    1.120900   -0.344170
     35          1           0        4.659094    0.322676    1.217048
     36          1           0        5.108749   -1.010864   -1.498355
     37          1           0        5.271406   -1.809512    0.061550
     38          1           0        7.121094   -0.220998    0.687613
     39          1           0        6.957512    0.582188   -0.881155
     40          1           0        7.516625   -1.097167   -0.800739
 ---------------------------------------------------------------------

 SCF Done:  E(RHF) =  -470.732267623     A.U. after   11 cycles
 E2 =    -0.1583492987D+01 EUMP2 =    -0.47231576061081D+03

 The electronic state is 1-A.
 Alpha  occ. eigenvalues --  -11.21584 -11.21551 -11.21540 -11.21533 -11.21375
 Alpha  occ. eigenvalues --  -11.21315 -11.21310 -11.21218 -11.21064 -11.21058
 Alpha  occ. eigenvalues --  -11.21029 -11.20959  -1.08408  -1.08352  -1.03516
 Alpha  occ. eigenvalues --   -1.03459  -0.95973  -0.95901  -0.87017  -0.86904
 Alpha  occ. eigenvalues --   -0.79657  -0.79481  -0.78267  -0.78081  -0.65044
 Alpha  occ. eigenvalues --   -0.64993  -0.60905  -0.60883  -0.59469  -0.59160
 Alpha  occ. eigenvalues --   -0.57595  -0.57500  -0.55270  -0.55185  -0.52791
 Alpha  occ. eigenvalues --   -0.52595  -0.52411  -0.52254  -0.49927  -0.49845
 Alpha  occ. eigenvalues --   -0.47924  -0.47808  -0.46621  -0.46561  -0.45860
 Alpha  occ. eigenvalues --   -0.45706  -0.45645  -0.45536  -0.43732  -0.43596
 Alpha virt. eigenvalues --    0.21610   0.23088   0.23555   0.24961   0.25337
 Alpha virt. eigenvalues --    0.26188   0.26801   0.27429   0.27955   0.29676
 Alpha virt. eigenvalues --    0.30030   0.31107   0.31748   0.31995   0.32235

 Mulliken charges:
               1
     1  C   -0.297906
     2  C   -0.299540
     3  C   -0.475622
     4  H    0.148988
     5  H    0.148818
     6  H    0.152213
     7  H    0.151760
     8  H    0.155013
     9  H    0.154992
    10  H    0.160008
    11  C   -0.301461
    12  C   -0.299751
    13  C   -0.476507
    14  H    0.155618
    15  H    0.150471
    16  H    0.151381
    17  H    0.151450
    18  H    0.155350
    19  H    0.155238
    20  H    0.160135
    21  C   -0.298501
    22  C   -0.300566
    23  C   -0.476815
    24  H    0.149317
    25  H    0.149345
    26  H    0.151935
    27  H    0.151180
    28  H    0.153973
    29  H    0.156329
    30  H    0.163386
    31  C   -0.298174
    32  C   -0.299565
    33  C   -0.475672
    34  H    0.149474
    35  H    0.149550
    36  H    0.151831
    37  H    0.151859
    38  H    0.155143
    39  H    0.155157
    40  H    0.160170
 Sum of Mulliken charges =  -0.00000

 Dipole moment (field-independent basis, Debye):
    X=             -0.0043    Y=              0.0038    Z=              0.0029  Tot=              0.0064
 Quadrupole moment (field-independent basis, Debye-Ang):
   XX=            -86.7365   YY=            -85.4968   ZZ=            -82.8894
   XY=             -0.8714   XZ=              0.0466   YZ=             -0.3578

 Normal termination of Gaussian 16 at Thu May  6 05:18:37 2021.
