 Gaussian 16, Revision A.03,
 Gaussian 16:  EM64L-G16RevA.03 25-Dec-2016

 -------------
 #p 6-31g* mp2
 -------------

 ------------------------------------------------------
 Input file generated by CHIRIPA (05-May-2021 14:55:23)
 ------------------------------------------------------
 Symbolic Z-matrix:
 Charge =  0 Multiplicity = 1

                         Standard orientation:
 ---------------------------------------------------------------------
 Center     Atomic      Atomic             Coordinates (Angstroms)
 Number     Number       Type             X           Y           Z
 ---------------------------------------------------------------------
      1          6           0       -2.100204   -0.319111    2.579131
      2          6           0       -2.301563   -1.526695    1.902585
      3          6           0       -2.461664   -1.544372    0.513843
      4          6           0       -2.414696   -0.330469   -0.169915
      5          6           0       -2.215653    0.888925    0.475645
      6          6           0       -2.057966    0.882727    1.864762
      7          1           0       -1.976772   -0.314653    3.658085
      8          1           0       -2.334818   -2.461583    2.454785
      9          1           0       -2.618940   -2.464906   -0.035064
     10          1           0       -2.187265    1.804805   -0.102089
     11          1           0       -1.901734    1.822055    2.387541
     12          7           0       -2.582910   -0.336545   -1.640312
     13          8           0       -2.537511    0.746466   -2.219677
     14          8           0       -2.756969   -1.424202   -2.185602
     15          6           0        3.584142   -0.013858    0.245019
     16          6           0        4.036399   -1.194683   -0.614693
     17          6           0        5.094512   -2.056725    0.074562
     18          1           0        4.456868    0.604692    0.495401
     19          1           0        3.186491   -0.393130    1.196555
     20          1           0        4.431802   -0.813371   -1.564889
     21          1           0        3.162466   -1.810388   -0.863217
     22          1           0        4.707028   -2.464721    1.013708
     23          1           0        5.983576   -1.462041    0.308050
     24          1           0        5.403489   -2.895013   -0.557628
     25          6           0        2.526506    0.857296   -0.430425
     26          6           0        2.074251    2.038121    0.429286
     27          6           0        1.016137    2.900164   -0.259968
     28          1           0        2.924157    1.236568   -1.381961
     29          1           0        1.653781    0.238746   -0.680807
     30          1           0        2.948183    2.653826    0.677811
     31          1           0        1.678847    1.656811    1.379483
     32          1           0        0.127072    2.305479   -0.493456
     33          1           0        1.403621    3.308161   -1.199115
     34          1           0        0.707159    3.738453    0.372222
 ---------------------------------------------------------------------

 SCF Done:  E(RHF) =  -669.535267788     A.U. after   15 cycles
 E2 =    -0.2092454170D+01 EUMP2 =    -0.67162772195837D+03

 The electronic state is 1-A.
 Alpha  occ. eigenvalues --  -20.60837 -20.60831 -15.85887 -11.31271 -11.27839
 Alpha  occ. eigenvalues --  -11.27821 -11.27581 -11.26854 -11.26844 -11.21759
 Alpha  occ. eigenvalues --  -11.21598 -11.21447 -11.21376 -11.21223 -11.21109
 Alpha  occ. eigenvalues --   -1.59909  -1.39462  -1.19448  -1.08835  -1.08487
 Alpha  occ. eigenvalues --   -1.04852  -1.03612  -0.96071  -0.95664  -0.87091
 Alpha  occ. eigenvalues --   -0.86243  -0.82493  -0.79678  -0.78289  -0.77541
 Alpha  occ. eigenvalues --   -0.72102  -0.71234  -0.70559  -0.65140  -0.65086
 Alpha  occ. eigenvalues --   -0.64844  -0.62242  -0.60989  -0.59439  -0.57671
 Alpha  occ. eigenvalues --   -0.55474  -0.55249  -0.53170  -0.52971  -0.52773
 Alpha  occ. eigenvalues --   -0.52436  -0.49985  -0.48863  -0.48858  -0.47984
 Alpha  occ. eigenvalues --   -0.46702  -0.45832  -0.45755  -0.44851  -0.43866
 Alpha  occ. eigenvalues --   -0.37422  -0.36415
 Alpha virt. eigenvalues --    0.04958   0.11100   0.16446   0.21025   0.22841
 Alpha virt. eigenvalues --    0.24188   0.26280   0.26826   0.27251   0.27968
 Alpha virt. eigenvalues --    0.29053   0.30113   0.31447   0.31683   0.31812

 Mulliken charges:
               1
     1  C   -0.171154
     2  C   -0.218363
     3  C   -0.171285
     4  C    0.157888
     5  C   -0.171637
     6  C   -0.218631
     7  H    0.226026
     8  H    0.223765
     9  H    0.275872
    10  H    0.278050
    11  H    0.224860
    12  N    0.488459
    13  O   -0.460582
    14  O   -0.459991
    15  C   -0.298124
    16  C   -0.299972
    17  C   -0.475614
    18  H    0.149162
    19  H    0.146917
    20  H    0.153710
    21  H    0.153333
    22  H    0.153298
    23  H    0.154964
    24  H    0.161122
    25  C   -0.298264
    26  C   -0.298849
    27  C   -0.481118
    28  H    0.152383
    29  H    0.151632
    30  H    0.151951
    31  H    0.147238
    32  H    0.158082
    33  H    0.161003
    34  H    0.153867
 Sum of Mulliken charges =  -0.00000

 Dipole moment (field-independent basis, Debye):
    X=              0.5709    Y=             -0.0190    Z=              5.1143  Tot=              5.1461
 Quadrupole moment (field-independent basis, Debye-Ang):
   XX=            -98.4034   YY=            -90.1575   ZZ=            -97.0485
   XY=              1.3261   XZ=            -13.6008   YZ=             -1.9391

 Normal termination of Gaussian 16 at Thu May  6 09:27:16 2021.
