 Gaussian 16, Revision A.03,
 Gaussian 16:  EM64L-G16RevA.03 25-Dec-2016

 -------------
 #p 6-31g* mp2
 -------------

 ------------------------------------------------------
 Input file generated by CHIRIPA (05-May-2021 14:55:20)
 ------------------------------------------------------
 Symbolic Z-matrix:
 Charge =  0 Multiplicity = 1

                         Standard orientation:
 ---------------------------------------------------------------------
 Center     Atomic      Atomic             Coordinates (Angstroms)
 Number     Number       Type             X           Y           Z
 ---------------------------------------------------------------------
      1          6           0       -4.065319   -1.468922    0.374154
      2          6           0       -4.285895   -0.473777   -0.583736
      3          6           0       -3.412366    0.612257   -0.693404
      4          6           0       -2.323413    0.671720    0.174891
      5          6           0       -2.076770   -0.303938    1.139541
      6          6           0       -2.963404   -1.380981    1.231225
      7          1           0       -4.748988   -2.309087    0.452362
      8          1           0       -5.140833   -0.539468   -1.250677
      9          1           0       -3.559411    1.396633   -1.425899
     10          1           0       -1.215839   -0.211015    1.790372
     11          1           0       -2.789616   -2.152360    1.976085
     12          7           0       -1.391711    1.816696    0.068310
     13          8           0       -0.439676    1.845918    0.845106
     14          8           0       -1.631119    2.663226   -0.790007
     15          6           0        3.728315   -0.474643    0.255325
     16          6           0        4.916859    0.268357   -0.355656
     17          6           0        6.024584    0.548423    0.660367
     18          1           0        3.323197    0.116566    1.087969
     19          1           0        4.079638   -1.422224    0.686668
     20          1           0        4.563169    1.213616   -0.786940
     21          1           0        5.319074   -0.324599   -1.187064
     22          1           0        6.405220   -0.387058    1.082972
     23          1           0        5.645019    1.159898    1.485370
     24          1           0        6.864368    1.080249    0.202345
     25          6           0        2.612726   -0.761872   -0.748015
     26          6           0        1.424182   -1.504873   -0.137034
     27          6           0        0.316457   -1.784938   -1.153056
     28          1           0        2.261403    0.185709   -1.179358
     29          1           0        3.017844   -1.353082   -1.580658
     30          1           0        1.021967   -0.911916    0.694376
     31          1           0        1.777872   -2.450131    0.294250
     32          1           0        0.696022   -2.396413   -1.978059
     33          1           0       -0.064179   -0.849458   -1.575661
     34          1           0       -0.523326   -2.316764   -0.695033
 ---------------------------------------------------------------------

 SCF Done:  E(RHF) =  -669.535213371     A.U. after   15 cycles
 E2 =    -0.2094044688D+01 EUMP2 =    -0.67162925805982D+03

 The electronic state is 1-A.
 Alpha  occ. eigenvalues --  -20.60923 -20.60917 -15.85954 -11.31232 -11.27826
 Alpha  occ. eigenvalues --  -11.27809 -11.27572 -11.26823 -11.26813 -11.21301
 Alpha  occ. eigenvalues --  -11.21054 -11.20873 -11.20868 -11.20800 -11.20588
 Alpha  occ. eigenvalues --   -1.59986  -1.39542  -1.19430  -1.08838  -1.07949
 Alpha  occ. eigenvalues --   -1.04831  -1.03130  -0.95697  -0.95563  -0.86598
 Alpha  occ. eigenvalues --   -0.86230  -0.82517  -0.79208  -0.77778  -0.77550
 Alpha  occ. eigenvalues --   -0.72179  -0.71316  -0.70550  -0.65092  -0.64857
 Alpha  occ. eigenvalues --   -0.64534  -0.62194  -0.60520  -0.58989  -0.57213
 Alpha  occ. eigenvalues --   -0.55340  -0.54920  -0.53182  -0.52920  -0.52188
 Alpha  occ. eigenvalues --   -0.51991  -0.49505  -0.48943  -0.48930  -0.47525
 Alpha  occ. eigenvalues --   -0.46220  -0.45340  -0.45195  -0.44883  -0.43352
 Alpha  occ. eigenvalues --   -0.37381  -0.36372
 Alpha virt. eigenvalues --    0.04925   0.11150   0.16411   0.21048   0.23263
 Alpha virt. eigenvalues --    0.24485   0.26152   0.27302   0.27719   0.28319
 Alpha virt. eigenvalues --    0.28902   0.30396   0.31614   0.31855   0.32064

 Mulliken charges:
               1
     1  C   -0.170309
     2  C   -0.218094
     3  C   -0.171328
     4  C    0.160208
     5  C   -0.166563
     6  C   -0.220137
     7  H    0.226045
     8  H    0.223750
     9  H    0.275762
    10  H    0.276506
    11  H    0.224038
    12  N    0.488473
    13  O   -0.461963
    14  O   -0.459551
    15  C   -0.299447
    16  C   -0.300088
    17  C   -0.475788
    18  H    0.156146
    19  H    0.145046
    20  H    0.156427
    21  H    0.149380
    22  H    0.152672
    23  H    0.156939
    24  H    0.159218
    25  C   -0.297464
    26  C   -0.305423
    27  C   -0.477355
    28  H    0.158515
    29  H    0.146454
    30  H    0.155736
    31  H    0.147276
    32  H    0.154009
    33  H    0.154398
    34  H    0.156510
 Sum of Mulliken charges =  -0.00000

 Dipole moment (field-independent basis, Debye):
    X=             -3.4007    Y=             -3.8767    Z=              0.3971  Tot=              5.1722
 Quadrupole moment (field-independent basis, Debye-Ang):
   XX=            -79.1900   YY=            -99.6781   ZZ=            -92.5544
   XY=              5.9398   XZ=              0.2767   YZ=             -2.1839

 Normal termination of Gaussian 16 at Thu May  6 19:06:43 2021.
