 Gaussian 16, Revision A.03,
 Gaussian 16:  EM64L-G16RevA.03 25-Dec-2016

 -------------
 #p 6-31g* mp2
 -------------

 ------------------------------------------------------
 Input file generated by CHIRIPA (05-May-2021 14:55:21)
 ------------------------------------------------------
 Symbolic Z-matrix:
 Charge =  0 Multiplicity = 1

                         Standard orientation:
 ---------------------------------------------------------------------
 Center     Atomic      Atomic             Coordinates (Angstroms)
 Number     Number       Type             X           Y           Z
 ---------------------------------------------------------------------
      1          6           0       -1.872187    2.088506    0.625747
      2          6           0       -2.485694    1.890581   -0.615605
      3          6           0       -3.125595    0.682140   -0.906713
      4          6           0       -3.132938   -0.311335    0.071164
      5          6           0       -2.530637   -0.144351    1.317214
      6          6           0       -1.896573    1.072200    1.586501
      7          1           0       -1.377364    3.030402    0.843412
      8          1           0       -2.468323    2.678092   -1.363650
      9          1           0       -3.608449    0.502253   -1.859557
     10          1           0       -2.564476   -0.947992    2.042772
     11          1           0       -1.420944    1.223116    2.551408
     12          7           0       -3.807282   -1.594950   -0.225469
     13          8           0       -3.799802   -2.454489    0.653037
     14          8           0       -4.330545   -1.717203   -1.330859
     15          6           0        4.125500   -0.589254   -0.208686
     16          6           0        5.599755   -0.734626    0.170027
     17          6           0        6.100441   -2.174717    0.054934
     18          1           0        3.521625   -1.241609    0.436848
     19          1           0        3.981358   -0.947432   -1.237436
     20          1           0        5.741323   -0.374992    1.197274
     21          1           0        6.200171   -0.081705   -0.476356
     22          1           0        5.988068   -2.540833   -0.970704
     23          1           0        5.526612   -2.835786    0.712437
     24          1           0        7.156598   -2.255769    0.330290
     25          6           0        3.610302    0.844689   -0.098649
     26          6           0        2.136046    0.990060   -0.477362
     27          6           0        1.635362    2.430152   -0.362270
     28          1           0        3.754443    1.202866    0.930101
     29          1           0        4.214176    1.497043   -0.744184
     30          1           0        1.535630    0.337139    0.169021
     31          1           0        1.994478    0.630427   -1.504609
     32          1           0        2.209189    3.091221   -1.019772
     33          1           0        1.747733    2.796267    0.663368
     34          1           0        0.579204    2.511203   -0.637626
 ---------------------------------------------------------------------

 SCF Done:  E(RHF) =  -669.534754026     A.U. after   15 cycles
 E2 =    -0.2092384474D+01 EUMP2 =    -0.67162713850047D+03

 The electronic state is 1-A.
 Alpha  occ. eigenvalues --  -20.60783 -20.60778 -15.85840 -11.31210 -11.27817
 Alpha  occ. eigenvalues --  -11.27808 -11.27529 -11.26807 -11.26796 -11.22049
 Alpha  occ. eigenvalues --  -11.21827 -11.21765 -11.21729 -11.21634 -11.21225
 Alpha  occ. eigenvalues --   -1.59859  -1.39413  -1.19408  -1.08824  -1.08749
 Alpha  occ. eigenvalues --   -1.04813  -1.03898  -0.96383  -0.95619  -0.87399
 Alpha  occ. eigenvalues --   -0.86209  -0.82458  -0.79963  -0.78562  -0.77499
 Alpha  occ. eigenvalues --   -0.72058  -0.71184  -0.70532  -0.65405  -0.65061
 Alpha  occ. eigenvalues --   -0.64815  -0.62159  -0.61300  -0.59794  -0.57989
 Alpha  occ. eigenvalues --   -0.55704  -0.55288  -0.53423  -0.52906  -0.52901
 Alpha  occ. eigenvalues --   -0.52605  -0.50307  -0.48817  -0.48811  -0.48277
 Alpha  occ. eigenvalues --   -0.46985  -0.46111  -0.46025  -0.44817  -0.44163
 Alpha  occ. eigenvalues --   -0.37296  -0.36417
 Alpha virt. eigenvalues --    0.05031   0.11115   0.16489   0.20891   0.22646
 Alpha virt. eigenvalues --    0.24155   0.26264   0.26849   0.26976   0.27390
 Alpha virt. eigenvalues --    0.28910   0.30644   0.31070   0.31293   0.31908

 Mulliken charges:
               1
     1  C   -0.167761
     2  C   -0.220068
     3  C   -0.170201
     4  C    0.158212
     5  C   -0.170853
     6  C   -0.220445
     7  H    0.229151
     8  H    0.223991
     9  H    0.275906
    10  H    0.275781
    11  H    0.223605
    12  N    0.488167
    13  O   -0.460498
    14  O   -0.460395
    15  C   -0.298641
    16  C   -0.299836
    17  C   -0.475943
    18  H    0.150366
    19  H    0.151102
    20  H    0.151318
    21  H    0.152039
    22  H    0.156151
    23  H    0.155931
    24  H    0.160718
    25  C   -0.298547
    26  C   -0.298750
    27  C   -0.480182
    28  H    0.147902
    29  H    0.150065
    30  H    0.153630
    31  H    0.154389
    32  H    0.156295
    33  H    0.148946
    34  H    0.158457
 Sum of Mulliken charges =  -0.00000

 Dipole moment (field-independent basis, Debye):
    X=              2.3850    Y=              4.4616    Z=              1.0312  Tot=              5.1631
 Quadrupole moment (field-independent basis, Debye-Ang):
   XX=           -110.1879   YY=            -98.7479   ZZ=            -89.6203
   XY=            -15.2134   XZ=             -2.1877   YZ=             -1.9631

 Normal termination of Gaussian 16 at Thu May  6 04:34:18 2021.
