 Gaussian 16, Revision A.03,
 Gaussian 16:  EM64L-G16RevA.03 25-Dec-2016

 -------------
 #p 6-31g* mp2
 -------------

 ------------------------------------------------------
 Input file generated by CHIRIPA (05-May-2021 14:57:22)
 ------------------------------------------------------
 Symbolic Z-matrix:
 Charge =  0 Multiplicity = 1

                         Standard orientation:
 ---------------------------------------------------------------------
 Center     Atomic      Atomic             Coordinates (Angstroms)
 Number     Number       Type             X           Y           Z
 ---------------------------------------------------------------------
      1          6           0       -1.935402   -2.102542    0.092570
      2          6           0       -3.126393   -2.185382    0.821405
      3          6           0       -4.058997   -1.144737    0.778345
      4          6           0       -3.766994   -0.030935   -0.007447
      5          6           0       -2.589314    0.081128   -0.744876
      6          6           0       -1.671130   -0.971545   -0.686870
      7          1           0       -1.216534   -2.915612    0.131826
      8          1           0       -3.334284   -3.062523    1.427582
      9          1           0       -4.988904   -1.182814    1.332639
     10          1           0       -2.410049    0.968213   -1.340160
     11          1           0       -0.747018   -0.904479   -1.253935
     12          7           0       -4.746668    1.077117   -0.060944
     13          8           0       -4.465798    2.047649   -0.760812
     14          8           0       -5.776856    0.954093    0.598006
     15          6           0        3.372104    2.703258    0.334505
     16          6           0        2.316447    1.969189   -0.216177
     17          6           0        2.434684    0.589253   -0.406815
     18          6           0        3.628099   -0.027140   -0.033841
     19          6           0        4.697727    0.676768    0.517250
     20          6           0        4.557285    2.055846    0.698820
     21          1           0        3.271631    3.774893    0.479075
     22          1           0        1.394856    2.469329   -0.500033
     23          1           0        1.633180   -0.003271   -0.830991
     24          1           0        5.604145    0.150293    0.790466
     25          1           0        5.378773    2.623394    1.126712
     26          7           0        3.765025   -1.487563   -0.230861
     27          8           0        4.826784   -2.007041    0.105957
     28          8           0        2.807995   -2.085110   -0.718371
 ---------------------------------------------------------------------

 SCF Done:  E(RHF) =  -868.338454560     A.U. after   16 cycles
 E2 =    -0.2599182223D+01 EUMP2 =    -0.87093763678271D+03

 The electronic state is 1-A.
 Alpha  occ. eigenvalues --  -20.61529 -20.61480 -20.60929 -20.60914 -15.86556
 Alpha  occ. eigenvalues --  -15.85979 -11.31801 -11.31289 -11.28432 -11.28301
 Alpha  occ. eigenvalues --  -11.28004 -11.27926 -11.27841 -11.27478 -11.27330
 Alpha  occ. eigenvalues --  -11.27280 -11.26878 -11.26776  -1.60576  -1.60002
 Alpha  occ. eigenvalues --   -1.40139  -1.39558  -1.19945  -1.19454  -1.09348
 Alpha  occ. eigenvalues --   -1.08826  -1.05338  -1.04868  -0.96215  -0.95674
 Alpha  occ. eigenvalues --   -0.86739  -0.86244  -0.83060  -0.82529  -0.78145
 Alpha  occ. eigenvalues --   -0.77605  -0.72783  -0.72195  -0.71890  -0.71326
 Alpha  occ. eigenvalues --   -0.71055  -0.70486  -0.65599  -0.65369  -0.65096
 Alpha  occ. eigenvalues --   -0.64844  -0.62745  -0.62182  -0.55809  -0.55250
 Alpha  occ. eigenvalues --   -0.53655  -0.53472  -0.53170  -0.52908  -0.49551
 Alpha  occ. eigenvalues --   -0.49510  -0.48958  -0.48945  -0.45571  -0.44977
 Alpha  occ. eigenvalues --   -0.37888  -0.37377  -0.36931  -0.36482
 Alpha virt. eigenvalues --    0.04406   0.04950   0.10709   0.11150   0.15945
 Alpha virt. eigenvalues --    0.16415   0.18969   0.22071   0.24844   0.27084
 Alpha virt. eigenvalues --    0.28303   0.29368   0.29846   0.31100   0.32092

 Mulliken charges:
               1
     1  C   -0.171209
     2  C   -0.219122
     3  C   -0.170378
     4  C    0.158444
     5  C   -0.173271
     6  C   -0.224891
     7  H    0.237239
     8  H    0.225458
     9  H    0.275941
    10  H    0.270839
    11  H    0.226186
    12  N    0.488254
    13  O   -0.462935
    14  O   -0.459552
    15  C   -0.169887
    16  C   -0.219568
    17  C   -0.173084
    18  C    0.158365
    19  C   -0.169779
    20  C   -0.218359
    21  H    0.229240
    22  H    0.225279
    23  H    0.270968
    24  H    0.276928
    25  H    0.225960
    26  N    0.488093
    27  O   -0.456362
    28  O   -0.468796
 Sum of Mulliken charges =  -0.00000

 Dipole moment (field-independent basis, Debye):
    X=              3.1374    Y=              1.2068    Z=              1.0317  Tot=              3.5163
 Quadrupole moment (field-independent basis, Debye-Ang):
   XX=           -127.9776   YY=           -103.9821   ZZ=           -103.5623
   XY=             36.2212   XZ=              1.7677   YZ=             -1.9080

 Normal termination of Gaussian 16 at Thu May  6 04:58:00 2021.
