 Gaussian 16, Revision A.03,
 Gaussian 16:  EM64L-G16RevA.03 25-Dec-2016

 -------------
 #p 6-31g* mp2
 -------------

 ------------------------------------------------------
 Input file generated by CHIRIPA (05-May-2021 14:57:21)
 ------------------------------------------------------
 Symbolic Z-matrix:
 Charge =  0 Multiplicity = 1

                         Standard orientation:
 ---------------------------------------------------------------------
 Center     Atomic      Atomic             Coordinates (Angstroms)
 Number     Number       Type             X           Y           Z
 ---------------------------------------------------------------------
      1          6           0       -4.434945    0.782351   -1.237966
      2          6           0       -4.002052    1.649447   -0.229368
      3          6           0       -3.000803    1.256220    0.663617
      4          6           0       -2.451869   -0.016916    0.518414
      5          6           0       -2.861863   -0.903562   -0.476099
      6          6           0       -3.864474   -0.489144   -1.357901
      7          1           0       -5.213268    1.096050   -1.927315
      8          1           0       -4.443289    2.637491   -0.133847
      9          1           0       -2.646871    1.907434    1.453599
     10          1           0       -2.403071   -1.882340   -0.546263
     11          1           0       -4.198694   -1.164644   -2.140232
     12          7           0       -1.391170   -0.444425    1.457858
     13          8           0       -0.923553   -1.571255    1.308779
     14          8           0       -1.047497    0.355419    2.325484
     15          6           0        3.538404    2.282705   -0.086748
     16          6           0        2.917494    1.910871   -1.283715
     17          6           0        2.408677    0.619130   -1.448205
     18          6           0        2.538543   -0.279402   -0.390345
     19          6           0        3.151898    0.060989    0.814321
     20          6           0        3.653422    1.358208    0.956611
     21          1           0        3.930833    3.288289    0.032410
     22          1           0        2.826758    2.626761   -2.095696
     23          1           0        1.923336    0.304730   -2.364182
     24          1           0        3.227466   -0.674640    1.605874
     25          1           0        4.135142    1.644197    1.887310
     26          7           0        2.003742   -1.649811   -0.552732
     27          8           0        2.130718   -2.422848    0.394330
     28          8           0        1.467714   -1.924949   -1.623998
 ---------------------------------------------------------------------

 SCF Done:  E(RHF) =  -868.337486000     A.U. after   16 cycles
 E2 =    -0.2600774342D+01 EUMP2 =    -0.87093826034180D+03

 The electronic state is 1-A.
 Alpha  occ. eigenvalues --  -20.60437 -20.60368 -20.59880 -20.59733 -15.85438
 Alpha  occ. eigenvalues --  -15.84862 -11.30842 -11.30403 -11.27484 -11.27343
 Alpha  occ. eigenvalues --  -11.27217 -11.27075 -11.26932 -11.26821 -11.26504
 Alpha  occ. eigenvalues --  -11.26412 -11.26130 -11.26020  -1.59492  -1.58856
 Alpha  occ. eigenvalues --   -1.39034  -1.38414  -1.19036  -1.18603  -1.08434
 Alpha  occ. eigenvalues --   -1.07973  -1.04437  -1.04036  -0.95252  -0.94778
 Alpha  occ. eigenvalues --   -0.85835  -0.85431  -0.82073  -0.81615  -0.77109
 Alpha  occ. eigenvalues --   -0.76621  -0.71686  -0.71102  -0.70933  -0.70151
 Alpha  occ. eigenvalues --   -0.70002  -0.69733  -0.64682  -0.64443  -0.64263
 Alpha  occ. eigenvalues --   -0.64058  -0.61769  -0.61384  -0.54960  -0.54562
 Alpha  occ. eigenvalues --   -0.52781  -0.52525  -0.52352  -0.52142  -0.48450
 Alpha  occ. eigenvalues --   -0.48401  -0.47881  -0.47826  -0.44480  -0.43698
 Alpha  occ. eigenvalues --   -0.37043  -0.36608  -0.36043  -0.35635
 Alpha virt. eigenvalues --    0.05393   0.05944   0.11608   0.12013   0.16867
 Alpha virt. eigenvalues --    0.17381   0.21736   0.22055   0.27656   0.27951
 Alpha virt. eigenvalues --    0.28661   0.28983   0.31251   0.31564   0.32998

 Mulliken charges:
               1
     1  C   -0.171355
     2  C   -0.219518
     3  C   -0.171907
     4  C    0.155896
     5  C   -0.169400
     6  C   -0.219481
     7  H    0.224106
     8  H    0.220933
     9  H    0.273007
    10  H    0.285045
    11  H    0.224662
    12  N    0.485146
    13  O   -0.450168
    14  O   -0.466596
    15  C   -0.171524
    16  C   -0.219164
    17  C   -0.173701
    18  C    0.157371
    19  C   -0.163080
    20  C   -0.217491
    21  H    0.222350
    22  H    0.218867
    23  H    0.271195
    24  H    0.280196
    25  H    0.222851
    26  N    0.491514
    27  O   -0.447417
    28  O   -0.472336
 Sum of Mulliken charges =  -0.00000

 Dipole moment (field-independent basis, Debye):
    X=             -1.8391    Y=              5.9758    Z=             -2.5191  Tot=              6.7408
 Quadrupole moment (field-independent basis, Debye-Ang):
   XX=            -78.2822   YY=           -104.1460   ZZ=           -104.3979
   XY=              7.5019   XZ=              9.3500   YZ=             -0.2832

 Normal termination of Gaussian 16 at Thu May  6 09:38:54 2021.
