 Gaussian 16, Revision A.03,
 Gaussian 16:  EM64L-G16RevA.03 25-Dec-2016

 -------------
 #p 6-31g* mp2
 -------------

 ------------------------------------------------------
 Input file generated by CHIRIPA (05-May-2021 14:57:25)
 ------------------------------------------------------
 Symbolic Z-matrix:
 Charge =  0 Multiplicity = 1

                         Standard orientation:
 ---------------------------------------------------------------------
 Center     Atomic      Atomic             Coordinates (Angstroms)
 Number     Number       Type             X           Y           Z
 ---------------------------------------------------------------------
      1          6           0       -2.907845   -2.219141    0.994753
      2          6           0       -3.434229   -1.142793    1.716499
      3          6           0       -3.448417    0.142179    1.165869
      4          6           0       -2.925691    0.315615   -0.114743
      5          6           0       -2.394336   -0.736647   -0.858851
      6          6           0       -2.390490   -2.012996   -0.288356
      7          1           0       -2.900841   -3.213990    1.430212
      8          1           0       -3.836686   -1.299933    2.713183
      9          1           0       -3.849833    0.993214    1.702547
     10          1           0       -2.000234   -0.548862   -1.850234
     11          1           0       -1.981055   -2.847040   -0.851186
     12          7           0       -2.935237    1.671393   -0.708185
     13          8           0       -2.468731    1.797901   -1.838231
     14          8           0       -3.409044    2.581873   -0.032041
     15          6           0        3.948839    2.092677    0.753367
     16          6           0        2.559153    1.970351    0.651729
     17          6           0        1.980417    0.764556    0.244701
     18          6           0        2.825052   -0.303388   -0.054259
     19          6           0        4.213101   -0.212701    0.037313
     20          6           0        4.769930    1.002683    0.446376
     21          1           0        4.389907    3.033092    1.070347
     22          1           0        1.919026    2.815185    0.889503
     23          1           0        0.907631    0.642334    0.157464
     24          1           0        4.825325   -1.072459   -0.206439
     25          1           0        5.849499    1.094799    0.524414
     26          7           0        2.223966   -1.584985   -0.486238
     27          8           0        2.989944   -2.510999   -0.743943
     28          8           0        0.998237   -1.639219   -0.558939
 ---------------------------------------------------------------------

 SCF Done:  E(RHF) =  -868.340015333     A.U. after   16 cycles
 E2 =    -0.2599873849D+01 EUMP2 =    -0.87093988918147D+03

 The electronic state is 1-A.
 Alpha  occ. eigenvalues --  -20.61152 -20.61115 -20.60570 -20.60562 -15.86167
 Alpha  occ. eigenvalues --  -15.85605 -11.31260 -11.30653 -11.27817 -11.27763
 Alpha  occ. eigenvalues --  -11.27490 -11.27200 -11.27036 -11.26778 -11.26772
 Alpha  occ. eigenvalues --  -11.26701 -11.26177 -11.25904  -1.60209  -1.59660
 Alpha  occ. eigenvalues --   -1.39770  -1.39216  -1.19407  -1.18761  -1.08857
 Alpha  occ. eigenvalues --   -1.08220  -1.04763  -1.04070  -0.95740  -0.95109
 Alpha  occ. eigenvalues --   -0.86177  -0.85501  -0.82591  -0.81922  -0.77660
 Alpha  occ. eigenvalues --   -0.77018  -0.72424  -0.71820  -0.71511  -0.70999
 Alpha  occ. eigenvalues --   -0.70514  -0.69854  -0.65066  -0.64760  -0.64390
 Alpha  occ. eigenvalues --   -0.64052  -0.62111  -0.61414  -0.55283  -0.54603
 Alpha  occ. eigenvalues --   -0.53114  -0.52857  -0.52437  -0.52147  -0.49165
 Alpha  occ. eigenvalues --   -0.49139  -0.48596  -0.48550  -0.45237  -0.44689
 Alpha  occ. eigenvalues --   -0.37379  -0.36742  -0.36352  -0.35591
 Alpha virt. eigenvalues --    0.04844   0.05449   0.11303   0.11969   0.16408
 Alpha virt. eigenvalues --    0.17035   0.21417   0.22166   0.27259   0.27961
 Alpha virt. eigenvalues --    0.28324   0.28973   0.30904   0.31680   0.32212

 Mulliken charges:
               1
     1  C   -0.173065
     2  C   -0.219153
     3  C   -0.175554
     4  C    0.150092
     5  C   -0.166822
     6  C   -0.203016
     7  H    0.225486
     8  H    0.220239
     9  H    0.271131
    10  H    0.277090
    11  H    0.234278
    12  N    0.486277
    13  O   -0.461876
    14  O   -0.464450
    15  C   -0.170098
    16  C   -0.218795
    17  C   -0.169356
    18  C    0.156669
    19  C   -0.171032
    20  C   -0.218832
    21  H    0.226981
    22  H    0.228950
    23  H    0.275751
    24  H    0.274585
    25  H    0.223501
    26  N    0.492676
    27  O   -0.460250
    28  O   -0.471407
 Sum of Mulliken charges =  -0.00000

 Dipole moment (field-independent basis, Debye):
    X=              2.3638    Y=             -0.4612    Z=              3.5181  Tot=              4.2635
 Quadrupole moment (field-independent basis, Debye-Ang):
   XX=            -89.2781   YY=           -109.7713   ZZ=           -103.2143
   XY=             24.3805   XZ=             -4.0010   YZ=              2.6597

 Normal termination of Gaussian 16 at Fri May  7 12:40:03 2021.
