 Gaussian 16, Revision A.03,
 Gaussian 16:  EM64L-G16RevA.03 25-Dec-2016

 -------------
 #p 6-31g* mp2
 -------------

 ------------------------------------------------------
 Input file generated by CHIRIPA (05-May-2021 14:57:21)
 ------------------------------------------------------
 Symbolic Z-matrix:
 Charge =  0 Multiplicity = 1

                         Standard orientation:
 ---------------------------------------------------------------------
 Center     Atomic      Atomic             Coordinates (Angstroms)
 Number     Number       Type             X           Y           Z
 ---------------------------------------------------------------------
      1          6           0        6.439133   -0.945802    0.283645
      2          6           0        5.657370   -0.654500    1.406369
      3          6           0        4.372604   -0.123395    1.258548
      4          6           0        3.898981    0.104891   -0.032520
      5          6           0        4.653665   -0.174892   -1.170705
      6          6           0        5.935673   -0.705492   -0.999048
      7          1           0        7.436099   -1.358181    0.407734
      8          1           0        6.045776   -0.840097    2.403736
      9          1           0        3.746030    0.111341    2.110441
     10          1           0        4.239207    0.020978   -2.152172
     11          1           0        6.540562   -0.930755   -1.872782
     12          7           0        2.540316    0.666881   -0.201629
     13          8           0        2.146082    0.858834   -1.349832
     14          8           0        1.895356    0.904774    0.817228
     15          6           0       -2.608343    2.005641   -0.003406
     16          6           0       -2.077709    0.731228   -0.228848
     17          6           0       -2.907485   -0.393946   -0.226641
     18          6           0       -4.269328   -0.207352    0.005428
     19          6           0       -4.827991    1.049348    0.233225
     20          6           0       -3.979372    2.160359    0.226506
     21          1           0       -1.956434    2.874202   -0.006873
     22          1           0       -1.013333    0.608071   -0.407677
     23          1           0       -2.523141   -1.392048   -0.398361
     24          1           0       -5.893057    1.140499    0.408566
     25          1           0       -4.394242    3.148880    0.401882
     26          7           0       -5.157748   -1.391028    0.010153
     27          8           0       -6.354121   -1.199945    0.217075
     28          8           0       -4.640897   -2.487461   -0.193156
 ---------------------------------------------------------------------

 SCF Done:  E(RHF) =  -868.341474095     A.U. after   16 cycles
 E2 =    -0.2598464631D+01 EUMP2 =    -0.87093993872607D+03

 The electronic state is 1-A.
 Alpha  occ. eigenvalues --  -20.61967 -20.61961 -20.59907 -20.59900 -15.86938
 Alpha  occ. eigenvalues --  -15.84945 -11.31937 -11.30063 -11.28455 -11.28451
 Alpha  occ. eigenvalues --  -11.28129 -11.27383 -11.27373 -11.26625 -11.26493
 Alpha  occ. eigenvalues --  -11.26159 -11.25610 -11.25246  -1.61012  -1.58986
 Alpha  occ. eigenvalues --   -1.40567  -1.38547  -1.20072  -1.18171  -1.09539
 Alpha  occ. eigenvalues --   -1.07594  -1.05414  -1.03515  -0.96433  -0.94488
 Alpha  occ. eigenvalues --   -0.86830  -0.84905  -0.83275  -0.81322  -0.78366
 Alpha  occ. eigenvalues --   -0.76414  -0.73158  -0.72294  -0.71173  -0.71169
 Alpha  occ. eigenvalues --   -0.70305  -0.69255  -0.65724  -0.65413  -0.63802
 Alpha  occ. eigenvalues --   -0.63453  -0.62762  -0.60851  -0.55931  -0.53979
 Alpha  occ. eigenvalues --   -0.53764  -0.53498  -0.51886  -0.51587  -0.49941
 Alpha  occ. eigenvalues --   -0.49886  -0.47942  -0.47894  -0.46047  -0.44009
 Alpha  occ. eigenvalues --   -0.38028  -0.36998  -0.36124  -0.35119
 Alpha virt. eigenvalues --    0.04120   0.06070   0.10663   0.12541   0.15699
 Alpha virt. eigenvalues --    0.17661   0.20844   0.22839   0.26787   0.27699
 Alpha virt. eigenvalues --    0.28804   0.29569   0.30456   0.31922   0.32479

 Mulliken charges:
               1
     1  C   -0.169293
     2  C   -0.218573
     3  C   -0.170216
     4  C    0.158181
     5  C   -0.170230
     6  C   -0.218588
     7  H    0.228464
     8  H    0.226043
     9  H    0.276425
    10  H    0.276355
    11  H    0.225976
    12  N    0.488452
    13  O   -0.463192
    14  O   -0.463862
    15  C   -0.172806
    16  C   -0.223783
    17  C   -0.174603
    18  C    0.158103
    19  C   -0.173948
    20  C   -0.219075
    21  H    0.229039
    22  H    0.247894
    23  H    0.272166
    24  H    0.271138
    25  H    0.218953
    26  N    0.488185
    27  O   -0.463963
    28  O   -0.463242
 Sum of Mulliken charges =  -0.00000

 Dipole moment (field-independent basis, Debye):
    X=              8.6788    Y=              2.2153    Z=              0.5740  Tot=              8.9754
 Quadrupole moment (field-independent basis, Debye-Ang):
   XX=            -92.2576   YY=           -106.6636   ZZ=           -100.4558
   XY=            -28.9975   XZ=              0.9301   YZ=              0.8657

 Normal termination of Gaussian 16 at Thu May  6 01:42:28 2021.
