 Gaussian 16, Revision A.03,
 Gaussian 16:  EM64L-G16RevA.03 25-Dec-2016

 -------------
 #p 6-31g* mp2
 -------------

 ------------------------------------------------------
 Input file generated by CHIRIPA (05-May-2021 14:53:17)
 ------------------------------------------------------
 Symbolic Z-matrix:
 Charge =  0 Multiplicity = 1

                         Standard orientation:
 ---------------------------------------------------------------------
 Center     Atomic      Atomic             Coordinates (Angstroms)
 Number     Number       Type             X           Y           Z
 ---------------------------------------------------------------------
      1          6           0       -3.464605   -0.341039    0.015405
      2          6           0       -4.580794   -1.179734   -0.608051
      3          6           0       -4.247725   -2.671481   -0.647421
      4          1           0       -2.537118   -0.496242   -0.552594
      5          1           0       -3.270641   -0.701411    1.035162
      6          1           0       -4.773546   -0.816990   -1.625833
      7          1           0       -5.505779   -1.022368   -0.038617
      8          1           0       -4.075834   -3.054638    0.363640
      9          1           0       -3.339440   -2.848093   -1.232594
     10          1           0       -5.059188   -3.252283   -1.096928
     11          6           0       -3.782805    1.152387    0.061852
     12          6           0       -2.666616    1.991082    0.685309
     13          6           0       -2.999685    3.482829    0.724679
     14          1           0       -3.976769    1.512759   -0.957905
     15          1           0       -4.710292    1.307590    0.629852
     16          1           0       -1.741631    1.833716    0.115874
     17          1           0       -2.473864    1.628338    1.703090
     18          1           0       -3.907970    3.659441    1.309851
     19          1           0       -3.171576    3.865986   -0.286383
     20          1           0       -2.188222    4.063631    1.174185
     21          6           0        1.236511   -2.159906    0.623207
     22          6           0        2.553133   -2.173348    1.095272
     23          6           0        3.445289   -1.157383    0.739715
     24          6           0        2.985170   -0.138761   -0.093346
     25          6           0        1.679477   -0.097477   -0.579913
     26          6           0        0.804645   -1.123840   -0.211408
     27          1           0        0.550192   -2.953172    0.904441
     28          1           0        2.891285   -2.976708    1.743585
     29          1           0        4.469947   -1.143176    1.090846
     30          1           0        1.371472    0.716643   -1.224707
     31          1           0       -0.217297   -1.110822   -0.579522
     32          7           0        3.920486    0.942300   -0.476611
     33          8           0        3.490567    1.828487   -1.211784
     34          8           0        5.065794    0.882978   -0.034585
 ---------------------------------------------------------------------

 SCF Done:  E(RHF) =  -669.535564545     A.U. after   15 cycles
 E2 =    -0.2091470617D+01 EUMP2 =    -0.67162703516217D+03

 The electronic state is 1-A.
 Alpha  occ. eigenvalues --  -20.60732 -20.60727 -15.85785 -11.31141 -11.27710
 Alpha  occ. eigenvalues --  -11.27704 -11.27436 -11.26724 -11.26683 -11.22407
 Alpha  occ. eigenvalues --  -11.22336 -11.22151 -11.22029 -11.21937 -11.21408
 Alpha  occ. eigenvalues --   -1.59808  -1.39361  -1.19310  -1.09179  -1.08704
 Alpha  occ. eigenvalues --   -1.04712  -1.04190  -0.96652  -0.95542  -0.87662
 Alpha  occ. eigenvalues --   -0.86111  -0.82378  -0.80269  -0.79011  -0.77422
 Alpha  occ. eigenvalues --   -0.72003  -0.71130  -0.70416  -0.65842  -0.64961
 Alpha  occ. eigenvalues --   -0.64705  -0.62069  -0.61580  -0.60021  -0.58257
 Alpha  occ. eigenvalues --   -0.55955  -0.55208  -0.53305  -0.53113  -0.53038
 Alpha  occ. eigenvalues --   -0.52781  -0.50590  -0.48771  -0.48759  -0.48571
 Alpha  occ. eigenvalues --   -0.47310  -0.46519  -0.46436  -0.44769  -0.44469
 Alpha  occ. eigenvalues --   -0.37286  -0.36309
 Alpha virt. eigenvalues --    0.05097   0.11327   0.16551   0.19328   0.22778
 Alpha virt. eigenvalues --    0.23472   0.24550   0.26398   0.27288   0.27970
 Alpha virt. eigenvalues --    0.29420   0.30391   0.31179   0.31351   0.31745

 Mulliken charges:
               1
     1  C   -0.303121
     2  C   -0.299417
     3  C   -0.476342
     4  H    0.142291
     5  H    0.150233
     6  H    0.154668
     7  H    0.155741
     8  H    0.154237
     9  H    0.150238
    10  H    0.164683
    11  C   -0.298567
    12  C   -0.299296
    13  C   -0.476450
    14  H    0.151574
    15  H    0.152783
    16  H    0.147607
    17  H    0.153201
    18  H    0.155985
    19  H    0.156693
    20  H    0.164352
    21  C   -0.173344
    22  C   -0.218499
    23  C   -0.171219
    24  C    0.158813
    25  C   -0.173843
    26  C   -0.223399
    27  H    0.226382
    28  H    0.223193
    29  H    0.275387
    30  H    0.275246
    31  H    0.233350
    32  N    0.488118
    33  O   -0.460642
    34  O   -0.460635
 Sum of Mulliken charges =  -0.00000

 Dipole moment (field-independent basis, Debye):
    X=             -3.4996    Y=             -3.7332    Z=              1.4012  Tot=              5.3054
 Quadrupole moment (field-independent basis, Debye-Ang):
   XX=           -111.1567   YY=            -94.2056   ZZ=            -93.2970
   XY=            -12.7820   XZ=              6.2289   YZ=             -1.4091

 Normal termination of Gaussian 16 at Wed May  5 18:46:15 2021.
