 Gaussian 16, Revision A.03,
 Gaussian 16:  EM64L-G16RevA.03 25-Dec-2016

 -------------
 #p 6-31g* mp2
 -------------

 ------------------------------------------------------
 Input file generated by CHIRIPA (05-May-2021 14:57:26)
 ------------------------------------------------------
 Symbolic Z-matrix:
 Charge =  0 Multiplicity = 1

                         Standard orientation:
 ---------------------------------------------------------------------
 Center     Atomic      Atomic             Coordinates (Angstroms)
 Number     Number       Type             X           Y           Z
 ---------------------------------------------------------------------
      1          6           0       -0.707409   -1.059817    1.568018
      2          6           0       -0.857410   -1.471929    0.239792
      3          6           0       -1.963755   -1.061947   -0.510184
      4          6           0       -2.905111   -0.236189    0.102402
      5          6           0       -2.783755    0.191299    1.423696
      6          6           0       -1.669364   -0.230979    2.154697
      7          1           0        0.155151   -1.383077    2.143247
      8          1           0       -0.111922   -2.115613   -0.218426
      9          1           0       -2.104670   -1.366087   -1.540261
     10          1           0       -3.543524    0.832987    1.853120
     11          1           0       -1.555469    0.090634    3.186025
     12          7           0       -4.080608    0.204350   -0.681519
     13          8           0       -4.895904    0.931817   -0.118740
     14          8           0       -4.164408   -0.186165   -1.843893
     15          6           0        2.158108    2.764111   -0.054837
     16          6           0        2.562540    2.054188    1.080490
     17          6           0        2.871583    0.693450    0.994284
     18          6           0        2.764863    0.071424   -0.248691
     19          6           0        2.364743    0.751463   -1.397926
     20          6           0        2.060672    2.111632   -1.288247
     21          1           0        1.919968    3.820943    0.021247
     22          1           0        2.639101    2.558316    2.039676
     23          1           0        3.187172    0.119787    1.857262
     24          1           0        2.297820    0.221582   -2.340351
     25          1           0        1.746848    2.660444   -2.171629
     26          7           0        3.089401   -1.368828   -0.352379
     27          8           0        2.987447   -1.893750   -1.459040
     28          8           0        3.439583   -1.945502    0.674975
 ---------------------------------------------------------------------

 SCF Done:  E(RHF) =  -868.339057408     A.U. after   16 cycles
 E2 =    -0.2601048763D+01 EUMP2 =    -0.87094010617095D+03

 The electronic state is 1-A.
 Alpha  occ. eigenvalues --  -20.61798 -20.61777 -20.60797 -20.60790 -15.86808
 Alpha  occ. eigenvalues --  -15.85847 -11.31919 -11.31137 -11.28499 -11.28421
 Alpha  occ. eigenvalues --  -11.28108 -11.27728 -11.27661 -11.27433 -11.27376
 Alpha  occ. eigenvalues --  -11.27355 -11.26723 -11.26590  -1.60873  -1.59875
 Alpha  occ. eigenvalues --   -1.40427  -1.39430  -1.20063  -1.19296  -1.09502
 Alpha  occ. eigenvalues --   -1.08698  -1.05427  -1.04685  -0.96379  -0.95547
 Alpha  occ. eigenvalues --   -0.86840  -0.86086  -0.83216  -0.82378  -0.78309
 Alpha  occ. eigenvalues --   -0.77447  -0.73019  -0.72237  -0.72054  -0.71201
 Alpha  occ. eigenvalues --   -0.71162  -0.70374  -0.65715  -0.65421  -0.64942
 Alpha  occ. eigenvalues --   -0.64664  -0.62787  -0.62026  -0.55913  -0.55163
 Alpha  occ. eigenvalues --   -0.53856  -0.53514  -0.52924  -0.52761  -0.49803
 Alpha  occ. eigenvalues --   -0.49759  -0.48825  -0.48816  -0.45873  -0.44853
 Alpha  occ. eigenvalues --   -0.38117  -0.37305  -0.36899  -0.36238
 Alpha virt. eigenvalues --    0.04169   0.05065   0.10580   0.11329   0.15767
 Alpha virt. eigenvalues --    0.16619   0.20607   0.21594   0.26509   0.27052
 Alpha virt. eigenvalues --    0.27662   0.28508   0.30481   0.30790   0.32442

 Mulliken charges:
               1
     1  C   -0.171611
     2  C   -0.225767
     3  C   -0.172543
     4  C    0.157814
     5  C   -0.172218
     6  C   -0.219332
     7  H    0.230017
     8  H    0.234835
     9  H    0.276243
    10  H    0.273841
    11  H    0.220672
    12  N    0.487853
    13  O   -0.461839
    14  O   -0.460631
    15  C   -0.168821
    16  C   -0.217376
    17  C   -0.174842
    18  C    0.158428
    19  C   -0.170622
    20  C   -0.216779
    21  H    0.229169
    22  H    0.224034
    23  H    0.272215
    24  H    0.276524
    25  H    0.228020
    26  N    0.484684
    27  O   -0.459164
    28  O   -0.462803
 Sum of Mulliken charges =  -0.00000

 Dipole moment (field-independent basis, Debye):
    X=              3.1362    Y=              3.6534    Z=              3.0058  Tot=              5.6761
 Quadrupole moment (field-independent basis, Debye-Ang):
   XX=           -136.4051   YY=           -102.7076   ZZ=            -96.7427
   XY=             16.9933   XZ=             -6.8075   YZ=              0.0433

 Normal termination of Gaussian 16 at Thu May  6 18:08:47 2021.
