 Gaussian 16, Revision A.03,
 Gaussian 16:  EM64L-G16RevA.03 25-Dec-2016

 -------------
 #p 6-31g* mp2
 -------------

 ------------------------------------------------------
 Input file generated by CHIRIPA (05-May-2021 14:57:21)
 ------------------------------------------------------
 Symbolic Z-matrix:
 Charge =  0 Multiplicity = 1

                         Standard orientation:
 ---------------------------------------------------------------------
 Center     Atomic      Atomic             Coordinates (Angstroms)
 Number     Number       Type             X           Y           Z
 ---------------------------------------------------------------------
      1          6           0        1.169230   -1.602784    0.207413
      2          6           0        1.697246   -1.100365    1.401270
      3          6           0        2.903439   -0.393509    1.402196
      4          6           0        3.558091   -0.206661    0.185722
      5          6           0        3.057595   -0.694917   -1.020263
      6          6           0        1.849889   -1.398815   -0.997419
      7          1           0        0.231642   -2.150738    0.215926
      8          1           0        1.170811   -1.257256    2.338445
      9          1           0        3.334782    0.006314    2.311868
     10          1           0        3.605280   -0.522566   -1.938824
     11          1           0        1.442191   -1.787861   -1.926112
     12          7           0        4.835835    0.540090    0.174121
     13          8           0        5.393244    0.691234   -0.910816
     14          8           0        5.255726    0.960110    1.250183
     15          6           0       -5.509435   -0.532361    0.786413
     16          6           0       -5.110049    0.786424    1.026864
     17          6           0       -3.914140    1.274797    0.492220
     18          6           0       -3.138496    0.413079   -0.281802
     19          6           0       -3.509334   -0.905812   -0.539281
     20          6           0       -4.709214   -1.372789    0.005484
     21          1           0       -6.439988   -0.903430    1.205669
     22          1           0       -5.729509    1.441366    1.632970
     23          1           0       -3.581053    2.291386    0.662564
     24          1           0       -2.870740   -1.534931   -1.147411
     25          1           0       -5.016878   -2.397432   -0.182910
     26          7           0       -1.870340    0.918771   -0.853163
     27          8           0       -1.204798    0.139538   -1.531756
     28          8           0       -1.565913    2.084791   -0.611586
 ---------------------------------------------------------------------

 SCF Done:  E(RHF) =  -868.337869769     A.U. after   16 cycles
 E2 =    -0.2600586621D+01 EUMP2 =    -0.87093845639010D+03

 The electronic state is 1-A.
 Alpha  occ. eigenvalues --  -20.61560 -20.61531 -20.59923 -20.59910 -15.86577
 Alpha  occ. eigenvalues --  -15.84967 -11.31940 -11.30170 -11.28549 -11.28443
 Alpha  occ. eigenvalues --  -11.28188 -11.27514 -11.27452 -11.26777 -11.26659
 Alpha  occ. eigenvalues --  -11.26471 -11.25809 -11.25629  -1.60601  -1.58996
 Alpha  occ. eigenvalues --   -1.40165  -1.38555  -1.20096  -1.18323  -1.09483
 Alpha  occ. eigenvalues --   -1.07757  -1.05494  -1.03712  -0.96328  -0.94626
 Alpha  occ. eigenvalues --   -0.86890  -0.85130  -0.83163  -0.81471  -0.78227
 Alpha  occ. eigenvalues --   -0.76531  -0.72819  -0.71932  -0.71201  -0.71185
 Alpha  occ. eigenvalues --   -0.70310  -0.69479  -0.65746  -0.65484  -0.63995
 Alpha  occ. eigenvalues --   -0.63737  -0.62846  -0.61083  -0.55968  -0.54279
 Alpha  occ. eigenvalues --   -0.53826  -0.53577  -0.52034  -0.51832  -0.49577
 Alpha  occ. eigenvalues --   -0.49530  -0.47955  -0.47938  -0.45570  -0.43998
 Alpha  occ. eigenvalues --   -0.38065  -0.37102  -0.36228  -0.35258
 Alpha virt. eigenvalues --    0.04273   0.06023   0.10523   0.12379   0.15822
 Alpha virt. eigenvalues --    0.17557   0.20515   0.22190   0.26322   0.27254
 Alpha virt. eigenvalues --    0.28300   0.28856   0.30640   0.31358   0.32801

 Mulliken charges:
               1
     1  C   -0.162790
     2  C   -0.220877
     3  C   -0.170976
     4  C    0.158890
     5  C   -0.171652
     6  C   -0.200673
     7  H    0.216571
     8  H    0.216726
     9  H    0.271749
    10  H    0.273631
    11  H    0.224346
    12  N    0.488360
    13  O   -0.461806
    14  O   -0.463797
    15  C   -0.170736
    16  C   -0.218123
    17  C   -0.170799
    18  C    0.158760
    19  C   -0.174804
    20  C   -0.218066
    21  H    0.227942
    22  H    0.226263
    23  H    0.278134
    24  H    0.269934
    25  H    0.224325
    26  N    0.489710
    27  O   -0.466499
    28  O   -0.453743
 Sum of Mulliken charges =  -0.00000

 Dipole moment (field-independent basis, Debye):
    X=             -9.3133    Y=             -4.2608    Z=              1.9160  Tot=             10.4194
 Quadrupole moment (field-independent basis, Debye-Ang):
   XX=           -110.0350   YY=           -102.0422   ZZ=           -100.9919
   XY=             -5.7516   XZ=             -7.3270   YZ=              3.9044

 Normal termination of Gaussian 16 at Thu May  6 11:11:28 2021.
