 Gaussian 16, Revision A.03,
 Gaussian 16:  EM64L-G16RevA.03 25-Dec-2016

 -------------
 #p 6-31g* mp2
 -------------

 ------------------------------------------------------
 Input file generated by CHIRIPA (05-May-2021 14:57:26)
 ------------------------------------------------------
 Symbolic Z-matrix:
 Charge =  0 Multiplicity = 1

                         Standard orientation:
 ---------------------------------------------------------------------
 Center     Atomic      Atomic             Coordinates (Angstroms)
 Number     Number       Type             X           Y           Z
 ---------------------------------------------------------------------
      1          6           0       -1.955493    2.692771    0.302760
      2          6           0       -1.061380    1.675777   -0.047675
      3          6           0       -1.521468    0.377779   -0.288649
      4          6           0       -2.888289    0.130936   -0.169660
      5          6           0       -3.804051    1.122884    0.177771
      6          6           0       -3.321567    2.413572    0.414168
      7          1           0       -1.589387    3.698248    0.488177
      8          1           0        0.000064    1.889710   -0.134936
      9          1           0       -0.851277   -0.428346   -0.561460
     10          1           0       -4.856530    0.879092    0.256969
     11          1           0       -4.018253    3.201412    0.686162
     12          7           0       -3.387218   -1.239326   -0.422346
     13          8           0       -4.596136   -1.431017   -0.310942
     14          8           0       -2.559915   -2.095702   -0.727021
     15          6           0        4.159873    1.521070   -0.875390
     16          6           0        3.778219    1.574188    0.469244
     17          6           0        3.028031    0.539392    1.035781
     18          6           0        2.675178   -0.538315    0.225020
     19          6           0        3.040259   -0.620193   -1.117851
     20          6           0        3.790327    0.425981   -1.663257
     21          1           0        4.742591    2.329343   -1.307281
     22          1           0        4.063795    2.423414    1.083497
     23          1           0        2.719180    0.554964    2.073946
     24          1           0        2.740636   -1.479762   -1.705035
     25          1           0        4.085321    0.382051   -2.707811
     26          7           0        1.881051   -1.639829    0.813601
     27          8           0        1.582804   -2.578299    0.078101
     28          8           0        1.571897   -1.543869    1.999289
 ---------------------------------------------------------------------

 SCF Done:  E(RHF) =  -868.336809688     A.U. after   16 cycles
 E2 =    -0.2601363613D+01 EUMP2 =    -0.87093817330153D+03

 The electronic state is 1-A.
 Alpha  occ. eigenvalues --  -20.61210 -20.61169 -20.60179 -20.60124 -15.86234
 Alpha  occ. eigenvalues --  -15.85211 -11.31854 -11.30768 -11.28445 -11.28380
 Alpha  occ. eigenvalues --  -11.28167 -11.27487 -11.27414 -11.27378 -11.27351
 Alpha  occ. eigenvalues --  -11.27193 -11.26449 -11.26428  -1.60267  -1.59230
 Alpha  occ. eigenvalues --   -1.39805  -1.38774  -1.20039  -1.18967  -1.09376
 Alpha  occ. eigenvalues --   -1.08338  -1.05444  -1.04405  -0.96162  -0.95139
 Alpha  occ. eigenvalues --   -0.86819  -0.85796  -0.82969  -0.81967  -0.77993
 Alpha  occ. eigenvalues --   -0.76974  -0.72419  -0.71663  -0.71411  -0.71080
 Alpha  occ. eigenvalues --   -0.70556  -0.70088  -0.65651  -0.65405  -0.64625
 Alpha  occ. eigenvalues --   -0.64426  -0.62758  -0.61750  -0.55900  -0.54939
 Alpha  occ. eigenvalues --   -0.53811  -0.53500  -0.52717  -0.52487  -0.49207
 Alpha  occ. eigenvalues --   -0.49182  -0.48214  -0.48167  -0.45130  -0.44138
 Alpha  occ. eigenvalues --   -0.38036  -0.37083  -0.36966  -0.36001
 Alpha virt. eigenvalues --    0.04503   0.05568   0.10551   0.11646   0.15953
 Alpha virt. eigenvalues --    0.17011   0.20823   0.21509   0.26760   0.26963
 Alpha virt. eigenvalues --    0.27792   0.28403   0.30434   0.31003   0.31979

 Mulliken charges:
               1
     1  C   -0.171490
     2  C   -0.221110
     3  C   -0.171245
     4  C    0.158972
     5  C   -0.170808
     6  C   -0.218502
     7  H    0.221611
     8  H    0.221352
     9  H    0.278072
    10  H    0.275148
    11  H    0.221583
    12  N    0.487256
    13  O   -0.463591
    14  O   -0.452429
    15  C   -0.172162
    16  C   -0.221783
    17  C   -0.175681
    18  C    0.152199
    19  C   -0.174171
    20  C   -0.218597
    21  H    0.227605
    22  H    0.224709
    23  H    0.277998
    24  H    0.280824
    25  H    0.226867
    26  N    0.485330
    27  O   -0.451217
    28  O   -0.456740
 Sum of Mulliken charges =  -0.00000

 Dipole moment (field-independent basis, Debye):
    X=              4.7291    Y=              8.4172    Z=             -1.2073  Tot=              9.7299
 Quadrupole moment (field-independent basis, Debye-Ang):
   XX=            -96.2202   YY=           -107.1539   ZZ=           -102.7958
   XY=             -6.3207   XZ=             -9.1375   YZ=              4.0617

 Normal termination of Gaussian 16 at Thu May  6 11:30:03 2021.
