 Gaussian 16, Revision A.03,
 Gaussian 16:  EM64L-G16RevA.03 25-Dec-2016

 -------------
 #p 6-31g* mp2
 -------------

 ------------------------------------------------------
 Input file generated by CHIRIPA (05-May-2021 14:57:21)
 ------------------------------------------------------
 Symbolic Z-matrix:
 Charge =  0 Multiplicity = 1

                         Standard orientation:
 ---------------------------------------------------------------------
 Center     Atomic      Atomic             Coordinates (Angstroms)
 Number     Number       Type             X           Y           Z
 ---------------------------------------------------------------------
      1          6           0        3.462988   -2.284112    0.125060
      2          6           0        2.989866   -1.588597    1.242618
      3          6           0        2.795273   -0.205233    1.187961
      4          6           0        3.085244    0.453863   -0.005689
      5          6           0        3.557875   -0.211005   -1.136114
      6          6           0        3.744985   -1.594312   -1.058652
      7          1           0        3.611245   -3.358719    0.176377
      8          1           0        2.770029   -2.121699    2.163226
      9          1           0        2.430100    0.357997    2.038159
     10          1           0        3.768239    0.347869   -2.039897
     11          1           0        4.112533   -2.131860   -1.928132
     12          7           0        2.883199    1.918338   -0.075623
     13          8           0        3.146077    2.475826   -1.138986
     14          8           0        2.465784    2.480975    0.934248
     15          6           0       -0.710105   -0.915923    0.259759
     16          6           0       -1.430867   -0.455086    1.366399
     17          6           0       -2.765868   -0.062697    1.230933
     18          6           0       -3.351383   -0.144496   -0.031514
     19          6           0       -2.659692   -0.599322   -1.153114
     20          6           0       -1.325733   -0.986446   -0.994254
     21          1           0        0.326551   -1.218696    0.374078
     22          1           0       -0.955338   -0.399251    2.341489
     23          1           0       -3.347171    0.297876    2.070868
     24          1           0       -3.160864   -0.643741   -2.112422
     25          1           0       -0.768423   -1.343938   -1.855446
     26          7           0       -4.764137    0.268123   -0.187309
     27          8           0       -5.257062    0.186568   -1.310256
     28          8           0       -5.351778    0.665274    0.816477
 ---------------------------------------------------------------------

 SCF Done:  E(RHF) =  -868.336439435     A.U. after   16 cycles
 E2 =    -0.2602413172D+01 EUMP2 =    -0.87093885260693D+03

 The electronic state is 1-A.
 Alpha  occ. eigenvalues --  -20.61659 -20.61653 -20.60618 -20.60613 -15.86726
 Alpha  occ. eigenvalues --  -15.85675 -11.32393 -11.31039 -11.29012 -11.28960
 Alpha  occ. eigenvalues --  -11.28760 -11.28062 -11.28004 -11.27638 -11.27631
 Alpha  occ. eigenvalues --  -11.27223 -11.26661 -11.26623  -1.60727  -1.59694
 Alpha  occ. eigenvalues --   -1.40273  -1.39248  -1.20630  -1.19218  -1.09926
 Alpha  occ. eigenvalues --   -1.08610  -1.06063  -1.04638  -0.96709  -0.95443
 Alpha  occ. eigenvalues --   -0.87399  -0.86039  -0.83530  -0.82289  -0.78533
 Alpha  occ. eigenvalues --   -0.77339  -0.72932  -0.72071  -0.71894  -0.71646
 Alpha  occ. eigenvalues --   -0.71016  -0.70359  -0.66229  -0.65992  -0.64875
 Alpha  occ. eigenvalues --   -0.64681  -0.63353  -0.62001  -0.56469  -0.55740
 Alpha  occ. eigenvalues --   -0.54087  -0.53767  -0.52940  -0.52742  -0.49713
 Alpha  occ. eigenvalues --   -0.49673  -0.48653  -0.48647  -0.45612  -0.44654
 Alpha  occ. eigenvalues --   -0.38648  -0.37694  -0.37112  -0.36245
 Alpha virt. eigenvalues --    0.03977   0.05199   0.09899   0.11417   0.15376
 Alpha virt. eigenvalues --    0.16714   0.20018   0.21806   0.25653   0.26896
 Alpha virt. eigenvalues --    0.27923   0.29046   0.29904   0.30949   0.31972

 Mulliken charges:
               1
     1  C   -0.171245
     2  C   -0.229939
     3  C   -0.182645
     4  C    0.164447
     5  C   -0.171417
     6  C   -0.220194
     7  H    0.230733
     8  H    0.227287
     9  H    0.277600
    10  H    0.280150
    11  H    0.228267
    12  N    0.488770
    13  O   -0.456428
    14  O   -0.457518
    15  C   -0.177830
    16  C   -0.220934
    17  C   -0.168975
    18  C    0.158082
    19  C   -0.169509
    20  C   -0.221921
    21  H    0.236955
    22  H    0.217492
    23  H    0.275696
    24  H    0.275079
    25  H    0.221028
    26  N    0.488172
    27  O   -0.460787
    28  O   -0.460418
 Sum of Mulliken charges =  -0.00000

 Dipole moment (field-independent basis, Debye):
    X=              6.0073    Y=             -6.5096    Z=              0.6988  Tot=              8.8854
 Quadrupole moment (field-independent basis, Debye-Ang):
   XX=           -133.8128   YY=           -109.9967   ZZ=            -95.5779
   XY=            -11.7910   XZ=             -3.4808   YZ=              1.4086

 Normal termination of Gaussian 16 at Thu May  6 03:18:17 2021.
