 Gaussian 16, Revision A.03,
 Gaussian 16:  EM64L-G16RevA.03 25-Dec-2016

 -------------
 #p 6-31g* mp2
 -------------

 ------------------------------------------------------
 Input file generated by CHIRIPA (05-May-2021 14:55:25)
 ------------------------------------------------------
 Symbolic Z-matrix:
 Charge =  0 Multiplicity = 1

                         Standard orientation:
 ---------------------------------------------------------------------
 Center     Atomic      Atomic             Coordinates (Angstroms)
 Number     Number       Type             X           Y           Z
 ---------------------------------------------------------------------
      1          6           0       -3.392635   -1.898390    0.797046
      2          6           0       -3.362985   -1.507878   -0.545765
      3          6           0       -2.897170   -0.239988   -0.906348
      4          6           0       -2.466656    0.615905    0.106270
      5          6           0       -2.483904    0.255995    1.452917
      6          6           0       -2.953773   -1.016761    1.790350
      7          1           0       -3.756065   -2.885208    1.068164
      8          1           0       -3.703187   -2.190482   -1.319302
      9          1           0       -2.863369    0.088069   -1.938168
     10          1           0       -2.138211    0.958372    2.201636
     11          1           0       -2.975663   -1.317341    2.834006
     12          7           0       -1.971372    1.960740   -0.263209
     13          8           0       -1.597629    2.696273    0.647803
     14          8           0       -1.966291    2.253822   -1.456823
     15          6           0        3.809414   -0.447702    0.315474
     16          6           0        4.980863    0.435045   -0.116322
     17          6           0        6.068310    0.539190    0.953448
     18          1           0        3.377161   -0.045123    1.241775
     19          1           0        4.185292   -1.451700    0.556510
     20          1           0        4.602690    1.436689   -0.357800
     21          1           0        5.410256    0.030427   -1.041807
     22          1           0        6.473203   -0.450390    1.188806
     23          1           0        5.661049    0.963862    1.876699
     24          1           0        6.896087    1.174839    0.623910
     25          6           0        2.714194   -0.561604   -0.743415
     26          6           0        1.542744   -1.444352   -0.311619
     27          6           0        0.455298   -1.548496   -1.381389
     28          1           0        2.338315    0.442394   -0.984452
     29          1           0        3.146447   -0.964183   -1.669716
     30          1           0        1.113351   -1.039733    0.613866
     31          1           0        1.920917   -2.445995   -0.070141
     32          1           0        0.862559   -1.973168   -2.304641
     33          1           0        0.050404   -0.558916   -1.616748
     34          1           0       -0.372479   -2.184146   -1.051852
 ---------------------------------------------------------------------

 SCF Done:  E(RHF) =  -669.534991910     A.U. after   15 cycles
 E2 =    -0.2093197140D+01 EUMP2 =    -0.67162818904941D+03

 The electronic state is 1-A.
 Alpha  occ. eigenvalues --  -20.60866 -20.60852 -15.85903 -11.31215 -11.27820
 Alpha  occ. eigenvalues --  -11.27784 -11.27559 -11.26811 -11.26780 -11.21510
 Alpha  occ. eigenvalues --  -11.21346 -11.21186 -11.21122 -11.20954 -11.20856
 Alpha  occ. eigenvalues --   -1.59931  -1.39486  -1.19412  -1.08814  -1.08234
 Alpha  occ. eigenvalues --   -1.04813  -1.03360  -0.95823  -0.95643  -0.86842
 Alpha  occ. eigenvalues --   -0.86210  -0.82483  -0.79434  -0.78041  -0.77532
 Alpha  occ. eigenvalues --   -0.72122  -0.71258  -0.70527  -0.65066  -0.64866
 Alpha  occ. eigenvalues --   -0.64809  -0.62159  -0.60776  -0.59214  -0.57432
 Alpha  occ. eigenvalues --   -0.55329  -0.55165  -0.53281  -0.52903  -0.52320
 Alpha  occ. eigenvalues --   -0.52205  -0.49740  -0.48882  -0.48877  -0.47749
 Alpha  occ. eigenvalues --   -0.46470  -0.45590  -0.45502  -0.44879  -0.43620
 Alpha  occ. eigenvalues --   -0.37371  -0.36320
 Alpha virt. eigenvalues --    0.04996   0.11163   0.16467   0.21333   0.22983
 Alpha virt. eigenvalues --    0.24358   0.26736   0.27097   0.27684   0.28072
 Alpha virt. eigenvalues --    0.28437   0.30432   0.31525   0.31784   0.32100

 Mulliken charges:
               1
     1  C   -0.171008
     2  C   -0.219003
     3  C   -0.166139
     4  C    0.159823
     5  C   -0.171414
     6  C   -0.218506
     7  H    0.225955
     8  H    0.223955
     9  H    0.275940
    10  H    0.275590
    11  H    0.223651
    12  N    0.487764
    13  O   -0.460263
    14  O   -0.460675
    15  C   -0.298086
    16  C   -0.300140
    17  C   -0.475689
    18  H    0.149945
    19  H    0.147240
    20  H    0.155511
    21  H    0.151221
    22  H    0.153615
    23  H    0.155466
    24  H    0.160394
    25  C   -0.299727
    26  C   -0.299325
    27  C   -0.479704
    28  H    0.156000
    29  H    0.148874
    30  H    0.150632
    31  H    0.149206
    32  H    0.153069
    33  H    0.157668
    34  H    0.158161
 Sum of Mulliken charges =  -0.00000

 Dipole moment (field-independent basis, Debye):
    X=             -1.8318    Y=             -4.6634    Z=              1.2956  Tot=              5.1751
 Quadrupole moment (field-independent basis, Debye-Ang):
   XX=            -87.2868   YY=           -100.5936   ZZ=            -90.1938
   XY=             10.7547   XZ=             -3.2815   YZ=              1.5461

 Normal termination of Gaussian 16 at Thu May  6 01:37:48 2021.
