 Gaussian 16, Revision A.03,
 Gaussian 16:  EM64L-G16RevA.03 25-Dec-2016

 -------------
 #p 6-31g* mp2
 -------------

 ------------------------------------------------------
 Input file generated by CHIRIPA (05-May-2021 14:53:12)
 ------------------------------------------------------
 Symbolic Z-matrix:
 Charge =  0 Multiplicity = 1

                         Standard orientation:
 ---------------------------------------------------------------------
 Center     Atomic      Atomic             Coordinates (Angstroms)
 Number     Number       Type             X           Y           Z
 ---------------------------------------------------------------------
      1          6           0       -4.673817    0.125891    0.204958
      2          6           0       -5.881678    0.151117   -0.732283
      3          6           0       -6.828252    1.317098   -0.445437
      4          1           0       -5.025287    0.067580    1.244195
      5          1           0       -4.127027    1.074522    0.112684
      6          1           0       -6.425246   -0.797830   -0.639289
      7          1           0       -5.527288    0.209182   -1.769420
      8          1           0       -6.306745    2.273183   -0.557388
      9          1           0       -7.209806    1.260449    0.579164
     10          1           0       -7.684658    1.315952   -1.126926
     11          6           0       -3.718276   -1.034030   -0.069363
     12          6           0       -2.510415   -1.059256    0.867878
     13          6           0       -1.563841   -2.225237    0.581032
     14          1           0       -4.265066   -1.982661    0.022911
     15          1           0       -3.366806   -0.975718   -1.108600
     16          1           0       -2.864805   -1.117321    1.905015
     17          1           0       -1.966847   -0.110309    0.774883
     18          1           0       -1.182287   -2.168588   -0.443569
     19          1           0       -2.085348   -3.181322    0.692983
     20          1           0       -0.707435   -2.224091    1.262521
     21          6           0        1.779823    2.346574    0.338833
     22          6           0        1.229736    1.063619    0.249659
     23          6           0        2.050374   -0.047263    0.032763
     24          6           0        3.423015    0.162179   -0.090844
     25          6           0        4.001081    1.427898   -0.006679
     26          6           0        3.161304    2.524306    0.210604
     27          1           0        1.134898    3.203913    0.507474
     28          1           0        0.157208    0.922598    0.348860
     29          1           0        1.650987   -1.051532   -0.040400
     30          1           0        5.073897    1.536936   -0.109610
     31          1           0        3.591283    3.519508    0.279425
     32          7           0        4.301919   -1.006201   -0.320668
     33          8           0        5.508122   -0.795054   -0.426153
     34          8           0        3.767957   -2.110999   -0.390967
 ---------------------------------------------------------------------

 SCF Done:  E(RHF) =  -669.535512221     A.U. after   15 cycles
 E2 =    -0.2091561296D+01 EUMP2 =    -0.67162707351724D+03

 The electronic state is 1-A.
 Alpha  occ. eigenvalues --  -20.60716 -20.60710 -15.85768 -11.31124 -11.27703
 Alpha  occ. eigenvalues --  -11.27667 -11.27445 -11.26721 -11.26680 -11.22539
 Alpha  occ. eigenvalues --  -11.22110 -11.22080 -11.21994 -11.21870 -11.21518
 Alpha  occ. eigenvalues --   -1.59791  -1.39345  -1.19299  -1.09117  -1.08699
 Alpha  occ. eigenvalues --   -1.04704  -1.04207  -0.96635  -0.95533  -0.87649
 Alpha  occ. eigenvalues --   -0.86103  -0.82366  -0.80284  -0.78913  -0.77413
 Alpha  occ. eigenvalues --   -0.71987  -0.71115  -0.70413  -0.65786  -0.64951
 Alpha  occ. eigenvalues --   -0.64706  -0.62187  -0.61492  -0.59996  -0.58238
 Alpha  occ. eigenvalues --   -0.55917  -0.55197  -0.53336  -0.53069  -0.53017
 Alpha  occ. eigenvalues --   -0.52813  -0.50565  -0.48758  -0.48741  -0.48569
 Alpha  occ. eigenvalues --   -0.47316  -0.46447  -0.46366  -0.44752  -0.44449
 Alpha  occ. eigenvalues --   -0.37287  -0.36304
 Alpha virt. eigenvalues --    0.05114   0.11342   0.16597   0.18963   0.22665
 Alpha virt. eigenvalues --    0.23677   0.25152   0.26053   0.26643   0.28360
 Alpha virt. eigenvalues --    0.29480   0.29808   0.31065   0.31370   0.32162

 Mulliken charges:
               1
     1  C   -0.298092
     2  C   -0.300238
     3  C   -0.475961
     4  H    0.151163
     5  H    0.145839
     6  H    0.153868
     7  H    0.152783
     8  H    0.154324
     9  H    0.155935
    10  H    0.162143
    11  C   -0.298531
    12  C   -0.304732
    13  C   -0.481960
    14  H    0.153636
    15  H    0.150852
    16  H    0.156991
    17  H    0.142637
    18  H    0.156083
    19  H    0.163092
    20  H    0.162000
    21  C   -0.172763
    22  C   -0.226546
    23  C   -0.177738
    24  C    0.159263
    25  C   -0.170912
    26  C   -0.218630
    27  H    0.225778
    28  H    0.234579
    29  H    0.279752
    30  H    0.275348
    31  H    0.223129
    32  N    0.487991
    33  O   -0.460807
    34  O   -0.460277
 Sum of Mulliken charges =  -0.00000

 Dipole moment (field-independent basis, Debye):
    X=             -3.3153    Y=              3.9940    Z=              0.8165  Tot=              5.2545
 Quadrupole moment (field-independent basis, Debye-Ang):
   XX=           -112.5828   YY=            -91.9381   ZZ=            -95.3439
   XY=             17.7208   XZ=              2.7018   YZ=             -0.8246

 Normal termination of Gaussian 16 at Thu May  6 17:02:11 2021.
