 Gaussian 16, Revision A.03,
 Gaussian 16:  EM64L-G16RevA.03 25-Dec-2016

 -------------
 #p 6-31g* mp2
 -------------

 ------------------------------------------------------
 Input file generated by CHIRIPA (05-May-2021 14:55:25)
 ------------------------------------------------------
 Symbolic Z-matrix:
 Charge =  0 Multiplicity = 1

                         Standard orientation:
 ---------------------------------------------------------------------
 Center     Atomic      Atomic             Coordinates (Angstroms)
 Number     Number       Type             X           Y           Z
 ---------------------------------------------------------------------
      1          6           0       -1.062347   -2.152130    0.217835
      2          6           0       -0.736864   -0.871572   -0.241245
      3          6           0       -1.727000    0.105455   -0.381232
      4          6           0       -3.038268   -0.233940   -0.051568
      5          6           0       -3.394067   -1.500888    0.408368
      6          6           0       -2.387573   -2.462154    0.540608
      7          1           0       -0.286832   -2.904986    0.323571
      8          1           0        0.291483   -0.627982   -0.492662
      9          1           0       -1.502827    1.104676   -0.734393
     10          1           0       -4.428031   -1.713977    0.651120
     11          1           0       -2.643262   -3.455828    0.897371
     12          7           0       -4.095139    0.792052   -0.195665
     13          8           0       -5.242889    0.467940    0.101417
     14          8           0       -3.755752    1.900908   -0.602961
     15          6           0        4.079924   -0.066490    0.305717
     16          6           0        4.287094   -1.187280   -0.713545
     17          6           0        5.116991   -2.345236   -0.158381
     18          1           0        5.059339    0.307076    0.634560
     19          1           0        3.586806   -0.477780    1.197385
     20          1           0        4.778426   -0.773717   -1.603587
     21          1           0        3.307069   -1.558091   -1.040143
     22          1           0        4.627892   -2.784783    0.716937
     23          1           0        6.107608   -1.995953    0.150292
     24          1           0        5.252797   -3.135263   -0.903546
     25          6           0        3.252128    1.098262   -0.234501
     26          6           0        3.044957    2.219053    0.784761
     27          6           0        2.215061    3.377008    0.229598
     28          1           0        3.745245    1.509552   -1.126168
     29          1           0        2.272712    0.724696   -0.563344
     30          1           0        4.024981    2.589864    1.111360
     31          1           0        2.553625    1.805490    1.674803
     32          1           0        1.224443    3.027725   -0.079075
     33          1           0        2.704159    3.816555   -0.645720
     34          1           0        2.079255    4.167036    0.974763
 ---------------------------------------------------------------------

 SCF Done:  E(RHF) =  -669.535415628     A.U. after   15 cycles
 E2 =    -0.2091572685D+01 EUMP2 =    -0.67162698831305D+03

 The electronic state is 1-A.
 Alpha  occ. eigenvalues --  -20.60758 -20.60752 -15.85811 -11.31187 -11.27758
 Alpha  occ. eigenvalues --  -11.27754 -11.27501 -11.26774 -11.26753 -11.22502
 Alpha  occ. eigenvalues --  -11.22326 -11.22238 -11.22210 -11.21843 -11.21591
 Alpha  occ. eigenvalues --   -1.59833  -1.39386  -1.19360  -1.09262  -1.08753
 Alpha  occ. eigenvalues --   -1.04766  -1.04271  -0.96713  -0.95587  -0.87723
 Alpha  occ. eigenvalues --   -0.86165  -0.82422  -0.80333  -0.79087  -0.77464
 Alpha  occ. eigenvalues --   -0.72029  -0.71156  -0.70470  -0.65972  -0.65012
 Alpha  occ. eigenvalues --   -0.64737  -0.62126  -0.61659  -0.60078  -0.58320
 Alpha  occ. eigenvalues --   -0.56019  -0.55265  -0.53368  -0.53163  -0.53093
 Alpha  occ. eigenvalues --   -0.52835  -0.50656  -0.48793  -0.48784  -0.48642
 Alpha  occ. eigenvalues --   -0.47385  -0.46611  -0.46528  -0.44790  -0.44548
 Alpha  occ. eigenvalues --   -0.37342  -0.36368
 Alpha virt. eigenvalues --    0.05068   0.11275   0.16534   0.18180   0.22770
 Alpha virt. eigenvalues --    0.23234   0.24668   0.26092   0.26431   0.28091
 Alpha virt. eigenvalues --    0.29331   0.30875   0.31168   0.31293   0.31927

 Mulliken charges:
               1
     1  C   -0.172723
     2  C   -0.226766
     3  C   -0.174624
     4  C    0.158875
     5  C   -0.171006
     6  C   -0.218460
     7  H    0.226058
     8  H    0.235127
     9  H    0.276168
    10  H    0.275635
    11  H    0.223414
    12  N    0.488089
    13  O   -0.460531
    14  O   -0.460242
    15  C   -0.299364
    16  C   -0.299338
    17  C   -0.476039
    18  H    0.154267
    19  H    0.148530
    20  H    0.155916
    21  H    0.143227
    22  H    0.153733
    23  H    0.158651
    24  H    0.162000
    25  C   -0.302290
    26  C   -0.300905
    27  C   -0.475024
    28  H    0.154287
    29  H    0.140891
    30  H    0.155206
    31  H    0.153165
    32  H    0.151464
    33  H    0.157373
    34  H    0.165237
 Sum of Mulliken charges =  -0.00000

 Dipole moment (field-independent basis, Debye):
    X=              3.9314    Y=             -3.5189    Z=              0.5535  Tot=              5.3052
 Quadrupole moment (field-independent basis, Debye-Ang):
   XX=           -113.9550   YY=            -91.4338   ZZ=            -95.0419
   XY=             13.9612   XZ=             -3.4077   YZ=             -1.0428

 Normal termination of Gaussian 16 at Thu May  6 09:33:20 2021.
