 Gaussian 16, Revision A.03,
 Gaussian 16:  EM64L-G16RevA.03 25-Dec-2016

 -------------
 #p 6-31g* mp2
 -------------

 ------------------------------------------------------
 Input file generated by CHIRIPA (05-May-2021 14:51:09)
 ------------------------------------------------------
 Symbolic Z-matrix:
 Charge =  0 Multiplicity = 1

                         Standard orientation:
 ---------------------------------------------------------------------
 Center     Atomic      Atomic             Coordinates (Angstroms)
 Number     Number       Type             X           Y           Z
 ---------------------------------------------------------------------
      1          6           0        3.425468    0.652090    0.157370
      2          6           0        4.848902    1.174535   -0.039791
      3          6           0        5.072234    2.540975    0.608869
      4          1           0        2.714168    1.378146   -0.259571
      5          1           0        3.211749    0.587599    1.233269
      6          1           0        5.060355    1.236710   -1.114983
      7          1           0        5.556905    0.447061    0.377496
      8          1           0        4.888268    2.490345    1.686920
      9          1           0        4.388897    3.284480    0.185961
     10          1           0        6.096302    2.895513    0.455741
     11          6           0        3.186706   -0.713013   -0.485449
     12          6           0        1.763272   -1.235458   -0.288289
     13          6           0        1.539940   -2.601898   -0.936949
     14          1           0        3.400425   -0.648522   -1.561349
     15          1           0        3.898006   -1.439069   -0.068509
     16          1           0        1.055268   -0.507984   -0.705576
     17          1           0        1.551819   -1.297633    0.786903
     18          1           0        2.223277   -3.345403   -0.514041
     19          1           0        1.723906   -2.551268   -2.015000
     20          1           0        0.515872   -2.956436   -0.783820
     21          6           0       -3.625134    0.506285   -0.341167
     22          6           0       -4.219259    1.761234    0.299226
     23          6           0       -4.853862    2.703339   -0.724254
     24          1           0       -2.872638    0.802886   -1.084620
     25          1           0       -4.414467   -0.025452   -0.890350
     26          1           0       -3.429344    2.289713    0.848189
     27          1           0       -4.970291    1.461607    1.041378
     28          1           0       -5.660816    2.197943   -1.264627
     29          1           0       -4.111114    3.030757   -1.458914
     30          1           0       -5.272308    3.593820   -0.244872
     31          6           0       -2.987040   -0.445362    0.669246
     32          6           0       -2.392915   -1.700311    0.028854
     33          6           0       -1.758311   -2.642416    1.052334
     34          1           0       -2.197707    0.086375    1.218429
     35          1           0       -3.739536   -0.741963    1.412700
     36          1           0       -1.641883   -1.400683   -0.713299
     37          1           0       -3.182830   -2.228790   -0.520109
     38          1           0       -2.501060   -2.969833    1.786993
     39          1           0       -0.951358   -2.137020    1.592706
     40          1           0       -1.339867   -3.532896    0.572950
 ---------------------------------------------------------------------

 SCF Done:  E(RHF) =  -470.732523664     A.U. after   11 cycles
 E2 =    -0.1583787470D+01 EUMP2 =    -0.47231631113362D+03

 The electronic state is 1-A.
 Alpha  occ. eigenvalues --  -11.21621 -11.21619 -11.21602 -11.21590 -11.21425
 Alpha  occ. eigenvalues --  -11.21403 -11.21365 -11.21343 -11.21088 -11.21074
 Alpha  occ. eigenvalues --  -11.21058 -11.20983  -1.08467  -1.08410  -1.03616
 Alpha  occ. eigenvalues --   -1.03458  -0.96084  -0.95885  -0.87067  -0.86934
 Alpha  occ. eigenvalues --   -0.79612  -0.79589  -0.78268  -0.78240  -0.65094
 Alpha  occ. eigenvalues --   -0.65060  -0.61055  -0.60938  -0.59665  -0.59085
 Alpha  occ. eigenvalues --   -0.57799  -0.57348  -0.55295  -0.55195  -0.52924
 Alpha  occ. eigenvalues --   -0.52547  -0.52463  -0.52163  -0.49950  -0.49887
 Alpha  occ. eigenvalues --   -0.48039  -0.47791  -0.46784  -0.46499  -0.45861
 Alpha  occ. eigenvalues --   -0.45785  -0.45717  -0.45614  -0.43889  -0.43672
 Alpha virt. eigenvalues --    0.20670   0.23144   0.23415   0.25419   0.25763
 Alpha virt. eigenvalues --    0.26119   0.26949   0.27571   0.27926   0.29088
 Alpha virt. eigenvalues --    0.29705   0.31034   0.31254   0.31739   0.32707

 Mulliken charges:
               1
     1  C   -0.298269
     2  C   -0.299644
     3  C   -0.475718
     4  H    0.149272
     5  H    0.149349
     6  H    0.151996
     7  H    0.152070
     8  H    0.155183
     9  H    0.155098
    10  H    0.160354
    11  C   -0.298302
    12  C   -0.301018
    13  C   -0.483135
    14  H    0.149637
    15  H    0.149926
    16  H    0.151430
    17  H    0.152733
    18  H    0.154799
    19  H    0.154351
    20  H    0.169998
    21  C   -0.298208
    22  C   -0.299700
    23  C   -0.475689
    24  H    0.149226
    25  H    0.149545
    26  H    0.152025
    27  H    0.151982
    28  H    0.155191
    29  H    0.155061
    30  H    0.160279
    31  C   -0.298281
    32  C   -0.304513
    33  C   -0.480196
    34  H    0.150104
    35  H    0.149639
    36  H    0.156605
    37  H    0.151849
    38  H    0.155908
    39  H    0.158571
    40  H    0.160491
 Sum of Mulliken charges =  -0.00000

 Dipole moment (field-independent basis, Debye):
    X=             -0.0068    Y=             -0.0096    Z=              0.0128  Tot=              0.0173
 Quadrupole moment (field-independent basis, Debye-Ang):
   XX=            -84.2994   YY=            -85.9230   ZZ=            -84.5882
   XY=              0.3883   XZ=             -0.2561   YZ=             -0.4075

 Normal termination of Gaussian 16 at Thu May  6 00:33:13 2021.
