 Gaussian 16, Revision A.03,
 Gaussian 16:  EM64L-G16RevA.03 25-Dec-2016

 -------------
 #p 6-31g* mp2
 -------------

 ------------------------------------------------------
 Input file generated by CHIRIPA (05-May-2021 14:51:11)
 ------------------------------------------------------
 Symbolic Z-matrix:
 Charge =  0 Multiplicity = 1

                         Standard orientation:
 ---------------------------------------------------------------------
 Center     Atomic      Atomic             Coordinates (Angstroms)
 Number     Number       Type             X           Y           Z
 ---------------------------------------------------------------------
      1          6           0        3.128290   -0.191435   -0.740313
      2          6           0        2.916573   -1.632692   -0.275621
      3          6           0        3.062320   -2.647109   -1.410305
      4          1           0        2.407117    0.040220   -1.536046
      5          1           0        4.127623   -0.100989   -1.188138
      6          1           0        1.918465   -1.720065    0.172446
      7          1           0        3.638207   -1.860880    0.519232
      8          1           0        4.062022   -2.589126   -1.852838
      9          1           0        2.332509   -2.447511   -2.201594
     10          1           0        2.907032   -3.670910   -1.055938
     11          6           0        2.985813    0.834310    0.382753
     12          6           0        3.197530    2.275567   -0.081940
     13          6           0        3.051783    3.289984    1.052745
     14          1           0        1.986480    0.743864    0.830577
     15          1           0        3.706986    0.602655    1.178486
     16          1           0        2.475896    2.503755   -0.876792
     17          1           0        4.195638    2.362941   -0.530007
     18          1           0        3.781594    3.090386    1.844033
     19          1           0        2.052081    3.232001    1.495277
     20          1           0        3.207071    4.313785    0.698378
     21          6           0       -2.369729   -0.571032    0.399513
     22          6           0       -2.387749   -2.003423    0.934224
     23          6           0       -1.005359   -2.488502    1.371819
     24          1           0       -1.673415   -0.511586   -0.448166
     25          1           0       -1.974306    0.097979    1.176339
     26          1           0       -2.784315   -2.669334    0.157105
     27          1           0       -3.084246   -2.059508    1.780606
     28          1           0       -0.605428   -1.847954    2.164506
     29          1           0       -0.303793   -2.461244    0.531781
     30          1           0       -1.041324   -3.514691    1.750635
     31          6           0       -3.744374   -0.071844   -0.041952
     32          6           0       -3.726354    1.360547   -0.576663
     33          6           0       -5.108744    1.845627   -1.014258
     34          1           0       -4.139797   -0.740855   -0.818778
     35          1           0       -4.440688   -0.131289    0.805726
     36          1           0       -3.029857    1.416633   -1.423045
     37          1           0       -3.329787    2.026459    0.200455
     38          1           0       -5.810310    1.818369   -0.174220
     39          1           0       -5.508675    1.205077   -1.806945
     40          1           0       -5.072778    2.871816   -1.393075
 ---------------------------------------------------------------------

 SCF Done:  E(RHF) =  -470.733308277     A.U. after   11 cycles
 E2 =    -0.1582755957D+01 EUMP2 =    -0.47231606423415D+03

 The electronic state is 1-A.
 Alpha  occ. eigenvalues --  -11.21657 -11.21647 -11.21570 -11.21513 -11.21468
 Alpha  occ. eigenvalues --  -11.21405 -11.21362 -11.21303 -11.21120 -11.21105
 Alpha  occ. eigenvalues --  -11.21049 -11.21049  -1.08487  -1.08387  -1.03586
 Alpha  occ. eigenvalues --   -1.03489  -0.96035  -0.95944  -0.87055  -0.86958
 Alpha  occ. eigenvalues --   -0.79682  -0.79523  -0.78315  -0.78184  -0.65138
 Alpha  occ. eigenvalues --   -0.65008  -0.61058  -0.60833  -0.59401  -0.59313
 Alpha  occ. eigenvalues --   -0.57665  -0.57535  -0.55362  -0.55198  -0.52721
 Alpha  occ. eigenvalues --   -0.52645  -0.52483  -0.52356  -0.50028  -0.49852
 Alpha  occ. eigenvalues --   -0.48092  -0.47787  -0.46773  -0.46474  -0.45943
 Alpha  occ. eigenvalues --   -0.45768  -0.45720  -0.45485  -0.43837  -0.43744
 Alpha virt. eigenvalues --    0.21213   0.23167   0.23766   0.24612   0.26070
 Alpha virt. eigenvalues --    0.26617   0.27112   0.27543   0.28057   0.29264
 Alpha virt. eigenvalues --    0.30599   0.31625   0.31717   0.31869   0.31984

 Mulliken charges:
               1
     1  C   -0.297508
     2  C   -0.308246
     3  C   -0.475558
     4  H    0.148863
     5  H    0.149279
     6  H    0.160387
     7  H    0.151933
     8  H    0.155269
     9  H    0.154129
    10  H    0.160380
    11  C   -0.298637
    12  C   -0.299579
    13  C   -0.475658
    14  H    0.150264
    15  H    0.149510
    16  H    0.151935
    17  H    0.151790
    18  H    0.155077
    19  H    0.155093
    20  H    0.160132
    21  C   -0.298402
    22  C   -0.299530
    23  C   -0.481423
    24  H    0.148939
    25  H    0.149299
    26  H    0.152166
    27  H    0.152256
    28  H    0.155512
    29  H    0.160721
    30  H    0.160965
    31  C   -0.298293
    32  C   -0.299689
    33  C   -0.475748
    34  H    0.149738
    35  H    0.149935
    36  H    0.151784
    37  H    0.151924
    38  H    0.155307
    39  H    0.155278
    40  H    0.160404
 Sum of Mulliken charges =  -0.00000

 Dipole moment (field-independent basis, Debye):
    X=             -0.0359    Y=             -0.0166    Z=              0.0199  Tot=              0.0442
 Quadrupole moment (field-independent basis, Debye-Ang):
   XX=            -84.6372   YY=            -85.6151   ZZ=            -84.4984
   XY=              0.3866   XZ=             -0.2094   YZ=             -0.1515

 Normal termination of Gaussian 16 at Thu May  6 07:02:45 2021.
