 Gaussian 16, Revision A.03,
 Gaussian 16:  EM64L-G16RevA.03 25-Dec-2016

 -------------
 #p 6-31g* mp2
 -------------

 ------------------------------------------------------
 Input file generated by CHIRIPA (05-May-2021 14:55:23)
 ------------------------------------------------------
 Symbolic Z-matrix:
 Charge =  0 Multiplicity = 1

                         Standard orientation:
 ---------------------------------------------------------------------
 Center     Atomic      Atomic             Coordinates (Angstroms)
 Number     Number       Type             X           Y           Z
 ---------------------------------------------------------------------
      1          6           0       -0.475547   -1.468242    0.770375
      2          6           0       -1.089816   -1.722546   -0.460285
      3          6           0       -2.258176   -1.046300   -0.823843
      4          6           0       -2.787454   -0.118092    0.071470
      5          6           0       -2.198795    0.157242    1.304742
      6          6           0       -1.031018   -0.530812    1.647415
      7          1           0        0.431836   -1.998153    1.044684
      8          1           0       -0.660664   -2.450032   -1.143393
      9          1           0       -2.754328   -1.223792   -1.770283
     10          1           0       -2.650133    0.888066    1.964749
     11          1           0       -0.556129   -0.331285    2.603822
     12          7           0       -4.024036    0.604070   -0.302358
     13          8           0       -4.470460    1.417069    0.504100
     14          8           0       -4.523431    0.343427   -1.394744
     15          6           0        3.101982    0.964428   -0.493685
     16          6           0        3.554900    2.192455    0.296760
     17          6           0        3.137142    3.507104   -0.362762
     18          1           0        3.518617    1.015600   -1.508939
     19          1           0        2.008888    0.989882   -0.602749
     20          1           0        4.646679    2.163973    0.405493
     21          1           0        3.137293    2.138256    1.310311
     22          1           0        2.047768    3.561691   -0.457015
     23          1           0        3.565729    3.587555   -1.366974
     24          1           0        3.471104    4.371959    0.218922
     25          6           0        3.512164   -0.357419    0.152998
     26          6           0        3.059247   -1.585445   -0.637446
     27          6           0        3.477003   -2.900094    0.022074
     28          1           0        4.605257   -0.382872    0.262062
     29          1           0        3.095528   -0.408591    1.168252
     30          1           0        3.476852   -1.531246   -1.650997
     31          1           0        1.967468   -1.556963   -0.746179
     32          1           0        3.048418   -2.980546    1.026287
     33          1           0        4.566378   -2.954683    0.116328
     34          1           0        3.143043   -3.764949   -0.559609
 ---------------------------------------------------------------------

 SCF Done:  E(RHF) =  -669.534891320     A.U. after   15 cycles
 E2 =    -0.2093176110D+01 EUMP2 =    -0.67162806743019D+03

 The electronic state is 1-A.
 Alpha  occ. eigenvalues --  -20.60808 -20.60803 -15.85863 -11.31250 -11.27828
 Alpha  occ. eigenvalues --  -11.27820 -11.27544 -11.26840 -11.26828 -11.22563
 Alpha  occ. eigenvalues --  -11.22231 -11.22202 -11.22088 -11.21935 -11.21405
 Alpha  occ. eigenvalues --   -1.59883  -1.39436  -1.19432  -1.09189  -1.08811
 Alpha  occ. eigenvalues --   -1.04835  -1.04277  -0.96713  -0.95653  -0.87723
 Alpha  occ. eigenvalues --   -0.86234  -0.82482  -0.80356  -0.78937  -0.77522
 Alpha  occ. eigenvalues --   -0.72081  -0.71207  -0.70600  -0.65844  -0.65080
 Alpha  occ. eigenvalues --   -0.64814  -0.62190  -0.61677  -0.60107  -0.58303
 Alpha  occ. eigenvalues --   -0.56059  -0.55243  -0.53414  -0.53174  -0.53111
 Alpha  occ. eigenvalues --   -0.52921  -0.50660  -0.48841  -0.48835  -0.48645
 Alpha  occ. eigenvalues --   -0.47418  -0.46483  -0.46379  -0.44837  -0.44501
 Alpha  occ. eigenvalues --   -0.37359  -0.36433
 Alpha virt. eigenvalues --    0.04984   0.11088   0.16391   0.19178   0.22876
 Alpha virt. eigenvalues --    0.23794   0.25404   0.26019   0.26957   0.27964
 Alpha virt. eigenvalues --    0.29280   0.29722   0.30954   0.31392   0.32098

 Mulliken charges:
               1
     1  C   -0.172752
     2  C   -0.220370
     3  C   -0.171051
     4  C    0.158190
     5  C   -0.170769
     6  C   -0.221473
     7  H    0.233724
     8  H    0.224865
     9  H    0.276042
    10  H    0.275885
    11  H    0.223790
    12  N    0.488084
    13  O   -0.460269
    14  O   -0.460150
    15  C   -0.300826
    16  C   -0.299563
    17  C   -0.476436
    18  H    0.151467
    19  H    0.153775
    20  H    0.152565
    21  H    0.149788
    22  H    0.157470
    23  H    0.156346
    24  H    0.161636
    25  C   -0.296478
    26  C   -0.309448
    27  C   -0.478492
    28  H    0.153008
    29  H    0.142704
    30  H    0.157472
    31  H    0.149789
    32  H    0.148335
    33  H    0.162177
    34  H    0.160965
 Sum of Mulliken charges =  -0.00000

 Dipole moment (field-independent basis, Debye):
    X=              4.4297    Y=             -2.4638    Z=              1.2473  Tot=              5.2200
 Quadrupole moment (field-independent basis, Debye-Ang):
   XX=           -118.6095   YY=            -94.4736   ZZ=            -90.8139
   XY=              7.0179   XZ=             -4.0192   YZ=              2.5419

 Normal termination of Gaussian 16 at Wed May  5 20:44:21 2021.
