 Gaussian 16, Revision A.03,
 Gaussian 16:  EM64L-G16RevA.03 25-Dec-2016

 -------------
 #p 6-31g* mp2
 -------------

 ------------------------------------------------------
 Input file generated by CHIRIPA (05-May-2021 14:57:26)
 ------------------------------------------------------
 Symbolic Z-matrix:
 Charge =  0 Multiplicity = 1

                         Standard orientation:
 ---------------------------------------------------------------------
 Center     Atomic      Atomic             Coordinates (Angstroms)
 Number     Number       Type             X           Y           Z
 ---------------------------------------------------------------------
      1          6           0       -0.731624    0.749224   -0.185317
      2          6           0       -1.088742   -0.365837    0.579945
      3          6           0       -2.421611   -0.782007    0.649313
      4          6           0       -3.375827   -0.056612   -0.062420
      5          6           0       -3.051423    1.058450   -0.833580
      6          6           0       -1.712375    1.456562   -0.888397
      7          1           0        0.306181    1.065501   -0.233552
      8          1           0       -0.329199   -0.917075    1.127006
      9          1           0       -2.725788   -1.641633    1.234067
     10          1           0       -3.830920    1.587820   -1.367967
     11          1           0       -1.437936    2.322912   -1.483515
     12          7           0       -4.790147   -0.487634    0.003315
     13          8           0       -5.611946    0.168436   -0.632967
     14          8           0       -5.050110   -1.473378    0.689875
     15          6           0        2.551443    2.308470    0.860948
     16          6           0        2.406934    1.218261    1.725289
     17          6           0        2.731500   -0.073237    1.299569
     18          6           0        3.199894   -0.238995   -0.002898
     19          6           0        3.354725    0.827089   -0.887647
     20          6           0        3.024043    2.109754   -0.440468
     21          1           0        2.296937    3.308305    1.199992
     22          1           0        2.040134    1.369605    2.736525
     23          1           0        2.629203   -0.934990    1.947903
     24          1           0        3.722777    0.644816   -1.890011
     25          1           0        3.137275    2.954563   -1.113907
     26          7           0        3.546735   -1.601570   -0.464947
     27          8           0        3.957358   -1.721086   -1.617224
     28          8           0        3.401398   -2.524239    0.333924
 ---------------------------------------------------------------------

 SCF Done:  E(RHF) =  -868.336543567     A.U. after   16 cycles
 E2 =    -0.2603908078D+01 EUMP2 =    -0.87094045164467D+03

 The electronic state is 1-A.
 Alpha  occ. eigenvalues --  -20.61884 -20.61871 -20.60741 -20.60733 -15.86945
 Alpha  occ. eigenvalues --  -15.85796 -11.32644 -11.31143 -11.29193 -11.29178
 Alpha  occ. eigenvalues --  -11.28890 -11.28235 -11.28206 -11.27759 -11.27724
 Alpha  occ. eigenvalues --  -11.27274 -11.26738 -11.26672  -1.60950  -1.59817
 Alpha  occ. eigenvalues --   -1.40494  -1.39371  -1.20860  -1.19320  -1.10150
 Alpha  occ. eigenvalues --   -1.08699  -1.06249  -1.04736  -0.96917  -0.95541
 Alpha  occ. eigenvalues --   -0.87588  -0.86130  -0.83718  -0.82389  -0.78736
 Alpha  occ. eigenvalues --   -0.77450  -0.73142  -0.72297  -0.72011  -0.71833
 Alpha  occ. eigenvalues --   -0.71142  -0.70455  -0.66422  -0.66161  -0.64966
 Alpha  occ. eigenvalues --   -0.64784  -0.63531  -0.62101  -0.56645  -0.56037
 Alpha  occ. eigenvalues --   -0.54256  -0.53648  -0.53062  -0.52817  -0.49929
 Alpha  occ. eigenvalues --   -0.49888  -0.48772  -0.48767  -0.45826  -0.44781
 Alpha  occ. eigenvalues --   -0.38895  -0.37987  -0.37130  -0.36359
 Alpha virt. eigenvalues --    0.03738   0.05109   0.09664   0.11298   0.15205
 Alpha virt. eigenvalues --    0.16600   0.19974   0.21821   0.25477   0.26747
 Alpha virt. eigenvalues --    0.27893   0.28835   0.29918   0.30797   0.31996

 Mulliken charges:
               1
     1  C   -0.176251
     2  C   -0.224908
     3  C   -0.169928
     4  C    0.157367
     5  C   -0.170171
     6  C   -0.224302
     7  H    0.240093
     8  H    0.220942
     9  H    0.276104
    10  H    0.274677
    11  H    0.219023
    12  N    0.488075
    13  O   -0.461202
    14  O   -0.460148
    15  C   -0.180765
    16  C   -0.218954
    17  C   -0.181476
    18  C    0.160977
    19  C   -0.172414
    20  C   -0.224500
    21  H    0.232083
    22  H    0.230803
    23  H    0.278820
    24  H    0.281256
    25  H    0.229091
    26  N    0.488569
    27  O   -0.455051
    28  O   -0.457808
 Sum of Mulliken charges =  -0.00000

 Dipole moment (field-independent basis, Debye):
    X=              4.2007    Y=              6.3031    Z=              1.4041  Tot=              7.7037
 Quadrupole moment (field-independent basis, Debye-Ang):
   XX=           -146.1849   YY=           -104.2927   ZZ=            -99.3433
   XY=              9.9795   XZ=              5.1519   YZ=             -4.8399

 Normal termination of Gaussian 16 at Thu May  6 18:06:31 2021.
