 Gaussian 16, Revision A.03,
 Gaussian 16:  EM64L-G16RevA.03 25-Dec-2016

 -------------
 #p 6-31g* mp2
 -------------

 ------------------------------------------------------
 Input file generated by CHIRIPA (05-May-2021 14:55:23)
 ------------------------------------------------------
 Symbolic Z-matrix:
 Charge =  0 Multiplicity = 1

                         Standard orientation:
 ---------------------------------------------------------------------
 Center     Atomic      Atomic             Coordinates (Angstroms)
 Number     Number       Type             X           Y           Z
 ---------------------------------------------------------------------
      1          6           0       -1.985796   -2.410447   -1.277636
      2          6           0       -2.784564   -1.280368   -1.481135
      3          6           0       -2.686713   -0.178452   -0.626294
      4          6           0       -1.775414   -0.240872    0.426762
      5          6           0       -0.965846   -1.352403    0.655646
      6          6           0       -1.080582   -2.442801   -0.211774
      7          1           0       -2.068368   -3.261968   -1.946583
      8          1           0       -3.488436   -1.252450   -2.308076
      9          1           0       -3.292973    0.709118   -0.760778
     10          1           0       -0.273365   -1.350816    1.488644
     11          1           0       -0.458978   -3.319104   -0.051316
     12          7           0       -1.662885    0.919580    1.338402
     13          8           0       -0.852285    0.839752    2.258832
     14          8           0       -2.387417    1.886998    1.115254
     15          6           0        2.920951    0.113664   -0.362804
     16          6           0        2.819405   -1.103176    0.557507
     17          6           0        4.076811   -1.972604    0.528854
     18          1           0        3.110008   -0.226377   -1.390215
     19          1           0        3.791240    0.716145   -0.067832
     20          1           0        1.948761   -1.702452    0.261765
     21          1           0        2.630377   -0.760206    1.582816
     22          1           0        4.951711   -1.395170    0.844640
     23          1           0        4.266222   -2.342769   -0.483915
     24          1           0        3.982612   -2.836774    1.193831
     25          6           0        1.671586    0.992585   -0.345069
     26          6           0        1.773132    2.209425   -1.265380
     27          6           0        0.515726    3.078852   -1.236726
     28          1           0        0.801297    0.390102   -0.640040
     29          1           0        1.482528    1.332626    0.682343
     30          1           0        1.962160    1.866455   -2.290688
     31          1           0        2.643776    2.808700   -0.969638
     32          1           0        0.326314    3.449018   -0.223957
     33          1           0       -0.359175    2.501419   -1.552513
     34          1           0        0.609924    3.943023   -1.901703
 ---------------------------------------------------------------------

 SCF Done:  E(RHF) =  -669.533741666     A.U. after   15 cycles
 E2 =    -0.2097355547D+01 EUMP2 =    -0.67163109721303D+03

 The electronic state is 1-A.
 Alpha  occ. eigenvalues --  -20.60891 -20.60881 -15.85884 -11.31187 -11.27834
 Alpha  occ. eigenvalues --  -11.27745 -11.27575 -11.26825 -11.26806 -11.21739
 Alpha  occ. eigenvalues --  -11.21260 -11.21249 -11.21163 -11.20836 -11.20478
 Alpha  occ. eigenvalues --   -1.59928  -1.39488  -1.19433  -1.08823  -1.08233
 Alpha  occ. eigenvalues --   -1.04831  -1.03355  -0.95772  -0.95656  -0.86795
 Alpha  occ. eigenvalues --   -0.86221  -0.82504  -0.79477  -0.78165  -0.77461
 Alpha  occ. eigenvalues --   -0.72133  -0.71203  -0.70531  -0.65101  -0.64866
 Alpha  occ. eigenvalues --   -0.64820  -0.62188  -0.60743  -0.59185  -0.57408
 Alpha  occ. eigenvalues --   -0.55331  -0.55066  -0.53275  -0.52924  -0.52473
 Alpha  occ. eigenvalues --   -0.52191  -0.49714  -0.48896  -0.48891  -0.47761
 Alpha  occ. eigenvalues --   -0.46518  -0.45691  -0.45478  -0.44588  -0.43567
 Alpha  occ. eigenvalues --   -0.37328  -0.36324
 Alpha virt. eigenvalues --    0.04901   0.11125   0.16272   0.20908   0.23270
 Alpha virt. eigenvalues --    0.24205   0.26240   0.26550   0.27686   0.28311
 Alpha virt. eigenvalues --    0.29186   0.30398   0.31472   0.31969   0.31991

 Mulliken charges:
               1
     1  C   -0.171000
     2  C   -0.218937
     3  C   -0.172465
     4  C    0.158237
     5  C   -0.170637
     6  C   -0.218838
     7  H    0.226036
     8  H    0.223779
     9  H    0.276202
    10  H    0.279860
    11  H    0.224313
    12  N    0.491592
    13  O   -0.459870
    14  O   -0.458938
    15  C   -0.295035
    16  C   -0.306696
    17  C   -0.475018
    18  H    0.146609
    19  H    0.151052
    20  H    0.142837
    21  H    0.158333
    22  H    0.158400
    23  H    0.153892
    24  H    0.157118
    25  C   -0.318360
    26  C   -0.297729
    27  C   -0.479695
    28  H    0.150634
    29  H    0.169041
    30  H    0.147062
    31  H    0.151593
    32  H    0.169072
    33  H    0.149495
    34  H    0.158060
 Sum of Mulliken charges =  -0.00000

 Dipole moment (field-independent basis, Debye):
    X=             -0.5048    Y=             -3.9656    Z=             -3.0460  Tot=              5.0258
 Quadrupole moment (field-independent basis, Debye-Ang):
   XX=            -91.8929   YY=            -92.3059   ZZ=            -96.2459
   XY=              6.5196   XZ=              8.2355   YZ=             -1.5421

 Normal termination of Gaussian 16 at Thu May  6 20:51:43 2021.
