 Gaussian 16, Revision A.03,
 Gaussian 16:  EM64L-G16RevA.03 25-Dec-2016

 -------------
 #p 6-31g* mp2
 -------------

 ------------------------------------------------------
 Input file generated by CHIRIPA (05-May-2021 14:51:08)
 ------------------------------------------------------
 Symbolic Z-matrix:
 Charge =  0 Multiplicity = 1

                         Standard orientation:
 ---------------------------------------------------------------------
 Center     Atomic      Atomic             Coordinates (Angstroms)
 Number     Number       Type             X           Y           Z
 ---------------------------------------------------------------------
      1          6           0       -4.037013   -0.107892   -0.501130
      2          6           0       -5.017475   -0.928866    0.337131
      3          6           0       -5.809118   -1.936336   -0.497195
      4          1           0       -4.591198    0.421045   -1.288562
      5          1           0       -3.342136   -0.789024   -1.011620
      6          1           0       -5.709425   -0.246313    0.846978
      7          1           0       -4.460915   -1.455759    1.122778
      8          1           0       -5.133677   -2.640248   -0.994072
      9          1           0       -6.389280   -1.423930   -1.271439
     10          1           0       -6.503906   -2.512383    0.121917
     11          6           0       -3.238218    0.903689    0.318844
     12          6           0       -2.257756    1.724662   -0.519417
     13          6           0       -1.466113    2.732132    0.314908
     14          1           0       -3.933095    1.584821    0.829334
     15          1           0       -2.684033    0.374751    1.106276
     16          1           0       -2.814316    2.251556   -1.305064
     17          1           0       -1.565806    1.042110   -1.029264
     18          1           0       -0.885951    2.219727    1.089153
     19          1           0       -2.141554    3.436045    0.811786
     20          1           0       -0.771325    3.308180   -0.304203
     21          6           0        3.052576   -0.705909    0.473622
     22          6           0        1.689979   -0.172817    0.029628
     23          6           0        0.529510   -0.798482    0.803998
     24          1           0        3.071326   -1.797027    0.346921
     25          1           0        3.181420   -0.513713    1.547798
     26          1           0        1.564323   -0.364723   -1.043683
     27          1           0        1.674539    0.917182    0.157221
     28          1           0        0.627409   -0.595497    1.875359
     29          1           0        0.516568   -1.884685    0.667631
     30          1           0       -0.435070   -0.403180    0.470560
     31          6           0        4.222655   -0.089888   -0.291336
     32          6           0        5.585252   -0.622979    0.152658
     33          6           0        6.745720    0.002685   -0.621712
     34          1           0        4.093811   -0.282083   -1.365511
     35          1           0        4.203906    1.001231   -0.164634
     36          1           0        5.600692   -1.712978    0.025065
     37          1           0        5.710908   -0.431073    1.225970
     38          1           0        6.758664    1.088889   -0.485345
     39          1           0        6.647822   -0.200300   -1.693073
     40          1           0        7.710301   -0.392617   -0.288274
 ---------------------------------------------------------------------

 SCF Done:  E(RHF) =  -470.732571358     A.U. after   11 cycles
 E2 =    -0.1583976357D+01 EUMP2 =    -0.47231654771540D+03

 The electronic state is 1-A.
 Alpha  occ. eigenvalues --  -11.21622 -11.21609 -11.21601 -11.21587 -11.21419
 Alpha  occ. eigenvalues --  -11.21399 -11.21359 -11.21339 -11.21076 -11.21072
 Alpha  occ. eigenvalues --  -11.21059 -11.21058  -1.08475  -1.08410  -1.03612
 Alpha  occ. eigenvalues --   -1.03471  -0.96024  -0.95955  -0.87050  -0.86969
 Alpha  occ. eigenvalues --   -0.79614  -0.79591  -0.78269  -0.78232  -0.65188
 Alpha  occ. eigenvalues --   -0.65062  -0.61182  -0.60902  -0.59345  -0.59220
 Alpha  occ. eigenvalues --   -0.57596  -0.57536  -0.55376  -0.55167  -0.52692
 Alpha  occ. eigenvalues --   -0.52666  -0.52432  -0.52382  -0.49942  -0.49917
 Alpha  occ. eigenvalues --   -0.47977  -0.47839  -0.46660  -0.46607  -0.45799
 Alpha  occ. eigenvalues --   -0.45769  -0.45724  -0.45712  -0.43785  -0.43763
 Alpha virt. eigenvalues --    0.20465   0.23020   0.23641   0.25465   0.26155
 Alpha virt. eigenvalues --    0.26483   0.26887   0.27337   0.27941   0.29135
 Alpha virt. eigenvalues --    0.31080   0.31247   0.31741   0.31836   0.32033

 Mulliken charges:
               1
     1  C   -0.298461
     2  C   -0.299712
     3  C   -0.475727
     4  H    0.149785
     5  H    0.149510
     6  H    0.151866
     7  H    0.152500
     8  H    0.155238
     9  H    0.155078
    10  H    0.160254
    11  C   -0.302635
    12  C   -0.304405
    13  C   -0.477597
    14  H    0.150428
    15  H    0.152249
    16  H    0.153480
    17  H    0.153624
    18  H    0.158261
    19  H    0.155118
    20  H    0.160186
    21  C   -0.298456
    22  C   -0.300936
    23  C   -0.486186
    24  H    0.149641
    25  H    0.149604
    26  H    0.151481
    27  H    0.154467
    28  H    0.154577
    29  H    0.154941
    30  H    0.171590
    31  C   -0.298290
    32  C   -0.299657
    33  C   -0.475720
    34  H    0.149511
    35  H    0.149808
    36  H    0.151922
    37  H    0.151965
    38  H    0.155237
    39  H    0.155182
    40  H    0.160278
 Sum of Mulliken charges =  -0.00000

 Dipole moment (field-independent basis, Debye):
    X=             -0.0034    Y=              0.0113    Z=              0.0030  Tot=              0.0122
 Quadrupole moment (field-independent basis, Debye-Ang):
   XX=            -85.5625   YY=            -84.4830   ZZ=            -84.7237
   XY=             -1.2810   XZ=              0.2801   YZ=              0.2474

 Normal termination of Gaussian 16 at Thu May  6 13:12:14 2021.
