 Gaussian 16, Revision A.03,
 Gaussian 16:  EM64L-G16RevA.03 25-Dec-2016

 -------------
 #p 6-31g* mp2
 -------------

 ------------------------------------------------------
 Input file generated by CHIRIPA (05-May-2021 14:55:23)
 ------------------------------------------------------
 Symbolic Z-matrix:
 Charge =  0 Multiplicity = 1

                         Standard orientation:
 ---------------------------------------------------------------------
 Center     Atomic      Atomic             Coordinates (Angstroms)
 Number     Number       Type             X           Y           Z
 ---------------------------------------------------------------------
      1          6           0       -1.577237    1.149597    0.257487
      2          6           0       -1.753944   -0.079846    0.900732
      3          6           0       -2.959318   -0.777689    0.779745
      4          6           0       -3.971394   -0.214267    0.004150
      5          6           0       -3.825760    1.008660   -0.648943
      6          6           0       -2.611885    1.688976   -0.513938
      7          1           0       -0.637572    1.684891    0.356917
      8          1           0       -0.952159   -0.501142    1.500479
      9          1           0       -3.122964   -1.731246    1.266949
     10          1           0       -4.643312    1.403264   -1.239972
     11          1           0       -2.477466    2.643593   -1.014620
     12          7           0       -5.251968   -0.943765   -0.131354
     13          8           0       -6.128165   -0.425975   -0.820419
     14          8           0       -5.355239   -2.019521    0.454069
     15          6           0        4.515984    0.734692    0.309149
     16          6           0        3.133392    1.115757   -0.221145
     17          6           0        2.551893    2.346657    0.474941
     18          1           0        4.448796    0.549020    1.389869
     19          1           0        5.198055    1.586474    0.180149
     20          1           0        2.454486    0.263032   -0.092450
     21          1           0        3.203840    1.300356   -1.300764
     22          1           0        3.206401    3.213155    0.335656
     23          1           0        2.452789    2.169936    1.550836
     24          1           0        1.563261    2.601363    0.080490
     25          6           0        5.110485   -0.493956   -0.376943
     26          6           0        6.493077   -0.875022    0.153352
     27          6           0        7.074576   -2.105922   -0.542736
     28          1           0        4.428414   -1.345739   -0.247943
     29          1           0        5.177672   -0.308285   -1.457664
     30          1           0        6.422627   -1.059621    1.232970
     31          1           0        7.171982   -0.022297    0.024655
     32          1           0        7.173679   -1.929201   -1.618630
     33          1           0        6.420068   -2.972419   -0.403450
     34          1           0        8.063208   -2.360628   -0.148284
 ---------------------------------------------------------------------

 SCF Done:  E(RHF) =  -669.535520464     A.U. after   15 cycles
 E2 =    -0.2090822944D+01 EUMP2 =    -0.67162634340811D+03

 The electronic state is 1-A.
 Alpha  occ. eigenvalues --  -20.60731 -20.60725 -15.85785 -11.31142 -11.27716
 Alpha  occ. eigenvalues --  -11.27712 -11.27417 -11.26724 -11.26713 -11.22627
 Alpha  occ. eigenvalues --  -11.22354 -11.22184 -11.22121 -11.22003 -11.21493
 Alpha  occ. eigenvalues --   -1.59807  -1.39360  -1.19314  -1.09192  -1.08707
 Alpha  occ. eigenvalues --   -1.04719  -1.04327  -0.96788  -0.95543  -0.87804
 Alpha  occ. eigenvalues --   -0.86115  -0.82380  -0.80393  -0.78953  -0.77430
 Alpha  occ. eigenvalues --   -0.72002  -0.71130  -0.70439  -0.65819  -0.64965
 Alpha  occ. eigenvalues --   -0.64728  -0.62070  -0.61715  -0.60238  -0.58395
 Alpha  occ. eigenvalues --   -0.56069  -0.55230  -0.53464  -0.53177  -0.53044
 Alpha  occ. eigenvalues --   -0.52811  -0.50709  -0.48769  -0.48758  -0.48695
 Alpha  occ. eigenvalues --   -0.47416  -0.46504  -0.46402  -0.44768  -0.44570
 Alpha  occ. eigenvalues --   -0.37286  -0.36327
 Alpha virt. eigenvalues --    0.05106   0.11321   0.16585   0.19427   0.22490
 Alpha virt. eigenvalues --    0.23831   0.25768   0.26026   0.26665   0.27329
 Alpha virt. eigenvalues --    0.28963   0.30070   0.30795   0.31394   0.32112

 Mulliken charges:
               1
     1  C   -0.177270
     2  C   -0.221617
     3  C   -0.170666
     4  C    0.158205
     5  C   -0.170660
     6  C   -0.221231
     7  H    0.237612
     8  H    0.223341
     9  H    0.275330
    10  H    0.275447
    11  H    0.223357
    12  N    0.488016
    13  O   -0.460553
    14  O   -0.460610
    15  C   -0.298955
    16  C   -0.300169
    17  C   -0.480897
    18  H    0.150025
    19  H    0.151876
    20  H    0.148858
    21  H    0.155650
    22  H    0.162480
    23  H    0.156211
    24  H    0.151630
    25  C   -0.298789
    26  C   -0.300227
    27  C   -0.476116
    28  H    0.149683
    29  H    0.151190
    30  H    0.152319
    31  H    0.152859
    32  H    0.156056
    33  H    0.155772
    34  H    0.161845
 Sum of Mulliken charges =  -0.00000

 Dipole moment (field-independent basis, Debye):
    X=              4.7773    Y=              2.5684    Z=              0.4573  Tot=              5.4432
 Quadrupole moment (field-independent basis, Debye-Ang):
   XX=           -129.7242   YY=            -93.8644   ZZ=            -93.2936
   XY=            -11.9126   XZ=             -0.8225   YZ=             -3.4004

 Normal termination of Gaussian 16 at Wed May  5 20:40:54 2021.
