 Gaussian 16, Revision A.03,
 Gaussian 16:  EM64L-G16RevA.03 25-Dec-2016

 -------------
 #p 6-31g* mp2
 -------------

 ------------------------------------------------------
 Input file generated by CHIRIPA (05-May-2021 14:55:22)
 ------------------------------------------------------
 Symbolic Z-matrix:
 Charge =  0 Multiplicity = 1

                         Standard orientation:
 ---------------------------------------------------------------------
 Center     Atomic      Atomic             Coordinates (Angstroms)
 Number     Number       Type             X           Y           Z
 ---------------------------------------------------------------------
      1          6           0       -1.659900   -2.637408   -1.096427
      2          6           0       -2.218728   -1.519085   -1.723792
      3          6           0       -2.417038   -0.331512   -1.013235
      4          6           0       -2.043349   -0.297218    0.329326
      5          6           0       -1.484241   -1.394538    0.982456
      6          6           0       -1.295084   -2.571681    0.252317
      7          1           0       -1.509404   -3.555892   -1.656010
      8          1           0       -2.502994   -1.567245   -2.771131
      9          1           0       -2.847603    0.549162   -1.474153
     10          1           0       -1.210824   -1.316131    2.027689
     11          1           0       -0.860875   -3.438622    0.742134
     12          7           0       -2.248446    0.954491    1.091925
     13          8           0       -1.910822    0.959039    2.273715
     14          8           0       -2.742941    1.907332    0.493422
     15          6           0        2.796180   -0.084966   -0.226703
     16          6           0        4.095537   -0.284614    0.554194
     17          6           0        4.530634   -1.749193    0.613297
     18          1           0        2.001762   -0.686584    0.235793
     19          1           0        2.926791   -0.471099   -1.247113
     20          1           0        3.962956    0.103038    1.572410
     21          1           0        4.886907    0.317698    0.089900
     22          1           0        4.690402   -2.144598   -0.395033
     23          1           0        3.761200   -2.360477    1.095900
     24          1           0        5.461596   -1.869028    1.176154
     25          6           0        2.348258    1.373966   -0.294616
     26          6           0        1.048902    1.573613   -1.075512
     27          6           0        0.613805    3.038192   -1.134616
     28          1           0        2.217646    1.760098    0.725794
     29          1           0        3.142676    1.975583   -0.757111
     30          1           0        0.257531    0.971301   -0.611219
     31          1           0        1.181482    1.185961   -2.093729
     32          1           0        1.383237    3.649476   -1.617219
     33          1           0        0.454037    3.433596   -0.126286
     34          1           0       -0.317158    3.158027   -1.697473
 ---------------------------------------------------------------------

 SCF Done:  E(RHF) =  -669.534878168     A.U. after   15 cycles
 E2 =    -0.2094426867D+01 EUMP2 =    -0.67162930503486D+03

 The electronic state is 1-A.
 Alpha  occ. eigenvalues --  -20.60888 -20.60867 -15.85913 -11.31238 -11.27851
 Alpha  occ. eigenvalues --  -11.27817 -11.27576 -11.26870 -11.26840 -11.21591
 Alpha  occ. eigenvalues --  -11.21320 -11.21276 -11.21208 -11.21125 -11.20492
 Alpha  occ. eigenvalues --   -1.59946  -1.39499  -1.19456  -1.08850  -1.08280
 Alpha  occ. eigenvalues --   -1.04848  -1.03360  -0.95793  -0.95677  -0.86802
 Alpha  occ. eigenvalues --   -0.86245  -0.82510  -0.79443  -0.78102  -0.77559
 Alpha  occ. eigenvalues --   -0.72136  -0.71302  -0.70547  -0.65103  -0.64916
 Alpha  occ. eigenvalues --   -0.64845  -0.62194  -0.60768  -0.59187  -0.57412
 Alpha  occ. eigenvalues --   -0.55344  -0.55078  -0.53259  -0.52935  -0.52458
 Alpha  occ. eigenvalues --   -0.52216  -0.49729  -0.48898  -0.48895  -0.47745
 Alpha  occ. eigenvalues --   -0.46495  -0.45605  -0.45544  -0.44885  -0.43600
 Alpha  occ. eigenvalues --   -0.37338  -0.36430
 Alpha virt. eigenvalues --    0.04938   0.11167   0.16422   0.21270   0.22899
 Alpha virt. eigenvalues --    0.24287   0.26521   0.27199   0.27498   0.27933
 Alpha virt. eigenvalues --    0.28479   0.30726   0.31566   0.31786   0.31887

 Mulliken charges:
               1
     1  C   -0.170534
     2  C   -0.215632
     3  C   -0.170628
     4  C    0.153602
     5  C   -0.172639
     6  C   -0.217103
     7  H    0.226214
     8  H    0.223929
     9  H    0.275571
    10  H    0.275756
    11  H    0.224092
    12  N    0.492774
    13  O   -0.460764
    14  O   -0.459504
    15  C   -0.298143
    16  C   -0.299872
    17  C   -0.474702
    18  H    0.146887
    19  H    0.146709
    20  H    0.153904
    21  H    0.152547
    22  H    0.153792
    23  H    0.151089
    24  H    0.160866
    25  C   -0.298634
    26  C   -0.304747
    27  C   -0.475251
    28  H    0.154220
    29  H    0.148986
    30  H    0.152960
    31  H    0.146678
    32  H    0.151142
    33  H    0.164911
    34  H    0.161521
 Sum of Mulliken charges =  -0.00000

 Dipole moment (field-independent basis, Debye):
    X=              0.5915    Y=             -4.3582    Z=             -2.6502  Tot=              5.1349
 Quadrupole moment (field-independent basis, Debye-Ang):
   XX=            -97.7840   YY=            -92.4541   ZZ=            -92.7783
   XY=              8.5500   XZ=              7.2811   YZ=             -2.4073

 Normal termination of Gaussian 16 at Wed May  5 19:02:36 2021.
