 Gaussian 16, Revision A.03,
 Gaussian 16:  EM64L-G16RevA.03 25-Dec-2016

 -------------
 #p 6-31g* mp2
 -------------

 ------------------------------------------------------
 Input file generated by CHIRIPA (05-May-2021 14:57:25)
 ------------------------------------------------------
 Symbolic Z-matrix:
 Charge =  0 Multiplicity = 1

                         Standard orientation:
 ---------------------------------------------------------------------
 Center     Atomic      Atomic             Coordinates (Angstroms)
 Number     Number       Type             X           Y           Z
 ---------------------------------------------------------------------
      1          6           0        4.020223   -2.185847    0.029357
      2          6           0        4.824502   -1.101849    0.396242
      3          6           0        4.369531    0.209209    0.226903
      4          6           0        3.099375    0.400646   -0.314712
      5          6           0        2.274501   -0.658632   -0.689950
      6          6           0        2.750029   -1.961175   -0.511615
      7          1           0        4.381640   -3.201001    0.164398
      8          1           0        5.811380   -1.273335    0.816611
      9          1           0        4.971396    1.066700    0.502373
     10          1           0        1.295245   -0.456101   -1.106431
     11          1           0        2.123237   -2.801104   -0.797440
     12          7           0        2.606836    1.784097   -0.498746
     13          8           0        1.484019    1.926086   -0.978075
     14          8           0        3.352929    2.700260   -0.160179
     15          6           0       -5.355655    0.041552   -0.976164
     16          6           0       -4.521434   -1.058382   -1.201426
     17          6           0       -3.313955   -1.187370   -0.508675
     18          6           0       -2.970271   -0.193343    0.406246
     19          6           0       -3.780053    0.914269    0.652695
     20          6           0       -4.982959    1.022637   -0.051453
     21          1           0       -6.291877    0.133744   -1.518736
     22          1           0       -4.808317   -1.821836   -1.918978
     23          1           0       -2.649271   -2.028559   -0.663642
     24          1           0       -3.467134    1.659191    1.374214
     25          1           0       -5.628849    1.877944    0.125525
     26          7           0       -1.694388   -0.318983    1.145663
     27          8           0       -1.414344    0.570372    1.946450
     28          8           0       -0.998552   -1.304434    0.910429
 ---------------------------------------------------------------------

 SCF Done:  E(RHF) =  -868.338895899     A.U. after   16 cycles
 E2 =    -0.2599224202D+01 EUMP2 =    -0.87093812010144D+03

 The electronic state is 1-A.
 Alpha  occ. eigenvalues --  -20.60908 -20.60812 -20.59883 -20.59877 -15.85897
 Alpha  occ. eigenvalues --  -15.84933 -11.31157 -11.30132 -11.27774 -11.27670
 Alpha  occ. eigenvalues --  -11.27449 -11.26763 -11.26749 -11.26683 -11.26660
 Alpha  occ. eigenvalues --  -11.26497 -11.25773 -11.25670  -1.59915  -1.58950
 Alpha  occ. eigenvalues --   -1.39479  -1.38513  -1.19320  -1.18314  -1.08736
 Alpha  occ. eigenvalues --   -1.07756  -1.04717  -1.03697  -0.95591  -0.94613
 Alpha  occ. eigenvalues --   -0.86122  -0.85124  -0.82436  -0.81453  -0.77495
 Alpha  occ. eigenvalues --   -0.76507  -0.72133  -0.71242  -0.71148  -0.70444
 Alpha  occ. eigenvalues --   -0.70248  -0.69468  -0.64986  -0.64728  -0.63989
 Alpha  occ. eigenvalues --   -0.63737  -0.62074  -0.61063  -0.55228  -0.54271
 Alpha  occ. eigenvalues --   -0.53039  -0.52817  -0.52025  -0.51821  -0.48895
 Alpha  occ. eigenvalues --   -0.48858  -0.47923  -0.47909  -0.44903  -0.43955
 Alpha  occ. eigenvalues --   -0.37290  -0.36315  -0.36308  -0.35249
 Alpha virt. eigenvalues --    0.05026   0.06055   0.11344   0.12380   0.16534
 Alpha virt. eigenvalues --    0.17549   0.21423   0.22363   0.27315   0.27975
 Alpha virt. eigenvalues --    0.28548   0.29210   0.31043   0.31851   0.32546

 Mulliken charges:
               1
     1  C   -0.170971
     2  C   -0.219144
     3  C   -0.171152
     4  C    0.158018
     5  C   -0.156221
     6  C   -0.214609
     7  H    0.221871
     8  H    0.219474
     9  H    0.272477
    10  H    0.273328
    11  H    0.221971
    12  N    0.489974
    13  O   -0.463434
    14  O   -0.463616
    15  C   -0.170249
    16  C   -0.218084
    17  C   -0.171448
    18  C    0.160551
    19  C   -0.168001
    20  C   -0.218141
    21  H    0.225812
    22  H    0.222260
    23  H    0.270028
    24  H    0.278363
    25  H    0.224713
    26  N    0.490212
    27  O   -0.452076
    28  O   -0.471907
 Sum of Mulliken charges =  -0.00000

 Dipole moment (field-independent basis, Debye):
    X=             -3.0635    Y=             -4.3213    Z=             -1.8538  Tot=              5.6121
 Quadrupole moment (field-independent basis, Debye-Ang):
   XX=            -64.8931   YY=           -105.6421   ZZ=           -106.8781
   XY=            -14.7160   XZ=              8.9338   YZ=              5.8168

 Normal termination of Gaussian 16 at Wed May  5 21:08:39 2021.
