 Gaussian 16, Revision A.03,
 Gaussian 16:  EM64L-G16RevA.03 25-Dec-2016

 -------------
 #p 6-31g* mp2
 -------------

 ------------------------------------------------------
 Input file generated by CHIRIPA (05-May-2021 14:53:16)
 ------------------------------------------------------
 Symbolic Z-matrix:
 Charge =  0 Multiplicity = 1

                         Standard orientation:
 ---------------------------------------------------------------------
 Center     Atomic      Atomic             Coordinates (Angstroms)
 Number     Number       Type             X           Y           Z
 ---------------------------------------------------------------------
      1          6           0        4.086354    0.942328    0.164391
      2          6           0        3.083313    1.995821   -0.306828
      3          6           0        3.591799    3.424682   -0.112940
      4          1           0        4.314261    1.111083    1.225770
      5          1           0        5.030117    1.074063   -0.382739
      6          1           0        2.141269    1.861263    0.240039
      7          1           0        2.857621    1.824422   -1.367158
      8          1           0        4.519689    3.582584   -0.672126
      9          1           0        3.799267    3.619634    0.944203
     10          1           0        2.859121    4.161621   -0.456398
     11          6           0        3.592369   -0.491066   -0.022928
     12          6           0        4.595410   -1.544559    0.448291
     13          6           0        4.086923   -2.973420    0.254403
     14          1           0        2.648606   -0.622801    0.524202
     15          1           0        3.364462   -0.659821   -1.084307
     16          1           0        4.821102   -1.373159    1.508621
     17          1           0        5.537454   -1.410000   -0.098576
     18          1           0        3.879456   -3.168371   -0.802740
     19          1           0        3.159034   -3.131321    0.813589
     20          1           0        4.819602   -3.710358    0.597862
     21          6           0       -0.693054   -1.102262   -0.489735
     22          6           0       -1.798842   -1.958624   -0.469727
     23          6           0       -3.081426   -1.456579   -0.229987
     24          6           0       -3.222479   -0.086754   -0.013256
     25          6           0       -2.140414    0.792016   -0.026929
     26          6           0       -0.867062    0.267908   -0.268662
     27          1           0        0.299702   -1.500832   -0.676746
     28          1           0       -1.666693   -3.023150   -0.641090
     29          1           0       -3.954836   -2.096995   -0.208974
     30          1           0       -2.303639    1.848618    0.147334
     31          1           0       -0.010111    0.935334   -0.283620
     32          7           0       -4.575408    0.456417    0.241602
     33          8           0       -4.673087    1.667094    0.429639
     34          8           0       -5.512535   -0.338807    0.248496
 ---------------------------------------------------------------------

 SCF Done:  E(RHF) =  -669.535771982     A.U. after   15 cycles
 E2 =    -0.2091927125D+01 EUMP2 =    -0.67162769910639D+03

 The electronic state is 1-A.
 Alpha  occ. eigenvalues --  -20.60694 -20.60689 -15.85746 -11.31090 -11.27659
 Alpha  occ. eigenvalues --  -11.27646 -11.27349 -11.26661 -11.26603 -11.22777
 Alpha  occ. eigenvalues --  -11.22619 -11.22553 -11.22414 -11.22048 -11.21933
 Alpha  occ. eigenvalues --   -1.59770  -1.39324  -1.19254  -1.09523  -1.08647
 Alpha  occ. eigenvalues --   -1.04657  -1.04550  -0.96980  -0.95488  -0.87996
 Alpha  occ. eigenvalues --   -0.86053  -0.82326  -0.80637  -0.79391  -0.77375
 Alpha  occ. eigenvalues --   -0.71964  -0.71093  -0.70349  -0.66155  -0.64901
 Alpha  occ. eigenvalues --   -0.64653  -0.62083  -0.61868  -0.60351  -0.58611
 Alpha  occ. eigenvalues --   -0.56259  -0.55142  -0.53654  -0.53406  -0.52986
 Alpha  occ. eigenvalues --   -0.52755  -0.50910  -0.48950  -0.48721  -0.48698
 Alpha  occ. eigenvalues --   -0.47654  -0.46874  -0.46810  -0.44818  -0.44734
 Alpha  occ. eigenvalues --   -0.37227  -0.36261
 Alpha virt. eigenvalues --    0.05145   0.11348   0.16622   0.19474   0.22414
 Alpha virt. eigenvalues --    0.22620   0.25052   0.25720   0.26894   0.27400
 Alpha virt. eigenvalues --    0.29482   0.30204   0.30606   0.31373   0.31678

 Mulliken charges:
               1
     1  C   -0.297671
     2  C   -0.307937
     3  C   -0.475513
     4  H    0.153781
     5  H    0.154130
     6  H    0.147934
     7  H    0.152681
     8  H    0.158816
     9  H    0.158412
    10  H    0.162438
    11  C   -0.304733
    12  C   -0.299564
    13  C   -0.477967
    14  H    0.146271
    15  H    0.148032
    16  H    0.155741
    17  H    0.155699
    18  H    0.154081
    19  H    0.153016
    20  H    0.165411
    21  C   -0.177391
    22  C   -0.218890
    23  C   -0.171214
    24  C    0.158729
    25  C   -0.173149
    26  C   -0.227548
    27  H    0.230832
    28  H    0.223176
    29  H    0.275132
    30  H    0.275481
    31  H    0.235238
    32  N    0.488057
    33  O   -0.460713
    34  O   -0.460800
 Sum of Mulliken charges =  -0.00000

 Dipole moment (field-independent basis, Debye):
    X=              5.1163    Y=             -1.8575    Z=             -0.8669  Tot=              5.5117
 Quadrupole moment (field-independent basis, Debye-Ang):
   XX=           -123.8677   YY=            -90.9903   ZZ=            -94.6898
   XY=              7.7551   XZ=              2.7882   YZ=              0.4517

 Normal termination of Gaussian 16 at Thu May  6 04:20:07 2021.
