 Gaussian 16, Revision A.03,
 Gaussian 16:  EM64L-G16RevA.03 25-Dec-2016

 -------------
 #p 6-31g* mp2
 -------------

 ------------------------------------------------------
 Input file generated by CHIRIPA (05-May-2021 14:53:15)
 ------------------------------------------------------
 Symbolic Z-matrix:
 Charge =  0 Multiplicity = 1

                         Standard orientation:
 ---------------------------------------------------------------------
 Center     Atomic      Atomic             Coordinates (Angstroms)
 Number     Number       Type             X           Y           Z
 ---------------------------------------------------------------------
      1          6           0       -4.343961   -0.066581    0.323126
      2          6           0       -4.165827   -1.526281   -0.095837
      3          6           0       -5.306052   -2.423247    0.387000
      4          1           0       -4.416665   -0.012251    1.417980
      5          1           0       -5.298496    0.307284   -0.072453
      6          1           0       -3.211264   -1.896866    0.299247
      7          1           0       -4.093347   -1.577122   -1.189811
      8          1           0       -6.263693   -2.080687   -0.018189
      9          1           0       -5.376598   -2.402248    1.479329
     10          1           0       -5.158500   -3.462316    0.076475
     11          6           0       -3.212034    0.842569   -0.152180
     12          6           0       -3.390167    2.302269    0.266782
     13          6           0       -2.249943    3.199236   -0.216055
     14          1           0       -2.257499    0.468704    0.243398
     15          1           0       -3.139330    0.788239   -1.247035
     16          1           0       -3.462648    2.353110    1.360756
     17          1           0       -4.344730    2.672854   -0.128302
     18          1           0       -2.179397    3.178237   -1.308384
     19          1           0       -1.292302    2.856675    0.189134
     20          1           0       -2.397495    4.238304    0.094470
     21          6           0        0.580135   -1.011190   -0.557593
     22          6           0        0.901369    0.347441   -0.471272
     23          6           0        2.212004    0.751288   -0.199812
     24          6           0        3.180821   -0.234667   -0.019325
     25          6           0        2.892061   -1.596114   -0.099120
     26          6           0        1.574752   -1.976929   -0.371569
     27          1           0       -0.440590   -1.315962   -0.768854
     28          1           0        0.130984    1.099645   -0.615292
     29          1           0        2.488304    1.796204   -0.127509
     30          1           0        3.681600   -2.322787    0.049175
     31          1           0        1.328172   -3.032782   -0.438032
     32          7           0        4.571864    0.180676    0.268581
     33          8           0        5.407172   -0.707505    0.423597
     34          8           0        4.800516    1.386539    0.333773
 ---------------------------------------------------------------------

 SCF Done:  E(RHF) =  -669.535397118     A.U. after   15 cycles
 E2 =    -0.2092575212D+01 EUMP2 =    -0.67162797232946D+03

 The electronic state is 1-A.
 Alpha  occ. eigenvalues --  -20.60702 -20.60697 -15.85754 -11.31105 -11.27676
 Alpha  occ. eigenvalues --  -11.27658 -11.27370 -11.26680 -11.26601 -11.22673
 Alpha  occ. eigenvalues --  -11.22643 -11.22582 -11.22379 -11.22199 -11.21904
 Alpha  occ. eigenvalues --   -1.59778  -1.39332  -1.19270  -1.09518  -1.08662
 Alpha  occ. eigenvalues --   -1.04680  -1.04555  -0.97013  -0.95503  -0.88027
 Alpha  occ. eigenvalues --   -0.86073  -0.82338  -0.80641  -0.79382  -0.77386
 Alpha  occ. eigenvalues --   -0.71972  -0.71101  -0.70370  -0.66160  -0.64917
 Alpha  occ. eigenvalues --   -0.64672  -0.62148  -0.61834  -0.60362  -0.58641
 Alpha  occ. eigenvalues --   -0.56311  -0.55149  -0.53669  -0.53472  -0.53003
 Alpha  occ. eigenvalues --   -0.52753  -0.50945  -0.48957  -0.48729  -0.48705
 Alpha  occ. eigenvalues --   -0.47649  -0.46858  -0.46791  -0.44822  -0.44741
 Alpha  occ. eigenvalues --   -0.37239  -0.36273
 Alpha virt. eigenvalues --    0.05127   0.11279   0.16579   0.19593   0.22069
 Alpha virt. eigenvalues --    0.22712   0.25040   0.25704   0.25996   0.28364
 Alpha virt. eigenvalues --    0.30029   0.30133   0.30818   0.31227   0.31880

 Mulliken charges:
               1
     1  C   -0.297981
     2  C   -0.302733
     3  C   -0.476067
     4  H    0.153571
     5  H    0.153712
     6  H    0.147199
     7  H    0.151676
     8  H    0.158183
     9  H    0.157899
    10  H    0.161639
    11  C   -0.307176
    12  C   -0.299468
    13  C   -0.482166
    14  H    0.146738
    15  H    0.148992
    16  H    0.156440
    17  H    0.156573
    18  H    0.156187
    19  H    0.150716
    20  H    0.168147
    21  C   -0.177147
    22  C   -0.227694
    23  C   -0.173295
    24  C    0.158573
    25  C   -0.171108
    26  C   -0.219064
    27  H    0.231230
    28  H    0.235988
    29  H    0.275377
    30  H    0.275220
    31  H    0.223066
    32  N    0.488096
    33  O   -0.460768
    34  O   -0.460556
 Sum of Mulliken charges =  -0.00000

 Dipole moment (field-independent basis, Debye):
    X=             -5.2252    Y=             -1.3802    Z=             -0.9642  Tot=              5.4897
 Quadrupole moment (field-independent basis, Debye-Ang):
   XX=           -125.2214   YY=            -89.5440   ZZ=            -94.8913
   XY=             -5.9578   XZ=             -2.6582   YZ=              0.1277

 Normal termination of Gaussian 16 at Thu May  6 12:08:23 2021.
