 Gaussian 16, Revision A.03,
 Gaussian 16:  EM64L-G16RevA.03 25-Dec-2016

 -------------
 #p 6-31g* mp2
 -------------

 ------------------------------------------------------
 Input file generated by CHIRIPA (05-May-2021 14:57:26)
 ------------------------------------------------------
 Symbolic Z-matrix:
 Charge =  0 Multiplicity = 1

                         Standard orientation:
 ---------------------------------------------------------------------
 Center     Atomic      Atomic             Coordinates (Angstroms)
 Number     Number       Type             X           Y           Z
 ---------------------------------------------------------------------
      1          6           0       -3.329374   -2.329879   -0.099351
      2          6           0       -2.437994   -1.437884    0.505881
      3          6           0       -2.737674   -0.074258    0.578436
      4          6           0       -3.943046    0.364962    0.033042
      5          6           0       -4.851673   -0.498926   -0.576371
      6          6           0       -4.531250   -1.858385   -0.637596
      7          1           0       -3.088519   -3.387558   -0.151312
      8          1           0       -1.503869   -1.801228    0.924733
      9          1           0       -2.065705    0.638205    1.041333
     10          1           0       -5.775143   -0.106961   -0.985009
     11          1           0       -5.225407   -2.548824   -1.108219
     12          7           0       -4.271283    1.806366    0.103856
     13          8           0       -5.339728    2.168189   -0.384147
     14          8           0       -3.453896    2.547022    0.646021
     15          6           0        1.883326   -1.595152    0.413497
     16          6           0        2.241815   -1.270577   -0.899003
     17          6           0        3.351139   -0.458137   -1.151768
     18          6           0        4.082845    0.014496   -0.063413
     19          6           0        3.750959   -0.291227    1.255555
     20          6           0        2.637712   -1.105305    1.484699
     21          1           0        1.020052   -2.226911    0.600676
     22          1           0        1.657790   -1.649573   -1.732863
     23          1           0        3.650982   -0.191280   -2.157899
     24          1           0        4.352545    0.101598    2.066234
     25          1           0        2.361642   -1.355741    2.505048
     26          7           0        5.259313    0.875456   -0.318500
     27          8           0        5.887565    1.279164    0.657694
     28          8           0        5.530899    1.130268   -1.489802
 ---------------------------------------------------------------------

 SCF Done:  E(RHF) =  -868.336423331     A.U. after   16 cycles
 E2 =    -0.2599703175D+01 EUMP2 =    -0.87093612650592D+03

 The electronic state is 1-A.
 Alpha  occ. eigenvalues --  -20.61232 -20.61227 -20.61071 -20.61066 -15.86294
 Alpha  occ. eigenvalues --  -15.86128 -11.31808 -11.31652 -11.28444 -11.28387
 Alpha  occ. eigenvalues --  -11.28234 -11.28216 -11.28207 -11.28138 -11.27578
 Alpha  occ. eigenvalues --  -11.27420 -11.27338 -11.27318  -1.60305  -1.60141
 Alpha  occ. eigenvalues --   -1.39854  -1.39690  -1.20018  -1.19846  -1.09394
 Alpha  occ. eigenvalues --   -1.09244  -1.05453  -1.05260  -0.96192  -0.96050
 Alpha  occ. eigenvalues --   -0.86854  -0.86668  -0.83035  -0.82859  -0.78044
 Alpha  occ. eigenvalues --   -0.77856  -0.72508  -0.72346  -0.71632  -0.71463
 Alpha  occ. eigenvalues --   -0.71136  -0.71050  -0.65677  -0.65514  -0.65506
 Alpha  occ. eigenvalues --   -0.65259  -0.62803  -0.62593  -0.56038  -0.55823
 Alpha  occ. eigenvalues --   -0.53767  -0.53621  -0.53506  -0.53362  -0.49281
 Alpha  occ. eigenvalues --   -0.49252  -0.49118  -0.49089  -0.45226  -0.45060
 Alpha  occ. eigenvalues --   -0.38025  -0.37885  -0.37052  -0.36844
 Alpha virt. eigenvalues --    0.04502   0.04650   0.10555   0.10799   0.15846
 Alpha virt. eigenvalues --    0.16057   0.18479   0.21827   0.24847   0.26833
 Alpha virt. eigenvalues --    0.27624   0.28700   0.29896   0.31492   0.32109

 Mulliken charges:
               1
     1  C   -0.171714
     2  C   -0.221746
     3  C   -0.170392
     4  C    0.158904
     5  C   -0.169680
     6  C   -0.218476
     7  H    0.224640
     8  H    0.215669
     9  H    0.277949
    10  H    0.277957
    11  H    0.225503
    12  N    0.487985
    13  O   -0.458612
    14  O   -0.458556
    15  C   -0.175139
    16  C   -0.217339
    17  C   -0.169908
    18  C    0.160022
    19  C   -0.169843
    20  C   -0.218683
    21  H    0.217427
    22  H    0.224283
    23  H    0.277883
    24  H    0.277827
    25  H    0.223236
    26  N    0.487964
    27  O   -0.458639
    28  O   -0.458524
 Sum of Mulliken charges =  -0.00000

 Dipole moment (field-independent basis, Debye):
    X=             -2.9728    Y=             -7.9297    Z=              0.5621  Tot=              8.4872
 Quadrupole moment (field-independent basis, Debye-Ang):
   XX=           -143.1335   YY=           -110.0517   ZZ=            -99.5497
   XY=              9.0829   XZ=              8.3695   YZ=              0.9798

 Normal termination of Gaussian 16 at Thu May  6 22:54:36 2021.
