 Gaussian 16, Revision A.03,
 Gaussian 16:  EM64L-G16RevA.03 25-Dec-2016

 -------------
 #p 6-31g* mp2
 -------------

 ------------------------------------------------------
 Input file generated by CHIRIPA (05-May-2021 14:57:21)
 ------------------------------------------------------
 Symbolic Z-matrix:
 Charge =  0 Multiplicity = 1

                         Standard orientation:
 ---------------------------------------------------------------------
 Center     Atomic      Atomic             Coordinates (Angstroms)
 Number     Number       Type             X           Y           Z
 ---------------------------------------------------------------------
      1          6           0        4.043209   -2.342137    0.031774
      2          6           0        2.740035   -1.879335   -0.178161
      3          6           0        2.481839   -0.509611   -0.286512
      4          6           0        3.555311    0.373293   -0.179612
      5          6           0        4.864709   -0.056866    0.029505
      6          6           0        5.099524   -1.431032    0.134755
      7          1           0        4.234700   -3.407897    0.114739
      8          1           0        1.917740   -2.584613   -0.258535
      9          1           0        1.482683   -0.124023   -0.449077
     10          1           0        5.663909    0.670410    0.105437
     11          1           0        6.112605   -1.787589    0.297788
     12          7           0        3.294346    1.825709   -0.292677
     13          8           0        4.257387    2.583101   -0.194963
     14          8           0        2.131703    2.179221   -0.476871
     15          6           0       -1.262603   -0.668770    0.951089
     16          6           0       -1.862904    0.542478    1.310304
     17          6           0       -3.156618    0.849365    0.878247
     18          6           0       -3.824129   -0.082209    0.084592
     19          6           0       -3.252999   -1.297419   -0.290062
     20          6           0       -1.958340   -1.583241    0.153459
     21          1           0       -0.257247   -0.898985    1.291174
     22          1           0       -1.324960    1.254562    1.929659
     23          1           0       -3.645144    1.779651    1.141552
     24          1           0       -3.814265   -1.987314   -0.908483
     25          1           0       -1.494632   -2.524691   -0.127063
     26          7           0       -5.194227    0.231527   -0.378875
     27          8           0       -5.761186   -0.606028   -1.077226
     28          8           0       -5.675207    1.309050   -0.035014
 ---------------------------------------------------------------------

 SCF Done:  E(RHF) =  -868.337205361     A.U. after   16 cycles
 E2 =    -0.2600627434D+01 EUMP2 =    -0.87093783279531D+03

 The electronic state is 1-A.
 Alpha  occ. eigenvalues --  -20.61492 -20.61474 -20.60841 -20.60828 -15.86544
 Alpha  occ. eigenvalues --  -15.85892 -11.32008 -11.31356 -11.28617 -11.28556
 Alpha  occ. eigenvalues --  -11.28339 -11.27955 -11.27844 -11.27736 -11.27714
 Alpha  occ. eigenvalues --  -11.27567 -11.27108 -11.26895  -1.60561  -1.59909
 Alpha  occ. eigenvalues --   -1.40111  -1.39460  -1.20199  -1.19534  -1.09565
 Alpha  occ. eigenvalues --   -1.08942  -1.05630  -1.04938  -0.96385  -0.95754
 Alpha  occ. eigenvalues --   -0.87010  -0.86349  -0.83228  -0.82570  -0.78263
 Alpha  occ. eigenvalues --   -0.77582  -0.72758  -0.72111  -0.71891  -0.71350
 Alpha  occ. eigenvalues --   -0.71229  -0.70645  -0.65849  -0.65632  -0.65196
 Alpha  occ. eigenvalues --   -0.64961  -0.62968  -0.62273  -0.56114  -0.55508
 Alpha  occ. eigenvalues --   -0.53918  -0.53728  -0.53235  -0.53036  -0.49524
 Alpha  occ. eigenvalues --   -0.49506  -0.48878  -0.48858  -0.45497  -0.44842
 Alpha  occ. eigenvalues --   -0.38163  -0.37570  -0.37225  -0.36515
 Alpha virt. eigenvalues --    0.04236   0.04895   0.10403   0.11106   0.15628
 Alpha virt. eigenvalues --    0.16227   0.19069   0.21979   0.25268   0.27017
 Alpha virt. eigenvalues --    0.27733   0.29191   0.30181   0.31078   0.31698

 Mulliken charges:
               1
     1  C   -0.169823
     2  C   -0.221698
     3  C   -0.179889
     4  C    0.158748
     5  C   -0.169470
     6  C   -0.218160
     7  H    0.227989
     8  H    0.218222
     9  H    0.278836
    10  H    0.278296
    11  H    0.226667
    12  N    0.487575
    13  O   -0.457287
    14  O   -0.460828
    15  C   -0.179480
    16  C   -0.214220
    17  C   -0.169634
    18  C    0.159873
    19  C   -0.170276
    20  C   -0.220086
    21  H    0.223489
    22  H    0.231181
    23  H    0.278580
    24  H    0.275668
    25  H    0.216419
    26  N    0.487966
    27  O   -0.460560
    28  O   -0.458096
 Sum of Mulliken charges =  -0.00000

 Dipole moment (field-independent basis, Debye):
    X=              5.8331    Y=             -6.0101    Z=              2.0630  Tot=              8.6257
 Quadrupole moment (field-independent basis, Debye-Ang):
   XX=           -129.2867   YY=           -105.1524   ZZ=           -104.8930
   XY=            -13.3512   XZ=             -3.9218   YZ=              3.5605

 Normal termination of Gaussian 16 at Thu May  6 12:47:20 2021.
