 Gaussian 16, Revision A.03,
 Gaussian 16:  EM64L-G16RevA.03 25-Dec-2016

 -------------
 #p 6-31g* mp2
 -------------

 ------------------------------------------------------
 Input file generated by CHIRIPA (05-May-2021 14:57:22)
 ------------------------------------------------------
 Symbolic Z-matrix:
 Charge =  0 Multiplicity = 1

                         Standard orientation:
 ---------------------------------------------------------------------
 Center     Atomic      Atomic             Coordinates (Angstroms)
 Number     Number       Type             X           Y           Z
 ---------------------------------------------------------------------
      1          6           0        4.395020    1.986278    0.853436
      2          6           0        5.180490    1.144058    0.059570
      3          6           0        4.630831   -0.005499   -0.515706
      4          6           0        3.286197   -0.283734   -0.275213
      5          6           0        2.477742    0.535710    0.511046
      6          6           0        3.048527    1.679957    1.076247
      7          1           0        4.830214    2.877219    1.296411
      8          1           0        6.226479    1.379457   -0.115180
      9          1           0        5.216086   -0.674885   -1.134429
     10          1           0        1.438058    0.274776    0.667214
     11          1           0        2.436129    2.332216    1.692340
     12          7           0        2.693116   -1.497907   -0.878899
     13          8           0        1.505950   -1.720848   -0.651801
     14          8           0        3.426653   -2.203644   -1.567734
     15          6           0       -4.598773    1.449173   -1.563647
     16          6           0       -5.176048    0.276392   -1.065789
     17          6           0       -4.511990   -0.488105   -0.101881
     18          6           0       -3.266499   -0.048393    0.343873
     19          6           0       -2.665238    1.115475   -0.132766
     20          6           0       -3.347416    1.864239   -1.096370
     21          1           0       -5.121667    2.036942   -2.312316
     22          1           0       -6.147751   -0.048374   -1.426851
     23          1           0       -4.935861   -1.400090    0.300652
     24          1           0       -1.695362    1.413715    0.246460
     25          1           0       -2.896682    2.774610   -1.481220
     26          7           0       -2.553900   -0.849404    1.364158
     27          8           0       -1.457663   -0.440484    1.740574
     28          8           0       -3.105093   -1.870988    1.768125
 ---------------------------------------------------------------------

 SCF Done:  E(RHF) =  -868.338233505     A.U. after   16 cycles
 E2 =    -0.2599441469D+01 EUMP2 =    -0.87093767497448D+03

 The electronic state is 1-A.
 Alpha  occ. eigenvalues --  -20.60712 -20.60683 -20.60248 -20.60213 -15.85744
 Alpha  occ. eigenvalues --  -15.85288 -11.31096 -11.30705 -11.27728 -11.27636
 Alpha  occ. eigenvalues --  -11.27409 -11.27339 -11.27194 -11.27105 -11.26713
 Alpha  occ. eigenvalues --  -11.26664 -11.26371 -11.26316  -1.59736  -1.59314
 Alpha  occ. eigenvalues --   -1.39303  -1.38860  -1.19265  -1.18904  -1.08658
 Alpha  occ. eigenvalues --   -1.08301  -1.04682  -1.04310  -0.95502  -0.95115
 Alpha  occ. eigenvalues --   -0.86082  -0.85708  -0.82351  -0.81941  -0.77405
 Alpha  occ. eigenvalues --   -0.76958  -0.71983  -0.71505  -0.71023  -0.70643
 Alpha  occ. eigenvalues --   -0.70396  -0.70008  -0.64935  -0.64699  -0.64556
 Alpha  occ. eigenvalues --   -0.64317  -0.62052  -0.61627  -0.55186  -0.54837
 Alpha  occ. eigenvalues --   -0.52987  -0.52791  -0.52654  -0.52395  -0.48731
 Alpha  occ. eigenvalues --   -0.48702  -0.48282  -0.48245  -0.44698  -0.44254
 Alpha  occ. eigenvalues --   -0.37230  -0.36918  -0.36276  -0.35924
 Alpha virt. eigenvalues --    0.05146   0.05554   0.11375   0.11722   0.16618
 Alpha virt. eigenvalues --    0.17017   0.20828   0.22042   0.25961   0.27668
 Alpha virt. eigenvalues --    0.28164   0.29282   0.30754   0.31549   0.32034

 Mulliken charges:
               1
     1  C   -0.171016
     2  C   -0.219388
     3  C   -0.171036
     4  C    0.156943
     5  C   -0.178898
     6  C   -0.221063
     7  H    0.223476
     8  H    0.221485
     9  H    0.274242
    10  H    0.291969
    11  H    0.222559
    12  N    0.486941
    13  O   -0.455104
    14  O   -0.463852
    15  C   -0.170494
    16  C   -0.218114
    17  C   -0.169804
    18  C    0.161786
    19  C   -0.167026
    20  C   -0.217953
    21  H    0.225370
    22  H    0.223787
    23  H    0.276568
    24  H    0.267736
    25  H    0.221762
    26  N    0.493472
    27  O   -0.468294
    28  O   -0.456053
 Sum of Mulliken charges =  -0.00000

 Dipole moment (field-independent basis, Debye):
    X=             -0.6997    Y=              6.9435    Z=             -1.4350  Tot=              7.1247
 Quadrupole moment (field-independent basis, Debye-Ang):
   XX=            -68.6195   YY=           -106.3413   ZZ=           -109.1266
   XY=              6.3537   XZ=             15.5726   YZ=             -0.3416

 Normal termination of Gaussian 16 at Thu May  6 22:38:20 2021.
