 Gaussian 16, Revision A.03,
 Gaussian 16:  EM64L-G16RevA.03 25-Dec-2016

 -------------
 #p 6-31g* mp2
 -------------

 ------------------------------------------------------
 Input file generated by CHIRIPA (05-May-2021 14:53:15)
 ------------------------------------------------------
 Symbolic Z-matrix:
 Charge =  0 Multiplicity = 1

                         Standard orientation:
 ---------------------------------------------------------------------
 Center     Atomic      Atomic             Coordinates (Angstroms)
 Number     Number       Type             X           Y           Z
 ---------------------------------------------------------------------
      1          6           0       -3.802546    0.393878   -0.104755
      2          6           0       -3.812344   -1.135107   -0.095147
      3          6           0       -5.225138   -1.716864   -0.037121
      4          1           0       -4.316076    0.763158    0.793501
      5          1           0       -4.383182    0.751923   -0.966184
      6          1           0       -3.230704   -1.490173    0.765225
      7          1           0       -3.298563   -1.500790   -0.993434
      8          1           0       -5.811783   -1.390961   -0.902128
      9          1           0       -5.743539   -1.380284    0.866524
     10          1           0       -5.208754   -2.811193   -0.031147
     11          6           0       -2.397337    0.990347   -0.162577
     12          6           0       -2.387539    2.519332   -0.172185
     13          6           0       -0.974745    3.101089   -0.230210
     14          1           0       -1.816701    0.632302    0.698853
     15          1           0       -1.883807    0.621067   -1.060833
     16          1           0       -2.901320    2.885015    0.726102
     17          1           0       -2.969179    2.874398   -1.032557
     18          1           0       -0.456344    2.764509   -1.133856
     19          1           0       -0.388100    2.775187    0.634796
     20          1           0       -0.991129    4.195418   -0.236185
     21          6           0        0.134420   -1.517859    0.527354
     22          6           0        0.760693   -0.749355    1.514118
     23          6           0        2.028029   -0.203003    1.290721
     24          6           0        2.642968   -0.446246    0.063540
     25          6           0        2.044883   -1.207674   -0.939362
     26          6           0        0.777380   -1.744168   -0.694083
     27          1           0       -0.850142   -1.938450    0.709392
     28          1           0        0.263735   -0.571958    2.463648
     29          1           0        2.535709    0.395700    2.037202
     30          1           0        2.565280   -1.367198   -1.875928
     31          1           0        0.293402   -2.340606   -1.462245
     32          7           0        3.984728    0.126933   -0.184544
     33          8           0        4.505377   -0.101982   -1.274112
     34          8           0        4.490344    0.794254    0.715276
 ---------------------------------------------------------------------

 SCF Done:  E(RHF) =  -669.534131229     A.U. after   15 cycles
 E2 =    -0.2094212626D+01 EUMP2 =    -0.67162834385473D+03

 The electronic state is 1-A.
 Alpha  occ. eigenvalues --  -20.60721 -20.60716 -15.85779 -11.31128 -11.27746
 Alpha  occ. eigenvalues --  -11.27741 -11.27409 -11.26714 -11.26699 -11.22748
 Alpha  occ. eigenvalues --  -11.22158 -11.22035 -11.21949 -11.21926 -11.21330
 Alpha  occ. eigenvalues --   -1.59798  -1.39352  -1.19324  -1.09184  -1.08696
 Alpha  occ. eigenvalues --   -1.04736  -1.04215  -0.96618  -0.95548  -0.87637
 Alpha  occ. eigenvalues --   -0.86132  -0.82395  -0.80349  -0.78972  -0.77432
 Alpha  occ. eigenvalues --   -0.71998  -0.71122  -0.70432  -0.65816  -0.64970
 Alpha  occ. eigenvalues --   -0.64736  -0.62088  -0.61621  -0.60032  -0.58244
 Alpha  occ. eigenvalues --   -0.55890  -0.55255  -0.53348  -0.53221  -0.52878
 Alpha  occ. eigenvalues --   -0.52826  -0.50570  -0.48766  -0.48752  -0.48606
 Alpha  occ. eigenvalues --   -0.47395  -0.46447  -0.46403  -0.44762  -0.44455
 Alpha  occ. eigenvalues --   -0.37161  -0.36328
 Alpha virt. eigenvalues --    0.05100   0.11146   0.16525   0.19914   0.22779
 Alpha virt. eigenvalues --    0.23549   0.24990   0.26038   0.27354   0.27640
 Alpha virt. eigenvalues --    0.29388   0.30260   0.30941   0.31299   0.31921

 Mulliken charges:
               1
     1  C   -0.297956
     2  C   -0.303296
     3  C   -0.475045
     4  H    0.151010
     5  H    0.152868
     6  H    0.142526
     7  H    0.149344
     8  H    0.159144
     9  H    0.157859
    10  H    0.160424
    11  C   -0.300152
    12  C   -0.300524
    13  C   -0.474998
    14  H    0.147357
    15  H    0.150597
    16  H    0.151247
    17  H    0.152963
    18  H    0.157575
    19  H    0.154084
    20  H    0.162253
    21  C   -0.166995
    22  C   -0.221889
    23  C   -0.170591
    24  C    0.157915
    25  C   -0.170390
    26  C   -0.223055
    27  H    0.234718
    28  H    0.222254
    29  H    0.275481
    30  H    0.275400
    31  H    0.223210
    32  N    0.488179
    33  O   -0.460851
    34  O   -0.460665
 Sum of Mulliken charges =  -0.00000

 Dipole moment (field-independent basis, Debye):
    X=             -4.8336    Y=             -1.9550    Z=              0.8148  Tot=              5.2773
 Quadrupole moment (field-independent basis, Debye-Ang):
   XX=           -121.0302   YY=            -93.0044   ZZ=            -89.5991
   XY=             -3.8289   XZ=              2.2004   YZ=              1.6478

 Normal termination of Gaussian 16 at Thu May  6 10:34:30 2021.
