 Gaussian 16, Revision A.03,
 Gaussian 16:  EM64L-G16RevA.03 25-Dec-2016

 -------------
 #p 6-31g* mp2
 -------------

 ------------------------------------------------------
 Input file generated by CHIRIPA (05-May-2021 14:51:09)
 ------------------------------------------------------
 Symbolic Z-matrix:
 Charge =  0 Multiplicity = 1

                         Standard orientation:
 ---------------------------------------------------------------------
 Center     Atomic      Atomic             Coordinates (Angstroms)
 Number     Number       Type             X           Y           Z
 ---------------------------------------------------------------------
      1          6           0        1.939762   -0.516821   -0.470932
      2          6           0        2.380509   -1.518858   -1.538475
      3          6           0        1.316079   -2.576549   -1.831858
      4          1           0        1.694953   -1.058785    0.452804
      5          1           0        1.013709   -0.025087   -0.799592
      6          1           0        3.306209   -2.007558   -1.208524
      7          1           0        2.624481   -0.974428   -2.459719
      8          1           0        0.392795   -2.106226   -2.185334
      9          1           0        1.078397   -3.145227   -0.927030
     10          1           0        1.651990   -3.282497   -2.597796
     11          6           0        2.993237    0.546823   -0.166663
     12          6           0        2.552490    1.548861    0.900880
     13          6           0        3.616920    2.606551    1.194263
     14          1           0        3.919290    0.055089    0.161997
     15          1           0        3.238046    1.088787   -1.090400
     16          1           0        2.308518    1.004431    1.822123
     17          1           0        1.626790    2.037561    0.570928
     18          1           0        3.854602    3.175229    0.289435
     19          1           0        4.540204    2.136229    1.547739
     20          1           0        3.281009    3.312500    1.960200
     21          6           0       -3.045857    0.378222    0.013589
     22          6           0       -2.600845    1.648143   -0.712530
     23          6           0       -3.771142    2.423964   -1.317755
     24          1           0       -3.590716   -0.266660   -0.689406
     25          1           0       -3.757420    0.647725    0.806332
     26          1           0       -1.889273    1.376466   -1.502768
     27          1           0       -2.056816    2.289990   -0.007774
     28          1           0       -4.479108    2.723392   -0.538185
     29          1           0       -4.310614    1.804679   -2.041673
     30          1           0       -3.430393    3.328016   -1.831993
     31          6           0       -1.887142   -0.408224    0.624007
     32          6           0       -2.332155   -1.678144    1.350126
     33          6           0       -1.161856   -2.453967    1.955350
     34          1           0       -1.175579   -0.677727   -0.168736
     35          1           0       -1.342283    0.236657    1.327001
     36          1           0       -2.876183   -2.319992    0.645370
     37          1           0       -3.043726   -1.406469    2.140363
     38          1           0       -0.622386   -1.834681    2.679269
     39          1           0       -0.453891   -2.753395    1.175781
     40          1           0       -1.502605   -3.358018    2.469588
 ---------------------------------------------------------------------

 SCF Done:  E(RHF) =  -470.732528099     A.U. after   11 cycles
 E2 =    -0.1584882229D+01 EUMP2 =    -0.47231741032808D+03

 The electronic state is 1-A.
 Alpha  occ. eigenvalues --  -11.21634 -11.21617 -11.21581 -11.21552 -11.21362
 Alpha  occ. eigenvalues --  -11.21356 -11.21283 -11.21242 -11.21159 -11.21091
 Alpha  occ. eigenvalues --  -11.21060 -11.21039  -1.08460  -1.08358  -1.03560
 Alpha  occ. eigenvalues --   -1.03499  -0.96003  -0.95950  -0.87026  -0.86966
 Alpha  occ. eigenvalues --   -0.79682  -0.79529  -0.78524  -0.77910  -0.65111
 Alpha  occ. eigenvalues --   -0.64982  -0.60991  -0.60885  -0.59413  -0.59270
 Alpha  occ. eigenvalues --   -0.57667  -0.57518  -0.55318  -0.55220  -0.52704
 Alpha  occ. eigenvalues --   -0.52659  -0.52505  -0.52315  -0.49992  -0.49867
 Alpha  occ. eigenvalues --   -0.48156  -0.47789  -0.46692  -0.46604  -0.46367
 Alpha  occ. eigenvalues --   -0.45736  -0.45597  -0.44897  -0.43781  -0.43751
 Alpha virt. eigenvalues --    0.20513   0.22366   0.23249   0.23924   0.25217
 Alpha virt. eigenvalues --    0.26041   0.26675   0.27696   0.28965   0.29698
 Alpha virt. eigenvalues --    0.31041   0.31423   0.31661   0.31790   0.32084

 Mulliken charges:
               1
     1  C   -0.305038
     2  C   -0.299560
     3  C   -0.480435
     4  H    0.153642
     5  H    0.154354
     6  H    0.151996
     7  H    0.151752
     8  H    0.154889
     9  H    0.158250
    10  H    0.161022
    11  C   -0.297769
    12  C   -0.300159
    13  C   -0.475681
    14  H    0.149227
    15  H    0.149284
    16  H    0.151655
    17  H    0.152717
    18  H    0.155178
    19  H    0.155172
    20  H    0.160008
    21  C   -0.297986
    22  C   -0.300392
    23  C   -0.475571
    24  H    0.149261
    25  H    0.149333
    26  H    0.150735
    27  H    0.152041
    28  H    0.155512
    29  H    0.155282
    30  H    0.160103
    31  C   -0.305605
    32  C   -0.298735
    33  C   -0.481264
    34  H    0.158817
    35  H    0.149952
    36  H    0.151673
    37  H    0.151462
    38  H    0.154599
    39  H    0.160404
    40  H    0.159876
 Sum of Mulliken charges =  -0.00000

 Dipole moment (field-independent basis, Debye):
    X=              0.0155    Y=             -0.0086    Z=             -0.0098  Tot=              0.0203
 Quadrupole moment (field-independent basis, Debye-Ang):
   XX=            -85.7138   YY=            -85.3148   ZZ=            -83.9023
   XY=             -0.4018   XZ=             -0.3497   YZ=              0.1263

 Normal termination of Gaussian 16 at Thu May  6 00:35:56 2021.
