 Gaussian 16, Revision A.03,
 Gaussian 16:  EM64L-G16RevA.03 25-Dec-2016

 -------------
 #p 6-31g* mp2
 -------------

 ------------------------------------------------------
 Input file generated by CHIRIPA (05-May-2021 14:57:24)
 ------------------------------------------------------
 Symbolic Z-matrix:
 Charge =  0 Multiplicity = 1

                         Standard orientation:
 ---------------------------------------------------------------------
 Center     Atomic      Atomic             Coordinates (Angstroms)
 Number     Number       Type             X           Y           Z
 ---------------------------------------------------------------------
      1          6           0       -0.870010    1.801937   -1.528465
      2          6           0       -0.490214    0.456402   -1.571010
      3          6           0       -1.275975   -0.522925   -0.956155
      4          6           0       -2.440472   -0.119545   -0.304602
      5          6           0       -2.845562    1.212980   -0.244855
      6          6           0       -2.044401    2.175274   -0.866690
      7          1           0       -0.253630    2.556086   -2.008811
      8          1           0        0.421317    0.163558   -2.084233
      9          1           0       -1.005502   -1.571711   -0.973776
     10          1           0       -3.759658    1.474284    0.274342
     11          1           0       -2.341823    3.219489   -0.832044
     12          7           0       -3.280474   -1.147299    0.350013
     13          8           0       -4.301807   -0.766072    0.917623
     14          8           0       -2.901628   -2.314618    0.283095
     15          6           0        1.465324    2.083253    1.468785
     16          6           0        2.452558    2.132598    0.479110
     17          6           0        2.923646    0.957035   -0.113070
     18          6           0        2.382919   -0.256061    0.310371
     19          6           0        1.398483   -0.337968    1.293971
     20          6           0        0.942359    0.850302    1.872345
     21          1           0        1.105183    3.001392    1.923441
     22          1           0        2.860519    3.088706    0.163724
     23          1           0        3.687196    0.966345   -0.881394
     24          1           0        1.010991   -1.305998    1.587542
     25          1           0        0.175584    0.808951    2.640713
     26          7           0        2.873718   -1.507302   -0.309236
     27          8           0        2.381141   -2.563432    0.081395
     28          8           0        3.741691   -1.408201   -1.173781
 ---------------------------------------------------------------------

 SCF Done:  E(RHF) =  -868.335671986     A.U. after   16 cycles
 E2 =    -0.2606507672D+01 EUMP2 =    -0.87094217965742D+03

 The electronic state is 1-A.
 Alpha  occ. eigenvalues --  -20.61428 -20.61405 -20.60997 -20.60978 -15.86456
 Alpha  occ. eigenvalues --  -15.86042 -11.31730 -11.31390 -11.28397 -11.28262
 Alpha  occ. eigenvalues --  -11.28082 -11.28003 -11.27879 -11.27709 -11.27408
 Alpha  occ. eigenvalues --  -11.27230 -11.27033 -11.26878  -1.60506  -1.60076
 Alpha  occ. eigenvalues --   -1.40054  -1.39625  -1.19989  -1.19549  -1.09361
 Alpha  occ. eigenvalues --   -1.08974  -1.05353  -1.04968  -0.96198  -0.95805
 Alpha  occ. eigenvalues --   -0.86751  -0.86374  -0.83019  -0.82638  -0.78074
 Alpha  occ. eigenvalues --   -0.77690  -0.72660  -0.72251  -0.71872  -0.71419
 Alpha  occ. eigenvalues --   -0.71063  -0.70675  -0.65599  -0.65344  -0.65222
 Alpha  occ. eigenvalues --   -0.64976  -0.62686  -0.62314  -0.55843  -0.55484
 Alpha  occ. eigenvalues --   -0.54663  -0.53421  -0.53079  -0.52346  -0.49434
 Alpha  occ. eigenvalues --   -0.49419  -0.49019  -0.49007  -0.45459  -0.45031
 Alpha  occ. eigenvalues --   -0.38378  -0.37468  -0.37079  -0.35966
 Alpha virt. eigenvalues --    0.04270   0.04974   0.10382   0.11270   0.15843
 Alpha virt. eigenvalues --    0.16394   0.20681   0.21284   0.26523   0.26774
 Alpha virt. eigenvalues --    0.27730   0.28251   0.30210   0.30766   0.31585

 Mulliken charges:
               1
     1  C   -0.167412
     2  C   -0.212940
     3  C   -0.176354
     4  C    0.155707
     5  C   -0.174479
     6  C   -0.221919
     7  H    0.222550
     8  H    0.226086
     9  H    0.283220
    10  H    0.274264
    11  H    0.220652
    12  N    0.486707
    13  O   -0.461941
    14  O   -0.457477
    15  C   -0.167535
    16  C   -0.221757
    17  C   -0.178390
    18  C    0.154750
    19  C   -0.170566
    20  C   -0.212987
    21  H    0.225940
    22  H    0.222148
    23  H    0.274793
    24  H    0.281386
    25  H    0.228192
    26  N    0.485413
    27  O   -0.456785
    28  O   -0.461266
 Sum of Mulliken charges =  -0.00000

 Dipole moment (field-independent basis, Debye):
    X=              1.2768    Y=              7.9129    Z=              0.0001  Tot=              8.0153
 Quadrupole moment (field-independent basis, Debye-Ang):
   XX=           -125.2446   YY=           -104.8152   ZZ=           -100.9516
   XY=              1.1462   XZ=              6.5185   YZ=             -0.4632

 Normal termination of Gaussian 16 at Thu May  6 09:50:10 2021.
