 Gaussian 16, Revision A.03,
 Gaussian 16:  EM64L-G16RevA.03 25-Dec-2016

 -------------
 #p 6-31g* mp2
 -------------

 ------------------------------------------------------
 Input file generated by CHIRIPA (05-May-2021 14:51:13)
 ------------------------------------------------------
 Symbolic Z-matrix:
 Charge =  0 Multiplicity = 1

                         Standard orientation:
 ---------------------------------------------------------------------
 Center     Atomic      Atomic             Coordinates (Angstroms)
 Number     Number       Type             X           Y           Z
 ---------------------------------------------------------------------
      1          6           0       -3.526805   -0.217013   -0.643796
      2          6           0       -3.569221   -1.550863    0.102549
      3          6           0       -4.647087   -2.493871   -0.432927
      4          1           0       -4.509750    0.268192   -0.570723
      5          1           0       -3.350960   -0.407697   -1.711557
      6          1           0       -3.743554   -1.357642    1.168799
      7          1           0       -2.586003   -2.032859    0.027853
      8          1           0       -4.473758   -2.715854   -1.490888
      9          1           0       -5.637886   -2.036800   -0.343459
     10          1           0       -4.659816   -3.441305    0.114855
     11          6           0       -2.454317    0.736455   -0.119967
     12          6           0       -2.411901    2.070304   -0.866313
     13          6           0       -1.334035    3.013312   -0.330837
     14          1           0       -2.630162    0.927139    0.947793
     15          1           0       -1.471372    0.251250   -0.193040
     16          1           0       -3.395118    2.552301   -0.791617
     17          1           0       -2.237568    1.877084   -1.932563
     18          1           0       -0.343236    2.556242   -0.420304
     19          1           0       -1.507363    3.235295    0.727124
     20          1           0       -1.321306    3.960747   -0.878619
     21          6           0        3.468159   -0.718628    0.001440
     22          6           0        4.649644    0.021890   -0.626023
     23          6           0        5.596180   -0.909664   -1.383698
     24          1           0        3.848397   -1.491280    0.683623
     25          1           0        2.912921   -1.244238   -0.787764
     26          1           0        5.201683    0.547073    0.163947
     27          1           0        4.266545    0.792997   -1.306645
     28          1           0        5.065628   -1.424022   -2.191504
     29          1           0        6.006078   -1.671342   -0.712557
     30          1           0        6.433544   -0.359511   -1.824170
     31          6           0        2.512963    0.199187    0.762325
     32          6           0        1.331478   -0.541332    1.389786
     33          6           0        0.384942    0.390221    2.147461
     34          1           0        3.068200    0.724796    1.551527
     35          1           0        2.132725    0.971838    0.080141
     36          1           0        1.714577   -1.312438    2.070409
     37          1           0        0.779439   -1.066515    0.599817
     38          1           0       -0.024957    1.151900    1.476320
     39          1           0        0.915494    0.904580    2.955268
     40          1           0       -0.452422   -0.159930    2.587934
 ---------------------------------------------------------------------

 SCF Done:  E(RHF) =  -470.731067411     A.U. after   11 cycles
 E2 =    -0.1585187760D+01 EUMP2 =    -0.47231625517106D+03

 The electronic state is 1-A.
 Alpha  occ. eigenvalues --  -11.21641 -11.21612 -11.21605 -11.21559 -11.21408
 Alpha  occ. eigenvalues --  -11.21382 -11.21349 -11.21307 -11.21151 -11.21078
 Alpha  occ. eigenvalues --  -11.21075 -11.20792  -1.08489  -1.08383  -1.03610
 Alpha  occ. eigenvalues --   -1.03455  -0.96020  -0.95931  -0.87042  -0.86952
 Alpha  occ. eigenvalues --   -0.79741  -0.79480  -0.78315  -0.78179  -0.65227
 Alpha  occ. eigenvalues --   -0.64929  -0.61088  -0.60828  -0.59411  -0.59297
 Alpha  occ. eigenvalues --   -0.57764  -0.57408  -0.55345  -0.55212  -0.52729
 Alpha  occ. eigenvalues --   -0.52651  -0.52487  -0.52270  -0.49969  -0.49968
 Alpha  occ. eigenvalues --   -0.48115  -0.47708  -0.46709  -0.46585  -0.45924
 Alpha  occ. eigenvalues --   -0.45787  -0.45621  -0.45308  -0.43805  -0.43732
 Alpha virt. eigenvalues --    0.20449   0.23042   0.23557   0.24239   0.25567
 Alpha virt. eigenvalues --    0.26205   0.26387   0.27891   0.28376   0.29667
 Alpha virt. eigenvalues --    0.30481   0.31330   0.31449   0.31665   0.32306

 Mulliken charges:
               1
     1  C   -0.297567
     2  C   -0.300014
     3  C   -0.475654
     4  H    0.149426
     5  H    0.148938
     6  H    0.151836
     7  H    0.151914
     8  H    0.155140
     9  H    0.155261
    10  H    0.160316
    11  C   -0.304931
    12  C   -0.298263
    13  C   -0.482240
    14  H    0.151888
    15  H    0.155872
    16  H    0.152184
    17  H    0.151552
    18  H    0.156816
    19  H    0.157157
    20  H    0.161824
    21  C   -0.298153
    22  C   -0.299647
    23  C   -0.475693
    24  H    0.149937
    25  H    0.149020
    26  H    0.152094
    27  H    0.151814
    28  H    0.155059
    29  H    0.155229
    30  H    0.160293
    31  C   -0.300233
    32  C   -0.302283
    33  C   -0.483789
    34  H    0.150246
    35  H    0.149865
    36  H    0.152112
    37  H    0.151136
    38  H    0.168634
    39  H    0.153294
    40  H    0.159609
 Sum of Mulliken charges =  -0.00000

 Dipole moment (field-independent basis, Debye):
    X=             -0.0360    Y=              0.0380    Z=             -0.0034  Tot=              0.0525
 Quadrupole moment (field-independent basis, Debye-Ang):
   XX=            -85.1872   YY=            -85.5046   ZZ=            -84.1473
   XY=             -0.5626   XZ=              0.1985   YZ=             -0.3658

 Normal termination of Gaussian 16 at Thu May  6 05:35:15 2021.
