 Gaussian 16, Revision A.03,
 Gaussian 16:  EM64L-G16RevA.03 25-Dec-2016

 -------------
 #p 6-31g* mp2
 -------------

 ------------------------------------------------------
 Input file generated by CHIRIPA (05-May-2021 14:55:23)
 ------------------------------------------------------
 Symbolic Z-matrix:
 Charge =  0 Multiplicity = 1

                         Standard orientation:
 ---------------------------------------------------------------------
 Center     Atomic      Atomic             Coordinates (Angstroms)
 Number     Number       Type             X           Y           Z
 ---------------------------------------------------------------------
      1          6           0        1.858481    1.791189   -1.550299
      2          6           0        0.979239    0.893639   -0.935597
      3          6           0        1.469198   -0.166466   -0.167049
      4          6           0        2.850401   -0.299800   -0.033676
      5          6           0        3.751956    0.577976   -0.633675
      6          6           0        3.239598    1.630776   -1.397645
      7          1           0        1.469169    2.611866   -2.145547
      8          1           0       -0.093833    1.015768   -1.052419
      9          1           0        0.811057   -0.875857    0.319812
     10          1           0        4.816616    0.430416   -0.498978
     11          1           0        3.924791    2.326301   -1.873879
     12          7           0        3.380956   -1.418219    0.777528
     13          8           0        4.602045   -1.513892    0.879628
     14          8           0        2.565668   -2.177985    1.295890
     15          6           0       -3.023290    0.713380    0.223202
     16          6           0       -3.144470    1.622883    1.446356
     17          6           0       -2.110821    2.749537    1.450002
     18          1           0       -2.012039    0.285246    0.191295
     19          1           0       -3.135539    1.318167   -0.687307
     20          1           0       -3.033404    1.016339    2.354312
     21          1           0       -4.155610    2.048751    1.475460
     22          1           0       -2.223839    3.378906    0.561338
     23          1           0       -1.095256    2.340628    1.445184
     24          1           0       -2.215481    3.387528    2.333106
     25          6           0       -4.049888   -0.417772    0.205270
     26          6           0       -3.928707   -1.327276   -1.017883
     27          6           0       -4.962356   -2.453931   -1.021529
     28          1           0       -3.937638   -1.022560    1.115780
     29          1           0       -5.061139    0.010362    0.237177
     30          1           0       -2.917566   -1.753144   -1.046988
     31          1           0       -4.039772   -0.720732   -1.925839
     32          1           0       -5.977921   -2.045021   -1.016711
     33          1           0       -4.849339   -3.083298   -0.132866
     34          1           0       -4.857696   -3.091921   -1.904634
 ---------------------------------------------------------------------

 SCF Done:  E(RHF) =  -669.535592665     A.U. after   15 cycles
 E2 =    -0.2092002781D+01 EUMP2 =    -0.67162759544594D+03

 The electronic state is 1-A.
 Alpha  occ. eigenvalues --  -20.60748 -20.60742 -15.85800 -11.31156 -11.27721
 Alpha  occ. eigenvalues --  -11.27718 -11.27441 -11.26733 -11.26658 -11.22355
 Alpha  occ. eigenvalues --  -11.22268 -11.22163 -11.22002 -11.21748 -11.21449
 Alpha  occ. eigenvalues --   -1.59823  -1.39377  -1.19321  -1.09145  -1.08713
 Alpha  occ. eigenvalues --   -1.04723  -1.04139  -0.96602  -0.95554  -0.87614
 Alpha  occ. eigenvalues --   -0.86117  -0.82395  -0.80218  -0.79009  -0.77425
 Alpha  occ. eigenvalues --   -0.72018  -0.71146  -0.70430  -0.65791  -0.64967
 Alpha  occ. eigenvalues --   -0.64711  -0.62097  -0.61504  -0.59965  -0.58219
 Alpha  occ. eigenvalues --   -0.55895  -0.55217  -0.53252  -0.53106  -0.53007
 Alpha  occ. eigenvalues --   -0.52785  -0.50537  -0.48785  -0.48775  -0.48508
 Alpha  occ. eigenvalues --   -0.47245  -0.46484  -0.46425  -0.44785  -0.44430
 Alpha  occ. eigenvalues --   -0.37293  -0.36314
 Alpha virt. eigenvalues --    0.05081   0.11299   0.16503   0.19713   0.22659
 Alpha virt. eigenvalues --    0.23775   0.24746   0.26008   0.27243   0.28284
 Alpha virt. eigenvalues --    0.29896   0.30278   0.30796   0.31372   0.31728

 Mulliken charges:
               1
     1  C   -0.171814
     2  C   -0.223368
     3  C   -0.174829
     4  C    0.158945
     5  C   -0.171101
     6  C   -0.218398
     7  H    0.226010
     8  H    0.233243
     9  H    0.274658
    10  H    0.275468
    11  H    0.223277
    12  N    0.488230
    13  O   -0.460496
    14  O   -0.460831
    15  C   -0.303521
    16  C   -0.299532
    17  C   -0.479944
    18  H    0.142990
    19  H    0.147276
    20  H    0.156640
    21  H    0.155001
    22  H    0.151626
    23  H    0.156524
    24  H    0.164960
    25  C   -0.298297
    26  C   -0.300385
    27  C   -0.476214
    28  H    0.153822
    29  H    0.152542
    30  H    0.150460
    31  H    0.150821
    32  H    0.156013
    33  H    0.157998
    34  H    0.162230
 Sum of Mulliken charges =  -0.00000

 Dipole moment (field-independent basis, Debye):
    X=             -2.0604    Y=              3.9269    Z=             -2.7931  Tot=              5.2409
 Quadrupole moment (field-independent basis, Debye-Ang):
   XX=           -100.3418   YY=            -97.5293   ZZ=            -94.7268
   XY=             12.7538   XZ=             -9.2304   YZ=              0.0073

 Normal termination of Gaussian 16 at Thu May  6 17:37:27 2021.
