 Gaussian 16, Revision A.03,
 Gaussian 16:  EM64L-G16RevA.03 25-Dec-2016

 -------------
 #p 6-31g* mp2
 -------------

 ------------------------------------------------------
 Input file generated by CHIRIPA (05-May-2021 14:51:14)
 ------------------------------------------------------
 Symbolic Z-matrix:
 Charge =  0 Multiplicity = 1

                         Standard orientation:
 ---------------------------------------------------------------------
 Center     Atomic      Atomic             Coordinates (Angstroms)
 Number     Number       Type             X           Y           Z
 ---------------------------------------------------------------------
      1          6           0       -3.679538   -0.285453   -0.561461
      2          6           0       -4.921459   -0.926287    0.058982
      3          6           0       -5.312566   -2.238177   -0.622027
      4          1           0       -3.862465   -0.105408   -1.629668
      5          1           0       -2.841759   -0.994038   -0.502894
      6          1           0       -5.756292   -0.216181    0.000509
      7          1           0       -4.735624   -1.104652    1.125878
      8          1           0       -4.498229   -2.966523   -0.551547
      9          1           0       -5.524696   -2.073004   -1.683310
     10          1           0       -6.202788   -2.679101   -0.162735
     11          6           0       -3.276039    1.026782    0.108581
     12          6           0       -2.034117    1.667615   -0.511862
     13          6           0       -1.643011    2.979505    0.169147
     14          1           0       -4.113817    1.735366    0.050014
     15          1           0       -3.093112    0.846736    1.176788
     16          1           0       -2.219953    1.845981   -1.578758
     17          1           0       -1.199284    0.957509   -0.453389
     18          1           0       -1.430880    2.814332    1.230429
     19          1           0       -2.457348    3.707852    0.098667
     20          1           0       -0.752788    3.420430   -0.290145
     21          6           0        2.965428   -0.681442    0.700081
     22          6           0        1.578692   -0.045933    0.594836
     23          6           0        0.564663   -0.678368    1.548547
     24          1           0        2.885546   -1.757186    0.491907
     25          1           0        3.325932   -0.589071    1.733957
     26          1           0        1.221499   -0.138247   -0.438851
     27          1           0        1.661915    1.028458    0.803096
     28          1           0        0.895088   -0.573501    2.587018
     29          1           0        0.452170   -1.746835    1.338015
     30          1           0       -0.419779   -0.209005    1.456720
     31          6           0        3.990149   -0.059887   -0.247201
     32          6           0        5.376885   -0.695395   -0.141955
     33          6           0        6.390914   -0.062961   -1.095667
     34          1           0        3.629644   -0.152257   -1.281078
     35          1           0        4.070031    1.015859   -0.039028
     36          1           0        5.293662   -1.769786   -0.350216
     37          1           0        5.734078   -0.603081    0.891730
     38          1           0        6.503407    1.005506   -0.885136
     39          1           0        6.060488   -0.167828   -2.134139
     40          1           0        7.375355   -0.532324   -1.003840
 ---------------------------------------------------------------------

 SCF Done:  E(RHF) =  -470.732903530     A.U. after   11 cycles
 E2 =    -0.1583703240D+01 EUMP2 =    -0.47231660676990D+03

 The electronic state is 1-A.
 Alpha  occ. eigenvalues --  -11.21655 -11.21620 -11.21585 -11.21525 -11.21440
 Alpha  occ. eigenvalues --  -11.21392 -11.21378 -11.21333 -11.21127 -11.21085
 Alpha  occ. eigenvalues --  -11.21058 -11.21051  -1.08482  -1.08403  -1.03610
 Alpha  occ. eigenvalues --   -1.03474  -0.96030  -0.95956  -0.87051  -0.86967
 Alpha  occ. eigenvalues --   -0.79654  -0.79556  -0.78311  -0.78195  -0.65138
 Alpha  occ. eigenvalues --   -0.65066  -0.61057  -0.60958  -0.59398  -0.59238
 Alpha  occ. eigenvalues --   -0.57661  -0.57502  -0.55318  -0.55233  -0.52732
 Alpha  occ. eigenvalues --   -0.52640  -0.52465  -0.52369  -0.49965  -0.49888
 Alpha  occ. eigenvalues --   -0.47952  -0.47882  -0.46738  -0.46528  -0.45864
 Alpha  occ. eigenvalues --   -0.45774  -0.45743  -0.45589  -0.43821  -0.43763
 Alpha virt. eigenvalues --    0.20202   0.23056   0.23736   0.25017   0.26158
 Alpha virt. eigenvalues --    0.26489   0.26796   0.27388   0.28107   0.29331
 Alpha virt. eigenvalues --    0.30650   0.31017   0.31442   0.31799   0.32357

 Mulliken charges:
               1
     1  C   -0.298955
     2  C   -0.299612
     3  C   -0.475715
     4  H    0.149623
     5  H    0.150125
     6  H    0.151868
     7  H    0.152172
     8  H    0.155221
     9  H    0.155057
    10  H    0.160232
    11  C   -0.299599
    12  C   -0.308911
    13  C   -0.475766
    14  H    0.149866
    15  H    0.149668
    16  H    0.152102
    17  H    0.161717
    18  H    0.154945
    19  H    0.155122
    20  H    0.160421
    21  C   -0.298317
    22  C   -0.301474
    23  C   -0.482639
    24  H    0.149734
    25  H    0.149724
    26  H    0.152581
    27  H    0.153576
    28  H    0.155831
    29  H    0.155131
    30  H    0.165880
    31  C   -0.298405
    32  C   -0.299692
    33  C   -0.475734
    34  H    0.149684
    35  H    0.149785
    36  H    0.151974
    37  H    0.151978
    38  H    0.155236
    39  H    0.155239
    40  H    0.160325
 Sum of Mulliken charges =  -0.00000

 Dipole moment (field-independent basis, Debye):
    X=              0.0300    Y=             -0.0032    Z=             -0.0023  Tot=              0.0303
 Quadrupole moment (field-independent basis, Debye-Ang):
   XX=            -85.2741   YY=            -85.1423   ZZ=            -84.3917
   XY=             -0.7853   XZ=              0.9552   YZ=              0.0199

 Normal termination of Gaussian 16 at Wed May  5 21:38:38 2021.
