 Gaussian 16, Revision A.03,
 Gaussian 16:  EM64L-G16RevA.03 25-Dec-2016

 -------------
 #p 6-31g* mp2
 -------------

 ------------------------------------------------------
 Input file generated by CHIRIPA (05-May-2021 14:57:26)
 ------------------------------------------------------
 Symbolic Z-matrix:
 Charge =  0 Multiplicity = 1

                         Standard orientation:
 ---------------------------------------------------------------------
 Center     Atomic      Atomic             Coordinates (Angstroms)
 Number     Number       Type             X           Y           Z
 ---------------------------------------------------------------------
      1          6           0       -1.975286    1.188746    1.348207
      2          6           0       -1.738166   -0.035106    0.713793
      3          6           0       -2.767244   -0.693707    0.034241
      4          6           0       -4.026926   -0.097171    0.008998
      5          6           0       -4.294524    1.121178    0.631338
      6          6           0       -3.250460    1.761971    1.305031
      7          1           0       -1.170053    1.693447    1.873824
      8          1           0       -0.748848   -0.482631    0.745680
      9          1           0       -2.611335   -1.642059   -0.465498
     10          1           0       -5.291257    1.542522    0.582228
     11          1           0       -3.437511    2.712338    1.796824
     12          7           0       -5.124297   -0.784976   -0.707312
     13          8           0       -6.225187   -0.238515   -0.714927
     14          8           0       -4.862748   -1.857516   -1.247578
     15          6           0        3.314325    2.331983   -0.881552
     16          6           0        4.631882    1.864331   -0.924724
     17          6           0        4.938106    0.565065   -0.509169
     18          6           0        3.897472   -0.243200   -0.054112
     19          6           0        2.574854    0.193780    0.000831
     20          6           0        2.291818    1.496689   -0.419727
     21          1           0        3.085449    3.342699   -1.206308
     22          1           0        5.427999    2.510816   -1.282914
     23          1           0        5.949377    0.177477   -0.532064
     24          1           0        1.802575   -0.474019    0.362836
     25          1           0        1.267670    1.857195   -0.385096
     26          7           0        4.209383   -1.620603    0.388465
     27          8           0        3.274577   -2.312972    0.785198
     28          8           0        5.382760   -1.981759    0.330243
 ---------------------------------------------------------------------

 SCF Done:  E(RHF) =  -868.336970076     A.U. after   16 cycles
 E2 =    -0.2599970118D+01 EUMP2 =    -0.87093694019463D+03

 The electronic state is 1-A.
 Alpha  occ. eigenvalues --  -20.61404 -20.61386 -20.61081 -20.61073 -15.86454
 Alpha  occ. eigenvalues --  -15.86139 -11.31910 -11.31645 -11.28593 -11.28419
 Alpha  occ. eigenvalues --  -11.28234 -11.28228 -11.28190 -11.28079 -11.27549
 Alpha  occ. eigenvalues --  -11.27439 -11.27372 -11.27281  -1.60468  -1.60153
 Alpha  occ. eigenvalues --   -1.40022  -1.39701  -1.20076  -1.19849  -1.09441
 Alpha  occ. eigenvalues --   -1.09235  -1.05509  -1.05268  -0.96272  -0.96034
 Alpha  occ. eigenvalues --   -0.86892  -0.86677  -0.83112  -0.82858  -0.78172
 Alpha  occ. eigenvalues --   -0.77860  -0.72669  -0.72354  -0.71791  -0.71478
 Alpha  occ. eigenvalues --   -0.71191  -0.70972  -0.65740  -0.65535  -0.65497
 Alpha  occ. eigenvalues --   -0.65293  -0.62943  -0.62516  -0.55971  -0.55810
 Alpha  occ. eigenvalues --   -0.53805  -0.53677  -0.53564  -0.53317  -0.49436
 Alpha  occ. eigenvalues --   -0.49419  -0.49127  -0.49098  -0.45408  -0.45074
 Alpha  occ. eigenvalues --   -0.38029  -0.37869  -0.37109  -0.36865
 Alpha virt. eigenvalues --    0.04398   0.04657   0.10551   0.10684   0.15871
 Alpha virt. eigenvalues --    0.16090   0.17946   0.22006   0.24304   0.26133
 Alpha virt. eigenvalues --    0.27944   0.28932   0.30019   0.31000   0.32123

 Mulliken charges:
               1
     1  C   -0.176406
     2  C   -0.225172
     3  C   -0.170669
     4  C    0.159204
     5  C   -0.170160
     6  C   -0.218280
     7  H    0.224194
     8  H    0.226034
     9  H    0.280280
    10  H    0.277304
    11  H    0.224527
    12  N    0.487892
    13  O   -0.459466
    14  O   -0.457875
    15  C   -0.170281
    16  C   -0.218003
    17  C   -0.169473
    18  C    0.161388
    19  C   -0.178107
    20  C   -0.221710
    21  H    0.227731
    22  H    0.226256
    23  H    0.278048
    24  H    0.272386
    25  H    0.221492
    26  N    0.487780
    27  O   -0.461918
    28  O   -0.456996
 Sum of Mulliken charges =  -0.00000

 Dipole moment (field-independent basis, Debye):
    X=              2.7930    Y=              7.2756    Z=              0.8819  Tot=              7.8430
 Quadrupole moment (field-independent basis, Debye-Ang):
   XX=           -136.3290   YY=           -105.4821   ZZ=           -105.6226
   XY=              7.5849   XZ=            -18.4977   YZ=              0.7007

 Normal termination of Gaussian 16 at Thu May  6 18:05:58 2021.
