 Gaussian 16, Revision A.03,
 Gaussian 16:  EM64L-G16RevA.03 25-Dec-2016

 -------------
 #p 6-31g* mp2
 -------------

 ------------------------------------------------------
 Input file generated by CHIRIPA (05-May-2021 14:53:14)
 ------------------------------------------------------
 Symbolic Z-matrix:
 Charge =  0 Multiplicity = 1

                         Standard orientation:
 ---------------------------------------------------------------------
 Center     Atomic      Atomic             Coordinates (Angstroms)
 Number     Number       Type             X           Y           Z
 ---------------------------------------------------------------------
      1          6           0        3.651556    0.974992   -0.230628
      2          6           0        2.622580    2.078292    0.018213
      3          6           0        3.130988    3.462702   -0.385178
      4          1           0        4.569890    1.206510    0.326156
      5          1           0        3.924092    0.970718   -1.295100
      6          1           0        2.351033    2.079578    1.081640
      7          1           0        1.706521    1.844023   -0.539075
      8          1           0        3.384052    3.484935   -1.450103
      9          1           0        4.032226    3.721829    0.179821
     10          1           0        2.379584    4.236341   -0.198807
     11          6           0        3.157953   -0.414776    0.167654
     12          6           0        4.186930   -1.518076   -0.081187
     13          6           0        3.678521   -2.902486    0.322203
     14          1           0        2.885417   -0.410502    1.232126
     15          1           0        2.239619   -0.646294   -0.389130
     16          1           0        5.102989   -1.283806    0.476101
     17          1           0        4.458476   -1.519362   -1.144614
     18          1           0        2.777283   -3.161613   -0.242795
     19          1           0        3.425457   -2.924719    1.387128
     20          1           0        4.429925   -3.676125    0.135833
     21          6           0       -5.100309    0.418470   -0.042409
     22          6           0       -4.343560    0.665817    1.107666
     23          6           0       -2.990612    0.316899    1.156006
     24          6           0       -2.424041   -0.280447    0.031077
     25          6           0       -3.151595   -0.539827   -1.129387
     26          6           0       -4.502964   -0.182503   -1.155303
     27          1           0       -6.150697    0.692782   -0.071250
     28          1           0       -4.804822    1.132409    1.973446
     29          1           0       -2.381458    0.496967    2.033460
     30          1           0       -2.663935   -1.006332   -1.976723
     31          1           0       -5.088222   -0.375793   -2.049818
     32          7           0       -0.992572   -0.654280    0.070384
     33          8           0       -0.516936   -1.179375   -0.933948
     34          8           0       -0.373328   -0.415117    1.104779
 ---------------------------------------------------------------------

 SCF Done:  E(RHF) =  -669.536616626     A.U. after   15 cycles
 E2 =    -0.2092562427D+01 EUMP2 =    -0.67162917905356D+03

 The electronic state is 1-A.
 Alpha  occ. eigenvalues --  -20.61126 -20.61120 -15.86119 -11.31393 -11.27944
 Alpha  occ. eigenvalues --  -11.27938 -11.27670 -11.26936 -11.26926 -11.20329
 Alpha  occ. eigenvalues --  -11.20149 -11.20028 -11.19922 -11.19559 -11.19236
 Alpha  occ. eigenvalues --   -1.60156  -1.39713  -1.19550  -1.08965  -1.06851
 Alpha  occ. eigenvalues --   -1.04936  -1.02135  -0.95814  -0.94573  -0.86339
 Alpha  occ. eigenvalues --   -0.85597  -0.82651  -0.78210  -0.77713  -0.76556
 Alpha  occ. eigenvalues --   -0.72324  -0.71456  -0.70658  -0.65205  -0.64939
 Alpha  occ. eigenvalues --   -0.63495  -0.62283  -0.59550  -0.57974  -0.56184
 Alpha  occ. eigenvalues --   -0.55442  -0.53869  -0.53271  -0.53027  -0.51367
 Alpha  occ. eigenvalues --   -0.51016  -0.49189  -0.49088  -0.48480  -0.46525
 Alpha  occ. eigenvalues --   -0.45254  -0.45138  -0.44071  -0.43868  -0.42310
 Alpha  occ. eigenvalues --   -0.37524  -0.36533
 Alpha virt. eigenvalues --    0.04803   0.11123   0.16313   0.21259   0.24329
 Alpha virt. eigenvalues --    0.25638   0.27187   0.28070   0.28195   0.29044
 Alpha virt. eigenvalues --    0.29408   0.30909   0.32363   0.32683   0.32883

 Mulliken charges:
               1
     1  C   -0.298155
     2  C   -0.295828
     3  C   -0.474870
     4  H    0.142687
     5  H    0.144236
     6  H    0.153273
     7  H    0.151758
     8  H    0.152462
     9  H    0.152525
    10  H    0.154443
    11  C   -0.306739
    12  C   -0.298546
    13  C   -0.474956
    14  H    0.152182
    15  H    0.177964
    16  H    0.144057
    17  H    0.146378
    18  H    0.162797
    19  H    0.153606
    20  H    0.151703
    21  C   -0.170342
    22  C   -0.218608
    23  C   -0.170579
    24  C    0.159740
    25  C   -0.170637
    26  C   -0.218578
    27  H    0.226374
    28  H    0.224205
    29  H    0.276093
    30  H    0.275852
    31  H    0.224154
    32  N    0.488295
    33  O   -0.460630
    34  O   -0.456314
 Sum of Mulliken charges =  -0.00000

 Dipole moment (field-independent basis, Debye):
    X=             -5.5631    Y=              1.1985    Z=             -0.0889  Tot=              5.6914
 Quadrupole moment (field-independent basis, Debye-Ang):
   XX=            -72.5869   YY=            -97.7900   ZZ=            -89.6652
   XY=             -2.0275   XZ=              1.0378   YZ=              2.5656

 Normal termination of Gaussian 16 at Thu May  6 05:48:25 2021.
