 Gaussian 16, Revision A.03,
 Gaussian 16:  EM64L-G16RevA.03 25-Dec-2016

 -------------
 #p 6-31g* mp2
 -------------

 ------------------------------------------------------
 Input file generated by CHIRIPA (05-May-2021 14:57:27)
 ------------------------------------------------------
 Symbolic Z-matrix:
 Charge =  0 Multiplicity = 1

                         Standard orientation:
 ---------------------------------------------------------------------
 Center     Atomic      Atomic             Coordinates (Angstroms)
 Number     Number       Type             X           Y           Z
 ---------------------------------------------------------------------
      1          6           0        1.396489    1.856664   -0.846737
      2          6           0        1.062083    0.515161   -0.634460
      3          6           0        2.022936   -0.392641   -0.179260
      4          6           0        3.314337    0.077375    0.054527
      5          6           0        3.678352    1.407777   -0.147497
      6          6           0        2.701256    2.297913   -0.603008
      7          1           0        0.643767    2.555005   -1.200468
      8          1           0        0.049576    0.169670   -0.822906
      9          1           0        1.791259   -1.436633   -0.006563
     10          1           0        4.696020    1.722563    0.049172
     11          1           0        2.963812    3.339172   -0.766989
     12          7           0        4.340147   -0.874322    0.536592
     13          8           0        5.470822   -0.435234    0.735116
     14          8           0        3.994078   -2.041331    0.706781
     15          6           0       -3.777751    2.006755    0.996465
     16          6           0       -3.948323    0.842578    1.752851
     17          6           0       -3.601304   -0.404492    1.224699
     18          6           0       -3.084126   -0.450877   -0.069003
     19          6           0       -2.902355    0.691142   -0.847491
     20          6           0       -3.256232    1.927461   -0.299007
     21          1           0       -4.049988    2.971333    1.414643
     22          1           0       -4.353117    0.901141    2.759209
     23          1           0       -3.722918   -1.321536    1.788312
     24          1           0       -2.496471    0.600974   -1.847764
     25          1           0       -3.122670    2.829922   -0.888728
     26          7           0       -2.713123   -1.765402   -0.638895
     27          8           0       -2.259483   -1.779430   -1.781108
     28          8           0       -2.882994   -2.756810    0.067428
 ---------------------------------------------------------------------

 SCF Done:  E(RHF) =  -868.337592486     A.U. after   16 cycles
 E2 =    -0.2601116563D+01 EUMP2 =    -0.87093870904986D+03

 The electronic state is 1-A.
 Alpha  occ. eigenvalues --  -20.61780 -20.61750 -20.60535 -20.60517 -15.86792
 Alpha  occ. eigenvalues --  -15.85580 -11.32194 -11.30978 -11.28808 -11.28675
 Alpha  occ. eigenvalues --  -11.28431 -11.27805 -11.27675 -11.27578 -11.27475
 Alpha  occ. eigenvalues --  -11.27378 -11.26648 -11.26504  -1.60833  -1.59604
 Alpha  occ. eigenvalues --   -1.40384  -1.39155  -1.20356  -1.19159  -1.09730
 Alpha  occ. eigenvalues --   -1.08571  -1.05756  -1.04553  -0.96561  -0.95395
 Alpha  occ. eigenvalues --   -0.87151  -0.85965  -0.83385  -0.82214  -0.78451
 Alpha  occ. eigenvalues --   -0.77240  -0.72992  -0.72175  -0.71800  -0.71427
 Alpha  occ. eigenvalues --   -0.70927  -0.70316  -0.65993  -0.65741  -0.64816
 Alpha  occ. eigenvalues --   -0.64577  -0.63092  -0.61887  -0.56207  -0.55137
 Alpha  occ. eigenvalues --   -0.54101  -0.53827  -0.52897  -0.52616  -0.49774
 Alpha  occ. eigenvalues --   -0.49752  -0.48566  -0.48549  -0.45754  -0.44552
 Alpha  occ. eigenvalues --   -0.38303  -0.37384  -0.37153  -0.36141
 Alpha virt. eigenvalues --    0.04050   0.05279   0.10149   0.11488   0.15541
 Alpha virt. eigenvalues --    0.16753   0.20011   0.21784   0.25916   0.26835
 Alpha virt. eigenvalues --    0.27720   0.28920   0.29702   0.31170   0.32012

 Mulliken charges:
               1
     1  C   -0.172383
     2  C   -0.220956
     3  C   -0.172475
     4  C    0.158749
     5  C   -0.171822
     6  C   -0.218423
     7  H    0.216911
     8  H    0.228985
     9  H    0.281520
    10  H    0.274733
    11  H    0.220931
    12  N    0.487811
    13  O   -0.461993
    14  O   -0.457921
    15  C   -0.169751
    16  C   -0.216943
    17  C   -0.169331
    18  C    0.159576
    19  C   -0.184282
    20  C   -0.218692
    21  H    0.228986
    22  H    0.228048
    23  H    0.279583
    24  H    0.274193
    25  H    0.223136
    26  N    0.486775
    27  O   -0.462146
    28  O   -0.452816
 Sum of Mulliken charges =  -0.00000

 Dipole moment (field-independent basis, Debye):
    X=             -5.2347    Y=              7.8025    Z=              0.5189  Tot=              9.4101
 Quadrupole moment (field-independent basis, Debye-Ang):
   XX=           -118.2404   YY=           -105.3767   ZZ=           -102.5901
   XY=              0.4198   XZ=            -13.9965   YZ=             -3.1494

 Normal termination of Gaussian 16 at Wed May  5 19:39:51 2021.
