 Gaussian 16, Revision A.03,
 Gaussian 16:  EM64L-G16RevA.03 25-Dec-2016

 -------------
 #p 6-31g* mp2
 -------------

 ------------------------------------------------------
 Input file generated by CHIRIPA (05-May-2021 14:53:13)
 ------------------------------------------------------
 Symbolic Z-matrix:
 Charge =  0 Multiplicity = 1

                         Standard orientation:
 ---------------------------------------------------------------------
 Center     Atomic      Atomic             Coordinates (Angstroms)
 Number     Number       Type             X           Y           Z
 ---------------------------------------------------------------------
      1          6           0       -3.021711    0.170971    0.647193
      2          6           0       -2.079881   -0.936296    1.121429
      3          6           0       -0.840379   -0.393439    1.833284
      4          1           0       -2.475321    0.844475   -0.027192
      5          1           0       -3.329490    0.776000    1.511258
      6          1           0       -1.775065   -1.539901    0.256927
      7          1           0       -2.628629   -1.607351    1.794613
      8          1           0       -1.126782    0.192042    2.712935
      9          1           0       -0.268369    0.259876    1.166512
     10          1           0       -0.180921   -1.201944    2.163882
     11          6           0       -4.265472   -0.355977   -0.066328
     12          6           0       -5.207302    0.751290   -0.540564
     13          6           0       -6.446803    0.208433   -1.252419
     14          1           0       -3.957693   -0.961006   -0.930393
     15          1           0       -4.811862   -1.029481    0.608057
     16          1           0       -4.658554    1.422345   -1.213748
     17          1           0       -5.512117    1.354895    0.323938
     18          1           0       -7.018814   -0.444882   -0.585647
     19          1           0       -6.160400   -0.377048   -2.132070
     20          1           0       -7.106261    1.016938   -1.583017
     21          6           0        2.821349   -2.422746   -0.601326
     22          6           0        2.654764   -1.906683    0.688034
     23          6           0        2.667011   -0.525978    0.907245
     24          6           0        2.848993    0.313476   -0.190702
     25          6           0        3.017608   -0.170185   -1.487209
     26          6           0        3.001920   -1.554381   -1.682925
     27          1           0        2.810499   -3.496666   -0.762489
     28          1           0        2.514337   -2.578687    1.529898
     29          1           0        2.540377   -0.099544    1.894937
     30          1           0        3.155570    0.524766   -2.306615
     31          1           0        3.131537   -1.952342   -2.685359
     32          7           0        2.863778    1.777014    0.028930
     33          8           0        3.025812    2.495414   -0.955083
     34          8           0        2.713055    2.178023    1.180933
 ---------------------------------------------------------------------

 SCF Done:  E(RHF) =  -669.534939804     A.U. after   15 cycles
 E2 =    -0.2092286030D+01 EUMP2 =    -0.67162722583448D+03

 The electronic state is 1-A.
 Alpha  occ. eigenvalues --  -20.60789 -20.60777 -15.85834 -11.31171 -11.27773
 Alpha  occ. eigenvalues --  -11.27747 -11.27517 -11.26762 -11.26747 -11.21709
 Alpha  occ. eigenvalues --  -11.21570 -11.21413 -11.21349 -11.21165 -11.21064
 Alpha  occ. eigenvalues --   -1.59859  -1.39412  -1.19369  -1.08764  -1.08452
 Alpha  occ. eigenvalues --   -1.04773  -1.03567  -0.96028  -0.95594  -0.87051
 Alpha  occ. eigenvalues --   -0.86163  -0.82430  -0.79640  -0.78256  -0.77473
 Alpha  occ. eigenvalues --   -0.72051  -0.71187  -0.70478  -0.65082  -0.65021
 Alpha  occ. eigenvalues --   -0.64769  -0.62128  -0.60967  -0.59409  -0.57631
 Alpha  occ. eigenvalues --   -0.55360  -0.55254  -0.53219  -0.52872  -0.52602
 Alpha  occ. eigenvalues --   -0.52427  -0.49932  -0.48810  -0.48807  -0.47950
 Alpha  occ. eigenvalues --   -0.46660  -0.45800  -0.45721  -0.44807  -0.43841
 Alpha  occ. eigenvalues --   -0.37346  -0.36296
 Alpha virt. eigenvalues --    0.05052   0.11235   0.16456   0.21096   0.22846
 Alpha virt. eigenvalues --    0.24193   0.26397   0.26632   0.27427   0.28065
 Alpha virt. eigenvalues --    0.28537   0.30137   0.31344   0.31782   0.32392

 Mulliken charges:
               1
     1  C   -0.298984
     2  C   -0.299857
     3  C   -0.474986
     4  H    0.152598
     5  H    0.151337
     6  H    0.149917
     7  H    0.150418
     8  H    0.158108
     9  H    0.160001
    10  H    0.149184
    11  C   -0.298183
    12  C   -0.299931
    13  C   -0.475683
    14  H    0.148066
    15  H    0.148830
    16  H    0.153377
    17  H    0.152868
    18  H    0.154682
    19  H    0.154380
    20  H    0.160870
    21  C   -0.170921
    22  C   -0.218587
    23  C   -0.165252
    24  C    0.156056
    25  C   -0.171201
    26  C   -0.219211
    27  H    0.225640
    28  H    0.223099
    29  H    0.277345
    30  H    0.275504
    31  H    0.223242
    32  N    0.487914
    33  O   -0.460634
    34  O   -0.460005
 Sum of Mulliken charges =  -0.00000

 Dipole moment (field-independent basis, Debye):
    X=             -0.0508    Y=             -5.0937    Z=             -0.7741  Tot=              5.1524
 Quadrupole moment (field-independent basis, Debye-Ang):
   XX=            -96.4527   YY=            -98.6735   ZZ=            -89.2419
   XY=            -15.1448   XZ=             -3.9517   YZ=             -0.1035

 Normal termination of Gaussian 16 at Wed May  5 17:03:20 2021.
