 Gaussian 16, Revision A.03,
 Gaussian 16:  EM64L-G16RevA.03 25-Dec-2016

 -------------
 #p 6-31g* mp2
 -------------

 ------------------------------------------------------
 Input file generated by CHIRIPA (05-May-2021 14:51:11)
 ------------------------------------------------------
 Symbolic Z-matrix:
 Charge =  0 Multiplicity = 1

                         Standard orientation:
 ---------------------------------------------------------------------
 Center     Atomic      Atomic             Coordinates (Angstroms)
 Number     Number       Type             X           Y           Z
 ---------------------------------------------------------------------
      1          6           0       -2.796782   -0.070484    0.944061
      2          6           0       -1.543791    0.786336    0.760051
      3          6           0       -0.638263    0.781644    1.992037
      4          1           0       -3.358233    0.294572    1.814953
      5          1           0       -2.496516   -1.101797    1.175640
      6          1           0       -1.846325    1.815423    0.527524
      7          1           0       -0.985357    0.419319   -0.110619
      8          1           0       -0.308002   -0.236170    2.223519
      9          1           0       -1.173862    1.167867    2.865287
     10          1           0        0.251411    1.400379    1.838718
     11          6           0       -3.712029   -0.075837   -0.279058
     12          6           0       -4.965019   -0.932657   -0.095047
     13          6           0       -5.870548   -0.927964   -1.327034
     14          1           0       -4.012294    0.955476   -0.510637
     15          1           0       -3.150577   -0.440893   -1.149950
     16          1           0       -5.523454   -0.565640    0.775622
     17          1           0       -4.662486   -1.961744    0.137480
     18          1           0       -5.334949   -1.314188   -2.200284
     19          1           0       -6.200809    0.089849   -1.558516
     20          1           0       -6.760221   -1.546700   -1.173715
     21          6           0        2.644382    0.528235   -0.397403
     22          6           0        3.004817    2.001268   -0.592963
     23          6           0        1.773847    2.899081   -0.721177
     24          1           0        2.030193    0.192094   -1.244000
     25          1           0        2.020256    0.426855    0.501254
     26          1           0        3.629226    2.099660   -1.490207
     27          1           0        3.618379    2.333889    0.254103
     28          1           0        1.151783    2.830528    0.177121
     29          1           0        1.162691    2.594969   -1.577100
     30          1           0        2.054533    3.947763   -0.860249
     31          6           0        3.864428   -0.381913   -0.267600
     32          6           0        3.503993   -1.854947   -0.072040
     33          6           0        4.734964   -2.752761    0.056174
     34          1           0        4.488554   -0.280534   -1.166257
     35          1           0        4.478617   -0.045773    0.578997
     36          1           0        2.890431   -2.187568   -0.919106
     37          1           0        2.879585   -1.953339    0.825204
     38          1           0        5.346119   -2.448648    0.912097
     39          1           0        5.357028   -2.684208   -0.842124
     40          1           0        4.454277   -3.801442    0.195246
 ---------------------------------------------------------------------

 SCF Done:  E(RHF) =  -470.732453913     A.U. after   11 cycles
 E2 =    -0.1583954322D+01 EUMP2 =    -0.47231640823523D+03

 The electronic state is 1-A.
 Alpha  occ. eigenvalues --  -11.21604 -11.21593 -11.21587 -11.21567 -11.21393
 Alpha  occ. eigenvalues --  -11.21374 -11.21333 -11.21298 -11.21084 -11.21072
 Alpha  occ. eigenvalues --  -11.21065 -11.21039  -1.08448  -1.08389  -1.03577
 Alpha  occ. eigenvalues --   -1.03475  -0.95996  -0.95962  -0.87010  -0.86984
 Alpha  occ. eigenvalues --   -0.79598  -0.79575  -0.78280  -0.78183  -0.65106
 Alpha  occ. eigenvalues --   -0.65019  -0.60998  -0.60922  -0.59537  -0.59161
 Alpha  occ. eigenvalues --   -0.57695  -0.57467  -0.55361  -0.55175  -0.52736
 Alpha  occ. eigenvalues --   -0.52647  -0.52453  -0.52353  -0.49981  -0.49858
 Alpha  occ. eigenvalues --   -0.47933  -0.47876  -0.46646  -0.46565  -0.45869
 Alpha  occ. eigenvalues --   -0.45725  -0.45631  -0.45609  -0.43774  -0.43736
 Alpha virt. eigenvalues --    0.20939   0.23174   0.23465   0.24798   0.25787
 Alpha virt. eigenvalues --    0.26453   0.26865   0.27599   0.28116   0.29716
 Alpha virt. eigenvalues --    0.30137   0.31477   0.31580   0.31770   0.31934

 Mulliken charges:
               1
     1  C   -0.298541
     2  C   -0.301099
     3  C   -0.481783
     4  H    0.149524
     5  H    0.149543
     6  H    0.152307
     7  H    0.155155
     8  H    0.154839
     9  H    0.155631
    10  H    0.163913
    11  C   -0.298228
    12  C   -0.299652
    13  C   -0.475699
    14  H    0.149628
    15  H    0.149549
    16  H    0.151928
    17  H    0.151909
    18  H    0.155120
    19  H    0.155200
    20  H    0.160223
    21  C   -0.306453
    22  C   -0.299691
    23  C   -0.480949
    24  H    0.148903
    25  H    0.159382
    26  H    0.151870
    27  H    0.151418
    28  H    0.160419
    29  H    0.155783
    30  H    0.160044
    31  C   -0.297684
    32  C   -0.299662
    33  C   -0.475665
    34  H    0.149338
    35  H    0.149552
    36  H    0.151540
    37  H    0.151776
    38  H    0.155283
    39  H    0.155217
    40  H    0.160110
 Sum of Mulliken charges =  -0.00000

 Dipole moment (field-independent basis, Debye):
    X=             -0.0125    Y=              0.0049    Z=              0.0054  Tot=              0.0145
 Quadrupole moment (field-independent basis, Debye-Ang):
   XX=            -85.8461   YY=            -84.7650   ZZ=            -84.3215
   XY=              0.1025   XZ=             -0.8307   YZ=              0.4698

 Normal termination of Gaussian 16 at Wed May  5 23:06:15 2021.
