 Gaussian 16, Revision A.03,
 Gaussian 16:  EM64L-G16RevA.03 25-Dec-2016

 -------------
 #p 6-31g* mp2
 -------------

 ------------------------------------------------------
 Input file generated by CHIRIPA (05-May-2021 14:51:08)
 ------------------------------------------------------
 Symbolic Z-matrix:
 Charge =  0 Multiplicity = 1

                         Standard orientation:
 ---------------------------------------------------------------------
 Center     Atomic      Atomic             Coordinates (Angstroms)
 Number     Number       Type             X           Y           Z
 ---------------------------------------------------------------------
      1          6           0       -3.247159   -0.113843   -0.400479
      2          6           0       -4.491170    0.506624    0.236263
      3          6           0       -5.205669    1.486504   -0.694930
      4          1           0       -2.554652    0.687166   -0.693335
      5          1           0       -3.536517   -0.630737   -1.325945
      6          1           0       -4.199765    1.021018    1.160978
      7          1           0       -5.180711   -0.295965    0.527811
      8          1           0       -5.524356    0.982632   -1.613164
      9          1           0       -4.537836    2.307098   -0.976400
     10          1           0       -6.092032    1.918236   -0.219716
     11          6           0       -2.522005   -1.095639    0.518192
     12          6           0       -1.277993   -1.716106   -0.118550
     13          6           0       -0.563494   -2.695986    0.812643
     14          1           0       -2.232646   -0.578745    1.443658
     15          1           0       -3.214511   -1.896648    0.811047
     16          1           0       -0.588452   -0.913517   -0.410098
     17          1           0       -1.569398   -2.230500   -1.043265
     18          1           0       -1.231327   -3.516581    1.094112
     19          1           0       -0.244807   -2.192115    1.730876
     20          1           0        0.322869   -3.127718    0.337428
     21          6           0        3.006862    1.345946   -0.197037
     22          6           0        2.051131    2.269450    0.559075
     23          6           0        2.308272    3.749124    0.272307
     24          1           0        4.041315    1.598857    0.072943
     25          1           0        2.910490    1.533538   -1.275424
     26          1           0        2.148277    2.079200    1.635635
     27          1           0        1.018827    2.014185    0.287410
     28          1           0        2.191745    3.960490   -0.795564
     29          1           0        3.327613    4.025874    0.560323
     30          1           0        1.613926    4.391362    0.823011
     31          6           0        2.762301   -0.136464    0.079325
     32          6           0        3.718032   -1.059968   -0.676787
     33          6           0        3.460892   -2.539642   -0.390019
     34          1           0        2.858673   -0.324056    1.157711
     35          1           0        1.727848   -0.389375   -0.190655
     36          1           0        4.750337   -0.804703   -0.405122
     37          1           0        3.620886   -0.869717   -1.753348
     38          1           0        2.441550   -2.816392   -0.678036
     39          1           0        3.577418   -2.751008    0.677852
     40          1           0        4.155237   -3.181880   -0.940724
 ---------------------------------------------------------------------

 SCF Done:  E(RHF) =  -470.732654944     A.U. after   11 cycles
 E2 =    -0.1584041626D+01 EUMP2 =    -0.47231669657051D+03

 The electronic state is 1-A.
 Alpha  occ. eigenvalues --  -11.21651 -11.21614 -11.21612 -11.21605 -11.21419
 Alpha  occ. eigenvalues --  -11.21411 -11.21359 -11.21339 -11.21107 -11.21081
 Alpha  occ. eigenvalues --  -11.21065 -11.21012  -1.08472  -1.08419  -1.03579
 Alpha  occ. eigenvalues --   -1.03510  -0.96011  -0.95970  -0.87053  -0.86961
 Alpha  occ. eigenvalues --   -0.79632  -0.79591  -0.78330  -0.78198  -0.65219
 Alpha  occ. eigenvalues --   -0.64958  -0.61031  -0.60890  -0.59492  -0.59241
 Alpha  occ. eigenvalues --   -0.57704  -0.57507  -0.55342  -0.55228  -0.52799
 Alpha  occ. eigenvalues --   -0.52692  -0.52478  -0.52246  -0.49986  -0.49883
 Alpha  occ. eigenvalues --   -0.47984  -0.47830  -0.46769  -0.46602  -0.46024
 Alpha  occ. eigenvalues --   -0.45771  -0.45748  -0.45346  -0.43804  -0.43764
 Alpha virt. eigenvalues --    0.20432   0.22924   0.23488   0.24558   0.25732
 Alpha virt. eigenvalues --    0.26486   0.26807   0.27387   0.28242   0.29650
 Alpha virt. eigenvalues --    0.30286   0.31498   0.31789   0.31908   0.32073

 Mulliken charges:
               1
     1  C   -0.298335
     2  C   -0.299686
     3  C   -0.475734
     4  H    0.149095
     5  H    0.149531
     6  H    0.152088
     7  H    0.152042
     8  H    0.155162
     9  H    0.155162
    10  H    0.160335
    11  C   -0.297671
    12  C   -0.306217
    13  C   -0.480567
    14  H    0.149971
    15  H    0.149863
    16  H    0.155762
    17  H    0.151696
    18  H    0.154918
    19  H    0.155989
    20  H    0.165783
    21  C   -0.297787
    22  C   -0.299894
    23  C   -0.475705
    24  H    0.149831
    25  H    0.149385
    26  H    0.152002
    27  H    0.150793
    28  H    0.155313
    29  H    0.155484
    30  H    0.160192
    31  C   -0.307821
    32  C   -0.299074
    33  C   -0.479848
    34  H    0.149407
    35  H    0.159809
    36  H    0.151955
    37  H    0.151689
    38  H    0.159143
    39  H    0.155672
    40  H    0.160267
 Sum of Mulliken charges =  -0.00000

 Dipole moment (field-independent basis, Debye):
    X=              0.0106    Y=             -0.0123    Z=              0.0094  Tot=              0.0187
 Quadrupole moment (field-independent basis, Debye-Ang):
   XX=            -84.4248   YY=            -85.9480   ZZ=            -84.3502
   XY=              0.8464   XZ=              0.3980   YZ=              0.8333

 Normal termination of Gaussian 16 at Thu May  6 02:07:01 2021.
