 Gaussian 16, Revision A.03,
 Gaussian 16:  EM64L-G16RevA.03 25-Dec-2016

 -------------
 #p 6-31g* mp2
 -------------

 ------------------------------------------------------
 Input file generated by CHIRIPA (05-May-2021 14:51:08)
 ------------------------------------------------------
 Symbolic Z-matrix:
 Charge =  0 Multiplicity = 1

                         Standard orientation:
 ---------------------------------------------------------------------
 Center     Atomic      Atomic             Coordinates (Angstroms)
 Number     Number       Type             X           Y           Z
 ---------------------------------------------------------------------
      1          6           0        3.494238   -0.423666   -0.279466
      2          6           0        3.713651   -1.893131    0.081805
      3          6           0        2.549134   -2.787142   -0.345323
      4          1           0        2.567063   -0.071077    0.192734
      5          1           0        3.344289   -0.338547   -1.364669
      6          1           0        3.864519   -1.975290    1.165827
      7          1           0        4.640512   -2.242209   -0.391154
      8          1           0        2.400555   -2.734839   -1.428738
      9          1           0        1.620153   -2.466404    0.137089
     10          1           0        2.726895   -3.833310   -0.077379
     11          6           0        4.649842    0.482658    0.141108
     12          6           0        4.430429    1.952123   -0.220162
     13          6           0        5.594946    2.846134    0.206965
     14          1           0        4.799791    0.397539    1.226311
     15          1           0        5.577017    0.130069   -0.331091
     16          1           0        3.503568    2.301201    0.252796
     17          1           0        4.279561    2.034282   -1.304185
     18          1           0        6.523927    2.525396   -0.275446
     19          1           0        5.743525    2.793831    1.290381
     20          1           0        5.417185    3.892302   -0.060979
     21          6           0       -3.451203   -0.345593   -0.243993
     22          6           0       -2.484410   -0.931832    0.785385
     23          6           0       -1.247300   -1.560597    0.143505
     24          1           0       -3.759928   -1.137378   -0.940203
     25          1           0       -2.924053    0.409572   -0.843354
     26          1           0       -3.013603   -1.684680    1.383541
     27          1           0       -2.178100   -0.138603    1.479342
     28          1           0       -0.694458   -0.815859   -0.438158
     29          1           0       -1.534710   -2.370721   -0.534503
     30          1           0       -0.569778   -1.973446    0.897415
     31          6           0       -4.692877    0.286600    0.382350
     32          6           0       -5.659670    0.872841   -0.647027
     33          6           0       -6.896780    1.501605   -0.005148
     34          1           0       -5.220027   -0.468565    0.981712
     35          1           0       -4.384152    1.078387    1.078561
     36          1           0       -5.965980    0.079611   -1.340984
     37          1           0       -5.130477    1.625688   -1.245184
     38          1           0       -6.609371    2.311729    0.672861
     39          1           0       -7.449622    0.756867    0.576516
     40          1           0       -7.574302    1.914454   -0.759058
 ---------------------------------------------------------------------

 SCF Done:  E(RHF) =  -470.733035994     A.U. after   11 cycles
 E2 =    -0.1582529511D+01 EUMP2 =    -0.47231556550493D+03

 The electronic state is 1-A.
 Alpha  occ. eigenvalues --  -11.21618 -11.21608 -11.21588 -11.21525 -11.21417
 Alpha  occ. eigenvalues --  -11.21368 -11.21357 -11.21306 -11.21095 -11.21077
 Alpha  occ. eigenvalues --  -11.21061 -11.20897  -1.08444  -1.08385  -1.03555
 Alpha  occ. eigenvalues --   -1.03467  -0.96025  -0.95897  -0.87072  -0.86888
 Alpha  occ. eigenvalues --   -0.79669  -0.79485  -0.78261  -0.78190  -0.65076
 Alpha  occ. eigenvalues --   -0.65016  -0.60959  -0.60882  -0.59411  -0.59271
 Alpha  occ. eigenvalues --   -0.57632  -0.57513  -0.55290  -0.55218  -0.52843
 Alpha  occ. eigenvalues --   -0.52610  -0.52421  -0.52217  -0.49943  -0.49829
 Alpha  occ. eigenvalues --   -0.47930  -0.47843  -0.46661  -0.46555  -0.45822
 Alpha  occ. eigenvalues --   -0.45743  -0.45698  -0.45652  -0.43750  -0.43730
 Alpha virt. eigenvalues --    0.22033   0.23040   0.23613   0.24860   0.26251
 Alpha virt. eigenvalues --    0.26632   0.27078   0.27405   0.27784   0.29055
 Alpha virt. eigenvalues --    0.30057   0.31158   0.31697   0.31797   0.32117

 Mulliken charges:
               1
     1  C   -0.298809
     2  C   -0.299172
     3  C   -0.483679
     4  H    0.149996
     5  H    0.149314
     6  H    0.151162
     7  H    0.151454
     8  H    0.154602
     9  H    0.165774
    10  H    0.159060
    11  C   -0.298211
    12  C   -0.299586
    13  C   -0.475666
    14  H    0.149395
    15  H    0.149665
    16  H    0.151643
    17  H    0.151833
    18  H    0.155208
    19  H    0.155149
    20  H    0.160108
    21  C   -0.298731
    22  C   -0.299830
    23  C   -0.478142
    24  H    0.149793
    25  H    0.149661
    26  H    0.152022
    27  H    0.151652
    28  H    0.156795
    29  H    0.156474
    30  H    0.160934
    31  C   -0.298292
    32  C   -0.299632
    33  C   -0.475706
    34  H    0.149559
    35  H    0.149595
    36  H    0.151991
    37  H    0.151966
    38  H    0.155165
    39  H    0.155193
    40  H    0.160293
 Sum of Mulliken charges =  -0.00000

 Dipole moment (field-independent basis, Debye):
    X=             -0.0480    Y=             -0.0047    Z=             -0.0039  Tot=              0.0484
 Quadrupole moment (field-independent basis, Debye-Ang):
   XX=            -86.0005   YY=            -84.8471   ZZ=            -84.1303
   XY=              0.3455   XZ=             -0.2542   YZ=             -0.1546

 Normal termination of Gaussian 16 at Thu May  6 02:05:02 2021.
