 Gaussian 16, Revision A.03,
 Gaussian 16:  EM64L-G16RevA.03 25-Dec-2016

 -------------
 #p 6-31g* mp2
 -------------

 ------------------------------------------------------
 Input file generated by CHIRIPA (05-May-2021 14:53:15)
 ------------------------------------------------------
 Symbolic Z-matrix:
 Charge =  0 Multiplicity = 1

                         Standard orientation:
 ---------------------------------------------------------------------
 Center     Atomic      Atomic             Coordinates (Angstroms)
 Number     Number       Type             X           Y           Z
 ---------------------------------------------------------------------
      1          6           0        3.968500   -0.513708    0.321344
      2          6           0        4.228752   -1.452051   -0.857539
      3          6           0        4.861256   -2.776847   -0.430165
      4          1           0        4.915816   -0.318214    0.842227
      5          1           0        3.312482   -1.017902    1.044410
      6          1           0        4.882964   -0.945720   -1.578824
      7          1           0        3.280737   -1.645182   -1.375791
      8          1           0        4.209202   -3.306221    0.272110
      9          1           0        5.820533   -2.602785    0.067923
     10          1           0        5.038666   -3.432371   -1.288462
     11          6           0        3.336399    0.814841   -0.089914
     12          6           0        3.076147    1.753184    1.088970
     13          6           0        2.443643    3.077980    0.661596
     14          1           0        3.992417    1.319036   -0.812979
     15          1           0        2.389083    0.619347   -0.610796
     16          1           0        4.024161    1.946315    1.607222
     17          1           0        2.421935    1.246853    1.810254
     18          1           0        1.484366    2.903918    0.163507
     19          1           0        3.095696    3.607354   -0.040679
     20          1           0        2.266232    3.733504    1.519893
     21          6           0       -2.117117    2.190324   -0.795418
     22          6           0       -3.473623    1.922413   -0.584138
     23          6           0       -3.893046    0.647301   -0.193344
     24          6           0       -2.924664   -0.340754   -0.022245
     25          6           0       -1.565789   -0.104891   -0.225018
     26          6           0       -1.169202    1.177602   -0.615500
     27          1           0       -1.800169    3.183729   -1.098876
     28          1           0       -4.212001    2.706970   -0.723109
     29          1           0       -4.936716    0.412485   -0.022958
     30          1           0       -0.853076   -0.907387   -0.078534
     31          1           0       -0.115042    1.382792   -0.778868
     32          7           0       -3.356601   -1.694566    0.391307
     33          8           0       -2.483752   -2.547811    0.535335
     34          8           0       -4.559824   -1.876805    0.563590
 ---------------------------------------------------------------------

 SCF Done:  E(RHF) =  -669.535255572     A.U. after   15 cycles
 E2 =    -0.2091750753D+01 EUMP2 =    -0.67162700632521D+03

 The electronic state is 1-A.
 Alpha  occ. eigenvalues --  -20.60770 -20.60765 -15.85824 -11.31188 -11.27759
 Alpha  occ. eigenvalues --  -11.27755 -11.27494 -11.26767 -11.26740 -11.22378
 Alpha  occ. eigenvalues --  -11.22224 -11.22030 -11.22015 -11.21909 -11.21305
 Alpha  occ. eigenvalues --   -1.59846  -1.39399  -1.19359  -1.09092  -1.08753
 Alpha  occ. eigenvalues --   -1.04766  -1.04139  -0.96604  -0.95589  -0.87618
 Alpha  occ. eigenvalues --   -0.86166  -0.82425  -0.80217  -0.78883  -0.77472
 Alpha  occ. eigenvalues --   -0.72042  -0.71169  -0.70466  -0.65799  -0.65012
 Alpha  occ. eigenvalues --   -0.64757  -0.62184  -0.61458  -0.59975  -0.58198
 Alpha  occ. eigenvalues --   -0.55921  -0.55258  -0.53268  -0.53109  -0.53032
 Alpha  occ. eigenvalues --   -0.52844  -0.50553  -0.48813  -0.48797  -0.48505
 Alpha  occ. eigenvalues --   -0.47240  -0.46419  -0.46317  -0.44805  -0.44401
 Alpha  occ. eigenvalues --   -0.37335  -0.36363
 Alpha virt. eigenvalues --    0.05066   0.11216   0.16544   0.18705   0.22776
 Alpha virt. eigenvalues --    0.23738   0.25084   0.26284   0.26744   0.28530
 Alpha virt. eigenvalues --    0.29494   0.30158   0.31160   0.31529   0.31669

 Mulliken charges:
               1
     1  C   -0.299310
     2  C   -0.299908
     3  C   -0.476463
     4  H    0.152476
     5  H    0.151952
     6  H    0.152285
     7  H    0.150943
     8  H    0.158256
     9  H    0.155672
    10  H    0.162232
    11  C   -0.300778
    12  C   -0.301425
    13  C   -0.477002
    14  H    0.152432
    15  H    0.140473
    16  H    0.156750
    17  H    0.154871
    18  H    0.144058
    19  H    0.157810
    20  H    0.164962
    21  C   -0.172513
    22  C   -0.218450
    23  C   -0.171041
    24  C    0.158866
    25  C   -0.172996
    26  C   -0.226109
    27  H    0.226336
    28  H    0.223494
    29  H    0.275641
    30  H    0.274856
    31  H    0.234610
    32  N    0.488051
    33  O   -0.460630
    34  O   -0.460400
 Sum of Mulliken charges =  -0.00000

 Dipole moment (field-independent basis, Debye):
    X=              1.7086    Y=              4.7402    Z=             -1.3815  Tot=              5.2247
 Quadrupole moment (field-independent basis, Debye-Ang):
   XX=            -97.5374   YY=            -98.7313   ZZ=            -95.5042
   XY=            -15.5574   XZ=              4.2614   YZ=              0.5946

 Normal termination of Gaussian 16 at Thu May  6 15:28:17 2021.
