 Gaussian 16, Revision A.03,
 Gaussian 16:  EM64L-G16RevA.03 25-Dec-2016

 -------------
 #p 6-31g* mp2
 -------------

 ------------------------------------------------------
 Input file generated by CHIRIPA (05-May-2021 14:53:12)
 ------------------------------------------------------
 Symbolic Z-matrix:
 Charge =  0 Multiplicity = 1

                         Standard orientation:
 ---------------------------------------------------------------------
 Center     Atomic      Atomic             Coordinates (Angstroms)
 Number     Number       Type             X           Y           Z
 ---------------------------------------------------------------------
      1          6           0       -3.168236    0.529523    0.171466
      2          6           0       -3.803907    1.847094    0.616338
      3          6           0       -2.783120    2.975832    0.763777
      4          1           0       -2.398591    0.237086    0.898840
      5          1           0       -2.651022    0.684714   -0.785508
      6          1           0       -4.320939    1.689129    1.571504
      7          1           0       -4.572262    2.136330   -0.112078
      8          1           0       -2.274769    3.162232   -0.187767
      9          1           0       -2.022019    2.712490    1.505381
     10          1           0       -3.259050    3.908430    1.082544
     11          6           0       -4.176025   -0.608473    0.019628
     12          6           0       -3.540353   -1.926045   -0.425244
     13          6           0       -4.561141   -3.054783   -0.572682
     14          1           0       -4.693239   -0.763664    0.976603
     15          1           0       -4.945670   -0.316036   -0.707745
     16          1           0       -2.771999   -2.215280    0.303173
     17          1           0       -3.023322   -1.768079   -1.380409
     18          1           0       -5.322242   -2.791441   -1.314286
     19          1           0       -5.069492   -3.241182    0.378861
     20          1           0       -4.085211   -3.987380   -0.891450
     21          6           0        1.316259    1.892795   -0.773573
     22          6           0        2.700795    2.056073   -0.887248
     23          6           0        3.570515    1.031128   -0.503030
     24          6           0        3.018951   -0.149167   -0.007077
     25          6           0        1.644040   -0.342059    0.118233
     26          6           0        0.793223    0.696360   -0.272081
     27          1           0        0.647981    2.694231   -1.074410
     28          1           0        3.109808    2.984156   -1.276372
     29          1           0        4.646378    1.130873   -0.580398
     30          1           0        1.265991   -1.278661    0.509734
     31          1           0       -0.281607    0.566762   -0.182684
     32          7           0        3.929679   -1.241362    0.402904
     33          8           0        3.418697   -2.271542    0.836798
     34          8           0        5.137245   -1.046565    0.282588
 ---------------------------------------------------------------------

 SCF Done:  E(RHF) =  -669.535322484     A.U. after   15 cycles
 E2 =    -0.2092314081D+01 EUMP2 =    -0.67162763656478D+03

 The electronic state is 1-A.
 Alpha  occ. eigenvalues --  -20.60668 -20.60663 -15.85718 -11.31050 -11.27617
 Alpha  occ. eigenvalues --  -11.27586 -11.27326 -11.26632 -11.26482 -11.22659
 Alpha  occ. eigenvalues --  -11.22599 -11.22344 -11.22236 -11.22213 -11.21594
 Alpha  occ. eigenvalues --   -1.59744  -1.39299  -1.19209  -1.09425  -1.08608
 Alpha  occ. eigenvalues --   -1.04605  -1.04415  -0.96891  -0.95454  -0.87903
 Alpha  occ. eigenvalues --   -0.86009  -0.82291  -0.80517  -0.79293  -0.77322
 Alpha  occ. eigenvalues --   -0.71938  -0.71067  -0.70324  -0.66037  -0.64855
 Alpha  occ. eigenvalues --   -0.64616  -0.61977  -0.61798  -0.60250  -0.58506
 Alpha  occ. eigenvalues --   -0.56186  -0.55113  -0.53537  -0.53371  -0.52940
 Alpha  occ. eigenvalues --   -0.52646  -0.50823  -0.48828  -0.48696  -0.48663
 Alpha  occ. eigenvalues --   -0.47546  -0.46702  -0.46683  -0.44712  -0.44700
 Alpha  occ. eigenvalues --   -0.37190  -0.36205
 Alpha virt. eigenvalues --    0.05182   0.11391   0.16668   0.19713   0.22461
 Alpha virt. eigenvalues --    0.23499   0.24721   0.25600   0.26378   0.28634
 Alpha virt. eigenvalues --    0.29184   0.30110   0.30967   0.31597   0.31726

 Mulliken charges:
               1
     1  C   -0.308784
     2  C   -0.298652
     3  C   -0.479828
     4  H    0.148654
     5  H    0.146346
     6  H    0.157149
     7  H    0.155693
     8  H    0.147554
     9  H    0.157835
    10  H    0.166416
    11  C   -0.296682
    12  C   -0.301783
    13  C   -0.476274
    14  H    0.153435
    15  H    0.152757
    16  H    0.151038
    17  H    0.151930
    18  H    0.156400
    19  H    0.157111
    20  H    0.163898
    21  C   -0.175635
    22  C   -0.218491
    23  C   -0.171705
    24  C    0.159007
    25  C   -0.175177
    26  C   -0.228979
    27  H    0.226374
    28  H    0.222728
    29  H    0.274941
    30  H    0.275036
    31  H    0.241464
    32  N    0.488058
    33  O   -0.460881
    34  O   -0.460954
 Sum of Mulliken charges =  -0.00000

 Dipole moment (field-independent basis, Debye):
    X=             -3.5699    Y=              3.8157    Z=             -1.3899  Tot=              5.4070
 Quadrupole moment (field-independent basis, Debye-Ang):
   XX=           -110.5016   YY=            -95.1972   ZZ=            -94.2315
   XY=             14.1871   XZ=             -5.6570   YZ=             -0.8699

 Normal termination of Gaussian 16 at Thu May  6 17:01:02 2021.
