 Gaussian 16, Revision A.03,
 Gaussian 16:  EM64L-G16RevA.03 25-Dec-2016

 -------------
 #p 6-31g* mp2
 -------------

 ------------------------------------------------------
 Input file generated by CHIRIPA (05-May-2021 14:51:13)
 ------------------------------------------------------
 Symbolic Z-matrix:
 Charge =  0 Multiplicity = 1

                         Standard orientation:
 ---------------------------------------------------------------------
 Center     Atomic      Atomic             Coordinates (Angstroms)
 Number     Number       Type             X           Y           Z
 ---------------------------------------------------------------------
      1          6           0        3.351635   -0.207577   -0.132255
      2          6           0        4.302201    0.959731   -0.400213
      3          6           0        5.318857    0.653629   -1.500444
      4          1           0        3.938580   -1.093854    0.145149
      5          1           0        2.822629   -0.461264   -1.061336
      6          1           0        4.828243    1.212042    0.529430
      7          1           0        3.712914    1.843384   -0.676825
      8          1           0        4.809909    0.422890   -2.441896
      9          1           0        5.931574   -0.212039   -1.228787
     10          1           0        5.988323    1.501554   -1.675651
     11          6           0        2.329403    0.083204    0.965113
     12          6           0        1.378837   -1.084103    1.233070
     13          6           0        0.362181   -0.778001    2.333301
     14          1           0        2.858410    0.336892    1.894193
     15          1           0        1.742458    0.969482    0.687709
     16          1           0        1.968124   -1.967756    1.509683
     17          1           0        0.852795   -1.336415    0.303428
     18          1           0       -0.250536    0.087666    2.061645
     19          1           0        0.871129   -0.547262    3.274753
     20          1           0       -0.307285   -1.625927    2.508509
     21          6           0       -2.919548    0.776959   -0.673888
     22          6           0       -3.161572    1.798581    0.437732
     23          6           0       -3.317649    3.223949   -0.093080
     24          1           0       -2.018872    1.061498   -1.234929
     25          1           0       -3.755979    0.814687   -1.385473
     26          1           0       -2.325607    1.757968    1.147753
     27          1           0       -4.061668    1.511473    0.996312
     28          1           0       -4.163367    3.286731   -0.785482
     29          1           0       -2.417442    3.534626   -0.633180
     30          1           0       -3.489808    3.937933    0.718368
     31          6           0       -2.761490   -0.652587   -0.158969
     32          6           0       -2.519466   -1.674209   -1.270590
     33          6           0       -2.363390   -3.099576   -0.739778
     34          1           0       -1.925058   -0.690314    0.552615
     35          1           0       -3.662166   -0.937125    0.402071
     36          1           0       -1.619370   -1.387100   -1.829170
     37          1           0       -3.355430   -1.633595   -1.980611
     38          1           0       -3.263596   -3.410254   -0.199677
     39          1           0       -1.517671   -3.162359   -0.047377
     40          1           0       -2.191230   -3.813560   -1.551226
 ---------------------------------------------------------------------

 SCF Done:  E(RHF) =  -470.732725740     A.U. after   11 cycles
 E2 =    -0.1584186619D+01 EUMP2 =    -0.47231691235891D+03

 The electronic state is 1-A.
 Alpha  occ. eigenvalues --  -11.21707 -11.21649 -11.21625 -11.21584 -11.21480
 Alpha  occ. eigenvalues --  -11.21416 -11.21378 -11.21252 -11.21162 -11.21106
 Alpha  occ. eigenvalues --  -11.21088 -11.21061  -1.08519  -1.08405  -1.03620
 Alpha  occ. eigenvalues --   -1.03519  -0.96073  -0.95960  -0.87086  -0.86979
 Alpha  occ. eigenvalues --   -0.79675  -0.79590  -0.78319  -0.78224  -0.65355
 Alpha  occ. eigenvalues --   -0.64889  -0.61111  -0.60838  -0.59456  -0.59297
 Alpha  occ. eigenvalues --   -0.57666  -0.57579  -0.55494  -0.55139  -0.52762
 Alpha  occ. eigenvalues --   -0.52668  -0.52477  -0.52393  -0.50087  -0.49858
 Alpha  occ. eigenvalues --   -0.47995  -0.47905  -0.46753  -0.46617  -0.45917
 Alpha  occ. eigenvalues --   -0.45789  -0.45736  -0.45476  -0.43854  -0.43767
 Alpha virt. eigenvalues --    0.19586   0.22725   0.23312   0.24388   0.26014
 Alpha virt. eigenvalues --    0.26434   0.26793   0.27860   0.28087   0.29258
 Alpha virt. eigenvalues --    0.30370   0.31138   0.31762   0.32162   0.32241

 Mulliken charges:
               1
     1  C   -0.298373
     2  C   -0.299718
     3  C   -0.475760
     4  H    0.149968
     5  H    0.149440
     6  H    0.152093
     7  H    0.151929
     8  H    0.155255
     9  H    0.155303
    10  H    0.160440
    11  C   -0.298171
    12  C   -0.303869
    13  C   -0.483107
    14  H    0.150083
    15  H    0.149297
    16  H    0.152966
    17  H    0.154392
    18  H    0.158207
    19  H    0.157404
    20  H    0.161879
    21  C   -0.297603
    22  C   -0.302650
    23  C   -0.475563
    24  H    0.148345
    25  H    0.149539
    26  H    0.153458
    27  H    0.152502
    28  H    0.155443
    29  H    0.154838
    30  H    0.160391
    31  C   -0.310032
    32  C   -0.298898
    33  C   -0.478191
    34  H    0.164550
    35  H    0.149075
    36  H    0.150788
    37  H    0.151784
    38  H    0.155233
    39  H    0.157102
    40  H    0.160231
 Sum of Mulliken charges =  -0.00000

 Dipole moment (field-independent basis, Debye):
    X=              0.0321    Y=             -0.0063    Z=              0.0406  Tot=              0.0521
 Quadrupole moment (field-independent basis, Debye-Ang):
   XX=            -83.9476   YY=            -85.8393   ZZ=            -84.9263
   XY=              0.0828   XZ=              1.0806   YZ=             -0.0978

 Normal termination of Gaussian 16 at Wed May  5 23:14:06 2021.
