 Gaussian 16, Revision A.03,
 Gaussian 16:  EM64L-G16RevA.03 25-Dec-2016

 -------------
 #p 6-31g* mp2
 -------------

 ------------------------------------------------------
 Input file generated by CHIRIPA (05-May-2021 14:57:26)
 ------------------------------------------------------
 Symbolic Z-matrix:
 Charge =  0 Multiplicity = 1

                         Standard orientation:
 ---------------------------------------------------------------------
 Center     Atomic      Atomic             Coordinates (Angstroms)
 Number     Number       Type             X           Y           Z
 ---------------------------------------------------------------------
      1          6           0       -1.880175    1.862975   -0.416295
      2          6           0       -2.980298    2.319321    0.317189
      3          6           0       -4.073906    1.480788    0.552628
      4          6           0       -4.033815    0.186033    0.037563
      5          6           0       -2.952319   -0.297827   -0.696967
      6          6           0       -1.869715    0.558158   -0.920144
      7          1           0       -1.034908    2.521146   -0.594427
      8          1           0       -2.991165    3.332172    0.709694
      9          1           0       -4.938451    1.808319    1.117165
     10          1           0       -2.970400   -1.312619   -1.075500
     11          1           0       -1.016694    0.201054   -1.490124
     12          7           0       -5.185744   -0.710922    0.280321
     13          8           0       -5.126013   -1.847270   -0.184202
     14          8           0       -6.126546   -0.260623    0.930521
     15          6           0        5.869142    1.073161    0.536171
     16          6           0        5.171476    1.275522   -0.659167
     17          6           0        4.048009    0.501784   -0.965274
     18          6           0        3.648177   -0.469887   -0.049152
     19          6           0        4.322307   -0.695409    1.150005
     20          6           0        5.443082    0.090075    1.435357
     21          1           0        6.740833    1.678781    0.765900
     22          1           0        5.500079    2.038278   -1.359359
     23          1           0        3.489393    0.637352   -1.883417
     24          1           0        3.970703   -1.463365    1.828266
     25          1           0        5.982959   -0.069291    2.364432
     26          7           0        2.460238   -1.295226   -0.362227
     27          8           0        2.128276   -2.144852    0.461530
     28          8           0        1.883585   -1.076874   -1.425445
 ---------------------------------------------------------------------

 SCF Done:  E(RHF) =  -868.339434465     A.U. after   16 cycles
 E2 =    -0.2598538308D+01 EUMP2 =    -0.87093797277261D+03

 The electronic state is 1-A.
 Alpha  occ. eigenvalues --  -20.61685 -20.61616 -20.60098 -20.60081 -15.86681
 Alpha  occ. eigenvalues --  -15.85137 -11.31884 -11.30409 -11.28457 -11.28399
 Alpha  occ. eigenvalues --  -11.28127 -11.27415 -11.27376 -11.27007 -11.26850
 Alpha  occ. eigenvalues --  -11.26705 -11.26057 -11.25768  -1.60711  -1.59168
 Alpha  occ. eigenvalues --   -1.40271  -1.38724  -1.20037  -1.18560  -1.09459
 Alpha  occ. eigenvalues --   -1.07988  -1.05414  -1.03923  -0.96321  -0.94841
 Alpha  occ. eigenvalues --   -0.86818  -0.85335  -0.83159  -0.81654  -0.78230
 Alpha  occ. eigenvalues --   -0.76704  -0.72904  -0.72019  -0.71361  -0.71136
 Alpha  occ. eigenvalues --   -0.70488  -0.69705  -0.65690  -0.65408  -0.64209
 Alpha  occ. eigenvalues --   -0.63897  -0.62762  -0.61249  -0.55910  -0.54485
 Alpha  occ. eigenvalues --   -0.53754  -0.53499  -0.52293  -0.51991  -0.49674
 Alpha  occ. eigenvalues --   -0.49636  -0.48121  -0.48108  -0.45703  -0.44149
 Alpha  occ. eigenvalues --   -0.38003  -0.37012  -0.36575  -0.35518
 Alpha virt. eigenvalues --    0.04263   0.05788   0.10645   0.12119   0.15770
 Alpha virt. eigenvalues --    0.17305   0.20808   0.22302   0.26739   0.27591
 Alpha virt. eigenvalues --    0.28423   0.29016   0.30406   0.31709   0.32061

 Mulliken charges:
               1
     1  C   -0.173144
     2  C   -0.218553
     3  C   -0.172944
     4  C    0.158247
     5  C   -0.171186
     6  C   -0.224172
     7  H    0.220648
     8  H    0.219028
     9  H    0.272612
    10  H    0.278993
    11  H    0.242718
    12  N    0.488029
    13  O   -0.459620
    14  O   -0.463563
    15  C   -0.170207
    16  C   -0.218611
    17  C   -0.172418
    18  C    0.157849
    19  C   -0.170305
    20  C   -0.218468
    21  H    0.227769
    22  H    0.224553
    23  H    0.273237
    24  H    0.277730
    25  H    0.225984
    26  N    0.489229
    27  O   -0.453843
    28  O   -0.469590
 Sum of Mulliken charges =  -0.00000

 Dipole moment (field-independent basis, Debye):
    X=              8.6589    Y=              5.8929    Z=              0.2735  Tot=             10.4775
 Quadrupole moment (field-independent basis, Debye-Ang):
   XX=           -107.0650   YY=           -103.5879   ZZ=           -100.7203
   XY=             -4.9767   XZ=              7.3590   YZ=             -1.1222

 Normal termination of Gaussian 16 at Fri May  7 03:32:59 2021.
