 Gaussian 16, Revision A.03,
 Gaussian 16:  EM64L-G16RevA.03 25-Dec-2016

 -------------
 #p 6-31g* mp2
 -------------

 ------------------------------------------------------
 Input file generated by CHIRIPA (05-May-2021 14:55:21)
 ------------------------------------------------------
 Symbolic Z-matrix:
 Charge =  0 Multiplicity = 1

                         Standard orientation:
 ---------------------------------------------------------------------
 Center     Atomic      Atomic             Coordinates (Angstroms)
 Number     Number       Type             X           Y           Z
 ---------------------------------------------------------------------
      1          6           0        1.094710   -1.363898   -0.273692
      2          6           0        2.170461   -2.152352    0.147760
      3          6           0        3.450197   -1.602231    0.266874
      4          6           0        3.619063   -0.254095   -0.045065
      5          6           0        2.567263    0.557388   -0.467558
      6          6           0        1.296189   -0.013924   -0.579466
      7          1           0        0.103945   -1.799476   -0.363424
      8          1           0        2.016937   -3.201049    0.385902
      9          1           0        4.300651   -2.189749    0.590862
     10          1           0        2.751364    1.599737   -0.697847
     11          1           0        0.462597    0.600798   -0.907010
     12          7           0        4.969277    0.339511    0.077222
     13          8           0        5.091824    1.529789   -0.203593
     14          8           0        5.879462   -0.396739    0.451571
     15          6           0       -5.090913    0.274799    0.083906
     16          6           0       -5.359947   -1.223645   -0.058473
     17          6           0       -6.851635   -1.559289   -0.055944
     18          1           0       -5.547907    0.636033    1.015362
     19          1           0       -5.589359    0.809324   -0.736600
     20          1           0       -4.859992   -1.755315    0.761276
     21          1           0       -4.902095   -1.581391   -0.989603
     22          1           0       -7.361397   -1.054904   -0.883193
     23          1           0       -7.319054   -1.229817    0.877635
     24          1           0       -7.021120   -2.635651   -0.158788
     25          6           0       -3.604208    0.626138    0.083055
     26          6           0       -3.335174    2.124582    0.225433
     27          6           0       -1.843486    2.460226    0.222904
     28          1           0       -3.105763    0.091614    0.903561
     29          1           0       -3.147214    0.264905   -0.848402
     30          1           0       -3.793026    2.482328    1.156565
     31          1           0       -3.835129    2.656252   -0.594315
     32          1           0       -1.376067    2.130755   -0.710674
     33          1           0       -1.333725    1.955843    1.050153
     34          1           0       -1.674000    3.536589    0.325749
 ---------------------------------------------------------------------

 SCF Done:  E(RHF) =  -669.535544435     A.U. after   15 cycles
 E2 =    -0.2091120350D+01 EUMP2 =    -0.67162666478523D+03

 The electronic state is 1-A.
 Alpha  occ. eigenvalues --  -20.60697 -20.60692 -15.85749 -11.31098 -11.27668
 Alpha  occ. eigenvalues --  -11.27646 -11.27391 -11.26684 -11.26611 -11.22473
 Alpha  occ. eigenvalues --  -11.22327 -11.22314 -11.22121 -11.22118 -11.21648
 Alpha  occ. eigenvalues --   -1.59773  -1.39326  -1.19265  -1.09258  -1.08662
 Alpha  occ. eigenvalues --   -1.04665  -1.04337  -0.96803  -0.95501  -0.87824
 Alpha  occ. eigenvalues --   -0.86061  -0.82334  -0.80413  -0.79078  -0.77382
 Alpha  occ. eigenvalues --   -0.71967  -0.71095  -0.70371  -0.65884  -0.64914
 Alpha  occ. eigenvalues --   -0.64685  -0.62057  -0.61704  -0.60157  -0.58406
 Alpha  occ. eigenvalues --   -0.56102  -0.55164  -0.53471  -0.53342  -0.52990
 Alpha  occ. eigenvalues --   -0.52648  -0.50736  -0.48786  -0.48724  -0.48644
 Alpha  occ. eigenvalues --   -0.47434  -0.46614  -0.46524  -0.44736  -0.44590
 Alpha  occ. eigenvalues --   -0.37246  -0.36263
 Alpha virt. eigenvalues --    0.05145   0.11357   0.16632   0.19967   0.22390
 Alpha virt. eigenvalues --    0.23689   0.25174   0.26189   0.26416   0.28447
 Alpha virt. eigenvalues --    0.28959   0.29919   0.31010   0.31261   0.31860

 Mulliken charges:
               1
     1  C   -0.173854
     2  C   -0.218536
     3  C   -0.171426
     4  C    0.158702
     5  C   -0.173537
     6  C   -0.222860
     7  H    0.226461
     8  H    0.222921
     9  H    0.275182
    10  H    0.275723
    11  H    0.232636
    12  N    0.488093
    13  O   -0.460548
    14  O   -0.460834
    15  C   -0.298497
    16  C   -0.300179
    17  C   -0.476073
    18  H    0.152406
    19  H    0.151771
    20  H    0.151027
    21  H    0.150418
    22  H    0.156612
    23  H    0.156775
    24  H    0.161401
    25  C   -0.299337
    26  C   -0.299600
    27  C   -0.481570
    28  H    0.148473
    29  H    0.143914
    30  H    0.156363
    31  H    0.155027
    32  H    0.147100
    33  H    0.158806
    34  H    0.167041
 Sum of Mulliken charges =  -0.00000

 Dipole moment (field-independent basis, Debye):
    X=             -5.0109    Y=             -2.0044    Z=             -0.3653  Tot=              5.4093
 Quadrupole moment (field-independent basis, Debye-Ang):
   XX=           -129.4102   YY=            -89.7751   ZZ=            -94.0507
   XY=             -8.8560   XZ=             -0.8683   YZ=             -1.3432

 Normal termination of Gaussian 16 at Wed May  5 17:25:41 2021.
