 Gaussian 16, Revision A.03,
 Gaussian 16:  EM64L-G16RevA.03 25-Dec-2016

 -------------
 #p 6-31g* mp2
 -------------

 ------------------------------------------------------
 Input file generated by CHIRIPA (05-May-2021 14:55:18)
 ------------------------------------------------------
 Symbolic Z-matrix:
 Charge =  0 Multiplicity = 1

                         Standard orientation:
 ---------------------------------------------------------------------
 Center     Atomic      Atomic             Coordinates (Angstroms)
 Number     Number       Type             X           Y           Z
 ---------------------------------------------------------------------
      1          6           0        3.315224    1.567558   -1.808529
      2          6           0        4.318024    0.669721   -1.428001
      3          6           0        4.062257   -0.316211   -0.470362
      4          6           0        2.786707   -0.375886    0.088833
      5          6           0        1.766724    0.504203   -0.269452
      6          6           0        2.045014    1.482085   -1.229062
      7          1           0        3.522658    2.330327   -2.553211
      8          1           0        5.305411    0.733744   -1.876344
      9          1           0        4.820177   -1.024035   -0.157378
     10          1           0        0.792202    0.415546    0.195159
     11          1           0        1.264297    2.178021   -1.522657
     12          7           0        2.504016   -1.415386    1.103685
     13          8           0        1.372019   -1.446992    1.581410
     14          8           0        3.419793   -2.178858    1.402185
     15          6           0       -3.541153    0.606336    0.776737
     16          6           0       -2.411940    1.637148    0.793795
     17          6           0       -2.253345    2.317791    2.153709
     18          1           0       -4.483128    1.099157    1.053785
     19          1           0       -3.347062   -0.152626    1.547256
     20          1           0       -2.607394    2.393177    0.022541
     21          1           0       -1.472577    1.141855    0.516489
     22          1           0       -2.034041    1.578794    2.931135
     23          1           0       -3.175306    2.837225    2.434380
     24          1           0       -1.440642    3.050776    2.143446
     25          6           0       -3.712089   -0.082653   -0.575964
     26          6           0       -4.841302   -1.113465   -0.593023
     27          6           0       -4.999897   -1.794107   -1.952937
     28          1           0       -3.906180    0.676310   -1.346484
     29          1           0       -2.770114   -0.575473   -0.853012
     30          1           0       -5.780666   -0.618172   -0.315716
     31          1           0       -4.645848   -1.869493    0.178232
     32          1           0       -4.077937   -2.313542   -2.233608
     33          1           0       -5.219201   -1.055111   -2.730363
     34          1           0       -5.812600   -2.527093   -1.942673
 ---------------------------------------------------------------------

 SCF Done:  E(RHF) =  -669.535653476     A.U. after   15 cycles
 E2 =    -0.2091249779D+01 EUMP2 =    -0.67162690325445D+03

 The electronic state is 1-A.
 Alpha  occ. eigenvalues --  -20.60785 -20.60779 -15.85835 -11.31178 -11.27749
 Alpha  occ. eigenvalues --  -11.27732 -11.27490 -11.26765 -11.26745 -11.21996
 Alpha  occ. eigenvalues --  -11.21580 -11.21489 -11.21429 -11.21227 -11.21045
 Alpha  occ. eigenvalues --   -1.59859  -1.39413  -1.19352  -1.08752  -1.08543
 Alpha  occ. eigenvalues --   -1.04753  -1.03648  -0.96063  -0.95591  -0.87082
 Alpha  occ. eigenvalues --   -0.86153  -0.82423  -0.79742  -0.78365  -0.77468
 Alpha  occ. eigenvalues --   -0.72057  -0.71180  -0.70473  -0.65188  -0.65004
 Alpha  occ. eigenvalues --   -0.64742  -0.62136  -0.61011  -0.59451  -0.57692
 Alpha  occ. eigenvalues --   -0.55339  -0.55246  -0.53084  -0.52865  -0.52771
 Alpha  occ. eigenvalues --   -0.52488  -0.49991  -0.48814  -0.48811  -0.48043
 Alpha  occ. eigenvalues --   -0.46764  -0.45902  -0.45794  -0.44823  -0.43893
 Alpha  occ. eigenvalues --   -0.37335  -0.36354
 Alpha virt. eigenvalues --    0.05061   0.11297   0.16558   0.19805   0.22898
 Alpha virt. eigenvalues --    0.23958   0.25358   0.26902   0.27810   0.28008
 Alpha virt. eigenvalues --    0.29257   0.30647   0.31461   0.31739   0.31959

 Mulliken charges:
               1
     1  C   -0.170659
     2  C   -0.219068
     3  C   -0.169953
     4  C    0.159754
     5  C   -0.182825
     6  C   -0.222760
     7  H    0.225636
     8  H    0.223452
     9  H    0.275569
    10  H    0.290510
    11  H    0.224323
    12  N    0.486687
    13  O   -0.460990
    14  O   -0.460200
    15  C   -0.298211
    16  C   -0.305138
    17  C   -0.476134
    18  H    0.150369
    19  H    0.157224
    20  H    0.149041
    21  H    0.146376
    22  H    0.163363
    23  H    0.156429
    24  H    0.157290
    25  C   -0.298861
    26  C   -0.300191
    27  C   -0.476041
    28  H    0.146686
    29  H    0.150025
    30  H    0.151609
    31  H    0.155798
    32  H    0.156308
    33  H    0.153500
    34  H    0.161080
 Sum of Mulliken charges =  -0.00000

 Dipole moment (field-independent basis, Debye):
    X=              0.9070    Y=              3.6047    Z=             -3.4863  Tot=              5.0961
 Quadrupole moment (field-independent basis, Debye-Ang):
   XX=            -84.0939   YY=            -97.4965   ZZ=            -96.6984
   XY=              7.7082   XZ=            -10.8940   YZ=              1.0283

 Normal termination of Gaussian 16 at Thu May  6 15:41:36 2021.
