 Gaussian 16, Revision A.03,
 Gaussian 16:  EM64L-G16RevA.03 25-Dec-2016

 -------------
 #p 6-31g* mp2
 -------------

 ------------------------------------------------------
 Input file generated by CHIRIPA (05-May-2021 14:51:13)
 ------------------------------------------------------
 Symbolic Z-matrix:
 Charge =  0 Multiplicity = 1

                         Standard orientation:
 ---------------------------------------------------------------------
 Center     Atomic      Atomic             Coordinates (Angstroms)
 Number     Number       Type             X           Y           Z
 ---------------------------------------------------------------------
      1          6           0        5.313768    0.002141   -0.399565
      2          6           0        6.060801   -1.118061    0.325056
      3          6           0        7.363382   -1.508490   -0.373974
      4          1           0        5.098207   -0.315609   -1.428892
      5          1           0        5.968569    0.881354   -0.474495
      6          1           0        5.404296   -1.994433    0.399821
      7          1           0        6.274440   -0.797682    1.352836
      8          1           0        8.039935   -0.649944   -0.435424
      9          1           0        7.164847   -1.853494   -1.393854
     10          1           0        7.881141   -2.310837    0.160838
     11          6           0        4.009549    0.403543    0.287180
     12          6           0        3.262516    1.523744   -0.437441
     13          6           0        1.959935    1.914173    0.261589
     14          1           0        3.354748   -0.475670    0.362111
     15          1           0        4.225110    0.721292    1.316507
     16          1           0        3.048877    1.203366   -1.465221
     17          1           0        3.919021    2.400116   -0.512205
     18          1           0        2.158469    2.259178    1.281470
     19          1           0        1.283382    1.055628    0.323040
     20          1           0        1.442176    2.716521   -0.273223
     21          6           0       -5.322298   -0.569922    0.166823
     22          6           0       -6.507265    0.087484   -0.541456
     23          6           0       -7.821851   -0.658429   -0.310653
     24          1           0       -5.223529   -1.606704   -0.182851
     25          1           0       -5.531093   -0.622022    1.244360
     26          1           0       -6.295703    0.139583   -1.617162
     27          1           0       -6.603107    1.122882   -0.190198
     28          1           0       -8.059698   -0.698478    0.757253
     29          1           0       -7.750548   -1.687364   -0.677818
     30          1           0       -8.655616   -0.171370   -0.825891
     31          6           0       -4.001019    0.164238   -0.054439
     32          6           0       -2.816052   -0.493168    0.653840
     33          6           0       -1.501466    0.252746    0.423038
     34          1           0       -3.792223    0.216339   -1.131975
     35          1           0       -4.099788    1.201020    0.295235
     36          1           0       -2.720210   -1.528566    0.302582
     37          1           0       -3.027614   -0.545267    1.729546
     38          1           0       -1.572769    1.281680    0.790203
     39          1           0       -1.263620    0.292795   -0.644869
     40          1           0       -0.667702   -0.234313    0.938276
 ---------------------------------------------------------------------

 SCF Done:  E(RHF) =  -470.732881009     A.U. after   11 cycles
 E2 =    -0.1582458569D+01 EUMP2 =    -0.47231533957822D+03

 The electronic state is 1-A.
 Alpha  occ. eigenvalues --  -11.21601 -11.21591 -11.21574 -11.21505 -11.21405
 Alpha  occ. eigenvalues --  -11.21359 -11.21345 -11.21298 -11.21071 -11.21069
 Alpha  occ. eigenvalues --  -11.21050 -11.20866  -1.08431  -1.08373  -1.03543
 Alpha  occ. eigenvalues --   -1.03449  -0.96028  -0.95867  -0.87094  -0.86841
 Alpha  occ. eigenvalues --   -0.79677  -0.79449  -0.78248  -0.78181  -0.65060
 Alpha  occ. eigenvalues --   -0.65007  -0.60932  -0.60871  -0.59390  -0.59264
 Alpha  occ. eigenvalues --   -0.57619  -0.57491  -0.55282  -0.55209  -0.52854
 Alpha  occ. eigenvalues --   -0.52606  -0.52381  -0.52193  -0.49928  -0.49803
 Alpha  occ. eigenvalues --   -0.47911  -0.47833  -0.46629  -0.46557  -0.45798
 Alpha  occ. eigenvalues --   -0.45718  -0.45709  -0.45649  -0.43740  -0.43709
 Alpha virt. eigenvalues --    0.22505   0.22982   0.23688   0.24779   0.26351
 Alpha virt. eigenvalues --    0.26638   0.27032   0.27409   0.27715   0.29042
 Alpha virt. eigenvalues --    0.30366   0.31164   0.31677   0.31813   0.32181

 Mulliken charges:
               1
     1  C   -0.298180
     2  C   -0.299602
     3  C   -0.475667
     4  H    0.149509
     5  H    0.149497
     6  H    0.151778
     7  H    0.151866
     8  H    0.155157
     9  H    0.155111
    10  H    0.160131
    11  C   -0.298197
    12  C   -0.299289
    13  C   -0.483144
    14  H    0.148922
    15  H    0.149459
    16  H    0.151302
    17  H    0.151208
    18  H    0.153702
    19  H    0.167009
    20  H    0.159276
    21  C   -0.298297
    22  C   -0.299608
    23  C   -0.475699
    24  H    0.149583
    25  H    0.149560
    26  H    0.151897
    27  H    0.151977
    28  H    0.155196
    29  H    0.155151
    30  H    0.160258
    31  C   -0.298590
    32  C   -0.300369
    33  C   -0.476374
    34  H    0.149446
    35  H    0.149764
    36  H    0.151611
    37  H    0.152000
    38  H    0.157539
    39  H    0.155369
    40  H    0.159736
 Sum of Mulliken charges =  -0.00000

 Dipole moment (field-independent basis, Debye):
    X=             -0.0451    Y=             -0.0029    Z=              0.0072  Tot=              0.0457
 Quadrupole moment (field-independent basis, Debye-Ang):
   XX=            -86.7244   YY=            -84.3832   ZZ=            -83.9500
   XY=              0.1112   XZ=              0.5800   YZ=              0.7761

 Normal termination of Gaussian 16 at Wed May  5 23:13:53 2021.
