 Gaussian 16, Revision A.03,
 Gaussian 16:  EM64L-G16RevA.03 25-Dec-2016

 -------------
 #p 6-31g* mp2
 -------------

 ------------------------------------------------------
 Input file generated by CHIRIPA (05-May-2021 14:51:10)
 ------------------------------------------------------
 Symbolic Z-matrix:
 Charge =  0 Multiplicity = 1

                         Standard orientation:
 ---------------------------------------------------------------------
 Center     Atomic      Atomic             Coordinates (Angstroms)
 Number     Number       Type             X           Y           Z
 ---------------------------------------------------------------------
      1          6           0        4.087958   -0.111068    0.241379
      2          6           0        5.037283   -0.423671   -0.915793
      3          6           0        6.352440    0.351136   -0.827296
      4          1           0        3.879541    0.967504    0.255155
      5          1           0        4.589081   -0.344738    1.190942
      6          1           0        4.534017   -0.190784   -1.862948
      7          1           0        5.243312   -1.501652   -0.926932
      8          1           0        6.878940    0.111503    0.102206
      9          1           0        6.165615    1.429819   -0.839128
     10          1           0        7.016053    0.112559   -1.664290
     11          6           0        2.768866   -0.877996    0.166898
     12          6           0        1.819541   -0.565393    1.324070
     13          6           0        0.504384   -1.340199    1.235573
     14          1           0        2.267743   -0.644326   -0.782664
     15          1           0        2.977283   -1.956568    0.153123
     16          1           0        1.613512    0.512588    1.335209
     17          1           0        2.322807   -0.798279    2.271226
     18          1           0        0.691209   -2.418883    1.247406
     19          1           0       -0.022116   -1.100567    0.306071
     20          1           0       -0.159229   -1.101623    2.072567
     21          6           0       -2.789312    0.877525   -0.372364
     22          6           0       -2.658397    2.200310    0.383339
     23          6           0       -1.374732    2.954939    0.036159
     24          1           0       -1.918853    0.246222   -0.147194
     25          1           0       -2.760366    1.076045   -1.452710
     26          1           0       -2.688971    1.999497    1.461929
     27          1           0       -3.529364    2.828461    0.156494
     28          1           0       -1.340000    3.184137   -1.033825
     29          1           0       -0.494833    2.350463    0.279027
     30          1           0       -1.301520    3.897513    0.587570
     31          6           0       -4.067512    0.111538   -0.035914
     32          6           0       -4.198427   -1.211246   -0.791617
     33          6           0       -5.482092   -1.965876   -0.444436
     34          1           0       -4.096458   -0.086980    1.044432
     35          1           0       -4.937971    0.742842   -0.261083
     36          1           0       -3.327460   -1.839397   -0.564772
     37          1           0       -4.167853   -1.010433   -1.870206
     38          1           0       -6.361991   -1.361398   -0.687304
     39          1           0       -5.516824   -2.195072    0.625547
     40          1           0       -5.555304   -2.908449   -0.995848
 ---------------------------------------------------------------------

 SCF Done:  E(RHF) =  -470.733252314     A.U. after   11 cycles
 E2 =    -0.1583136540D+01 EUMP2 =    -0.47231638885351D+03

 The electronic state is 1-A.
 Alpha  occ. eigenvalues --  -11.21679 -11.21614 -11.21585 -11.21563 -11.21438
 Alpha  occ. eigenvalues --  -11.21375 -11.21354 -11.21287 -11.21158 -11.21088
 Alpha  occ. eigenvalues --  -11.21077 -11.21039  -1.08471  -1.08394  -1.03581
 Alpha  occ. eigenvalues --   -1.03503  -0.96033  -0.95953  -0.87058  -0.86964
 Alpha  occ. eigenvalues --   -0.79646  -0.79566  -0.78288  -0.78204  -0.65183
 Alpha  occ. eigenvalues --   -0.64962  -0.61066  -0.60815  -0.59392  -0.59322
 Alpha  occ. eigenvalues --   -0.57656  -0.57554  -0.55401  -0.55183  -0.52728
 Alpha  occ. eigenvalues --   -0.52655  -0.52474  -0.52369  -0.50110  -0.49787
 Alpha  occ. eigenvalues --   -0.48000  -0.47862  -0.46716  -0.46592  -0.45891
 Alpha  occ. eigenvalues --   -0.45759  -0.45719  -0.45472  -0.43826  -0.43754
 Alpha virt. eigenvalues --    0.20158   0.23010   0.23750   0.24795   0.25816
 Alpha virt. eigenvalues --    0.26130   0.27009   0.27503   0.28325   0.29346
 Alpha virt. eigenvalues --    0.30392   0.31411   0.31723   0.31928   0.32131

 Mulliken charges:
               1
     1  C   -0.298456
     2  C   -0.299723
     3  C   -0.475758
     4  H    0.149999
     5  H    0.149547
     6  H    0.152136
     7  H    0.151924
     8  H    0.155166
     9  H    0.155350
    10  H    0.160317
    11  C   -0.298569
    12  C   -0.302117
    13  C   -0.481363
    14  H    0.150144
    15  H    0.149814
    16  H    0.153696
    17  H    0.152556
    18  H    0.155982
    19  H    0.160056
    20  H    0.159997
    21  C   -0.307441
    22  C   -0.298718
    23  C   -0.478278
    24  H    0.159334
    25  H    0.148661
    26  H    0.151809
    27  H    0.151899
    28  H    0.155056
    29  H    0.156512
    30  H    0.160339
    31  C   -0.297477
    32  C   -0.300308
    33  C   -0.475652
    34  H    0.149425
    35  H    0.149381
    36  H    0.152736
    37  H    0.151597
    38  H    0.155037
    39  H    0.155235
    40  H    0.160155
 Sum of Mulliken charges =  -0.00000

 Dipole moment (field-independent basis, Debye):
    X=              0.0348    Y=             -0.0212    Z=              0.0059  Tot=              0.0411
 Quadrupole moment (field-independent basis, Debye-Ang):
   XX=            -86.1939   YY=            -84.6714   ZZ=            -83.9491
   XY=             -1.6113   XZ=              0.7781   YZ=             -0.6643

 Normal termination of Gaussian 16 at Thu May  6 05:23:39 2021.
