 Gaussian 16, Revision A.03,
 Gaussian 16:  EM64L-G16RevA.03 25-Dec-2016

 -------------
 #p 6-31g* mp2
 -------------

 ------------------------------------------------------
 Input file generated by CHIRIPA (05-May-2021 14:55:22)
 ------------------------------------------------------
 Symbolic Z-matrix:
 Charge =  0 Multiplicity = 1

                         Standard orientation:
 ---------------------------------------------------------------------
 Center     Atomic      Atomic             Coordinates (Angstroms)
 Number     Number       Type             X           Y           Z
 ---------------------------------------------------------------------
      1          6           0        4.015788    1.191166    1.306726
      2          6           0        2.656567    1.485850    1.157723
      3          6           0        1.829154    0.654767    0.396647
      4          6           0        2.396750   -0.467771   -0.204213
      5          6           0        3.747242   -0.788119   -0.074450
      6          6           0        4.555835    0.057121    0.691249
      7          1           0        4.651232    1.842270    1.899743
      8          1           0        2.234428    2.365886    1.634568
      9          1           0        0.773597    0.859301    0.264802
     10          1           0        4.139269   -1.672535   -0.561833
     11          1           0        5.611078   -0.174209    0.805237
     12          7           0        1.530767   -1.355095   -1.012377
     13          8           0        2.055120   -2.338013   -1.531570
     14          8           0        0.344054   -1.050859   -1.111319
     15          6           0       -3.760299   -0.157028    0.074306
     16          6           0       -3.550049   -1.192376    1.179672
     17          6           0       -4.577652   -2.323603    1.133298
     18          1           0       -4.772467    0.261382    0.160295
     19          1           0       -3.711251   -0.658392   -0.902231
     20          1           0       -3.598101   -0.688979    2.153786
     21          1           0       -2.538196   -1.608232    1.091159
     22          1           0       -4.526219   -2.851760    0.175693
     23          1           0       -5.592146   -1.927284    1.244358
     24          1           0       -4.408780   -3.052383    1.932186
     25          6           0       -2.740756    0.980142    0.107499
     26          6           0       -2.951007    2.015490   -0.997866
     27          6           0       -1.923403    3.146717   -0.951492
     28          1           0       -2.789804    1.481506    1.084037
     29          1           0       -1.728587    0.561733    0.021512
     30          1           0       -3.962860    2.431345   -0.909353
     31          1           0       -2.902954    1.512093   -1.971980
     32          1           0       -0.908909    2.750399   -1.062551
     33          1           0       -1.974836    3.674873    0.006113
     34          1           0       -2.092275    3.875497   -1.750380
 ---------------------------------------------------------------------

 SCF Done:  E(RHF) =  -669.536170549     A.U. after   15 cycles
 E2 =    -0.2092294483D+01 EUMP2 =    -0.67162846503222D+03

 The electronic state is 1-A.
 Alpha  occ. eigenvalues --  -20.60958 -20.60941 -15.85988 -11.31270 -11.27832
 Alpha  occ. eigenvalues --  -11.27811 -11.27562 -11.26835 -11.26817 -11.21246
 Alpha  occ. eigenvalues --  -11.21066 -11.20947 -11.20877 -11.20738 -11.20478
 Alpha  occ. eigenvalues --   -1.60017  -1.39575  -1.19437  -1.08849  -1.07911
 Alpha  occ. eigenvalues --   -1.04827  -1.03092  -0.95701  -0.95563  -0.86591
 Alpha  occ. eigenvalues --   -0.86232  -0.82533  -0.79166  -0.77823  -0.77502
 Alpha  occ. eigenvalues --   -0.72220  -0.71327  -0.70551  -0.65104  -0.64862
 Alpha  occ. eigenvalues --   -0.64467  -0.62182  -0.60463  -0.58952  -0.57180
 Alpha  occ. eigenvalues --   -0.55337  -0.54849  -0.53161  -0.52927  -0.52281
 Alpha  occ. eigenvalues --   -0.52019  -0.49528  -0.48972  -0.48957  -0.47487
 Alpha  occ. eigenvalues --   -0.46148  -0.45283  -0.45162  -0.44919  -0.43316
 Alpha  occ. eigenvalues --   -0.37416  -0.36424
 Alpha virt. eigenvalues --    0.04916   0.11203   0.16430   0.20238   0.23251
 Alpha virt. eigenvalues --    0.24195   0.25929   0.27445   0.27767   0.28353
 Alpha virt. eigenvalues --    0.29534   0.30935   0.31478   0.32093   0.32406

 Mulliken charges:
               1
     1  C   -0.170084
     2  C   -0.222546
     3  C   -0.175165
     4  C    0.154955
     5  C   -0.169840
     6  C   -0.219020
     7  H    0.226028
     8  H    0.225165
     9  H    0.288525
    10  H    0.275666
    11  H    0.223729
    12  N    0.491409
    13  O   -0.458816
    14  O   -0.468260
    15  C   -0.295979
    16  C   -0.301994
    17  C   -0.475742
    18  H    0.145772
    19  H    0.157059
    20  H    0.146132
    21  H    0.160797
    22  H    0.158538
    23  H    0.152257
    24  H    0.158272
    25  C   -0.315080
    26  C   -0.298147
    27  C   -0.477959
    28  H    0.141366
    29  H    0.170724
    30  H    0.150396
    31  H    0.158852
    32  H    0.150919
    33  H    0.150469
    34  H    0.161603
 Sum of Mulliken charges =  -0.00000

 Dipole moment (field-independent basis, Debye):
    X=              3.1697    Y=              2.9739    Z=              2.7190  Tot=              5.1268
 Quadrupole moment (field-independent basis, Debye-Ang):
   XX=            -77.5298   YY=            -97.2341   ZZ=            -96.2042
   XY=              2.8608   XZ=              5.7459   YZ=             -0.7752

 Normal termination of Gaussian 16 at Thu May  6 15:54:15 2021.
