 Gaussian 16, Revision A.03,
 Gaussian 16:  EM64L-G16RevA.03 25-Dec-2016

 -------------
 #p 6-31g* mp2
 -------------

 ------------------------------------------------------
 Input file generated by CHIRIPA (05-May-2021 14:57:21)
 ------------------------------------------------------
 Symbolic Z-matrix:
 Charge =  0 Multiplicity = 1

                         Standard orientation:
 ---------------------------------------------------------------------
 Center     Atomic      Atomic             Coordinates (Angstroms)
 Number     Number       Type             X           Y           Z
 ---------------------------------------------------------------------
      1          6           0       -5.688790    0.705447   -0.156700
      2          6           0       -4.558950    1.529994   -0.146490
      3          6           0       -3.276033    0.976007   -0.104411
      4          6           0       -3.159177   -0.412755   -0.073201
      5          6           0       -4.265531   -1.260804   -0.082367
      6          6           0       -5.538739   -0.684870   -0.124662
      7          1           0       -6.681620    1.144322   -0.189472
      8          1           0       -4.672463    2.610061   -0.171305
      9          1           0       -2.384290    1.590933   -0.095619
     10          1           0       -4.120563   -2.334003   -0.056939
     11          1           0       -6.414400   -1.327678   -0.132498
     12          7           0       -1.806150   -1.010854   -0.028539
     13          8           0       -1.730058   -2.237281   -0.001627
     14          8           0       -0.847358   -0.241891   -0.021292
     15          6           0        1.932804    2.344543    0.458565
     16          6           0        2.780967    2.286929   -0.652210
     17          6           0        3.588461    1.166946   -0.871624
     18          6           0        3.522293    0.117894    0.044017
     19          6           0        2.687517    0.145550    1.160116
     20          6           0        1.888864    1.275555    1.359594
     21          1           0        1.308958    3.218465    0.621267
     22          1           0        2.817164    3.115639   -1.353620
     23          1           0        4.254143    1.096097   -1.723249
     24          1           0        2.673255   -0.696148    1.841848
     25          1           0        1.231119    1.317548    2.223107
     26          7           0        4.372470   -1.073087   -0.177713
     27          8           0        4.295753   -1.984134    0.643715
     28          8           0        5.099457   -1.072978   -1.168736
 ---------------------------------------------------------------------

 SCF Done:  E(RHF) =  -868.337233551     A.U. after   16 cycles
 E2 =    -0.2600148996D+01 EUMP2 =    -0.87093738254730D+03

 The electronic state is 1-A.
 Alpha  occ. eigenvalues --  -20.61196 -20.61163 -20.59743 -20.59723 -15.86222
 Alpha  occ. eigenvalues --  -15.84784 -11.31620 -11.30025 -11.28235 -11.28152
 Alpha  occ. eigenvalues --  -11.27913 -11.27226 -11.27168 -11.26638 -11.26531
 Alpha  occ. eigenvalues --  -11.26419 -11.25711 -11.25598  -1.60257  -1.58808
 Alpha  occ. eigenvalues --   -1.39811  -1.38367  -1.19790  -1.18191  -1.09176
 Alpha  occ. eigenvalues --   -1.07645  -1.05198  -1.03593  -0.96008  -0.94501
 Alpha  occ. eigenvalues --   -0.86593  -0.85033  -0.82840  -0.81344  -0.77893
 Alpha  occ. eigenvalues --   -0.76383  -0.72445  -0.71585  -0.71020  -0.70893
 Alpha  occ. eigenvalues --   -0.70115  -0.69406  -0.65442  -0.65198  -0.63890
 Alpha  occ. eigenvalues --   -0.63667  -0.62551  -0.60979  -0.55684  -0.54214
 Alpha  occ. eigenvalues --   -0.53523  -0.53291  -0.51885  -0.51747  -0.49208
 Alpha  occ. eigenvalues --   -0.49183  -0.47774  -0.47763  -0.45215  -0.43801
 Alpha  occ. eigenvalues --   -0.37763  -0.36804  -0.36182  -0.35090
 Alpha virt. eigenvalues --    0.04630   0.06170   0.10852   0.12501   0.16127
 Alpha virt. eigenvalues --    0.17682   0.20941   0.22302   0.26821   0.27720
 Alpha virt. eigenvalues --    0.28326   0.29158   0.30639   0.31737   0.32244

 Mulliken charges:
               1
     1  C   -0.170682
     2  C   -0.218108
     3  C   -0.171371
     4  C    0.158420
     5  C   -0.170550
     6  C   -0.218256
     7  H    0.226756
     8  H    0.222637
     9  H    0.270206
    10  H    0.277539
    11  H    0.225213
    12  N    0.490028
    13  O   -0.456278
    14  O   -0.465269
    15  C   -0.170193
    16  C   -0.218004
    17  C   -0.171619
    18  C    0.159287
    19  C   -0.160250
    20  C   -0.200374
    21  H    0.215621
    22  H    0.217017
    23  H    0.271568
    24  H    0.274893
    25  H    0.218394
    26  N    0.488424
    27  O   -0.460356
    28  O   -0.464695
 Sum of Mulliken charges =  -0.00000

 Dipole moment (field-independent basis, Debye):
    X=             -8.0509    Y=              6.0650    Z=              0.6999  Tot=             10.1040
 Quadrupole moment (field-independent basis, Debye-Ang):
   XX=            -95.8626   YY=           -101.6336   ZZ=           -102.5252
   XY=             12.5365   XZ=              2.0103   YZ=             -1.8621

 Normal termination of Gaussian 16 at Thu May  6 01:43:59 2021.
