 Gaussian 16, Revision A.03,
 Gaussian 16:  EM64L-G16RevA.03 25-Dec-2016

 -------------
 #p 6-31g* mp2
 -------------

 ------------------------------------------------------
 Input file generated by CHIRIPA (05-May-2021 14:53:14)
 ------------------------------------------------------
 Symbolic Z-matrix:
 Charge =  0 Multiplicity = 1

                         Standard orientation:
 ---------------------------------------------------------------------
 Center     Atomic      Atomic             Coordinates (Angstroms)
 Number     Number       Type             X           Y           Z
 ---------------------------------------------------------------------
      1          6           0       -2.188517    0.776224   -0.816073
      2          6           0       -1.682128    2.129439   -0.315709
      3          6           0       -0.735344    2.809057   -1.305413
      4          1           0       -1.329404    0.120465   -1.013177
      5          1           0       -2.701241    0.917182   -1.777656
      6          1           0       -1.171719    1.986172    0.645318
      7          1           0       -2.542555    2.781988   -0.119592
      8          1           0       -1.237523    2.980910   -2.262953
      9          1           0        0.141101    2.180572   -1.493697
     10          1           0       -0.385431    3.774848   -0.927697
     11          6           0       -3.136064    0.084483    0.162384
     12          6           0       -3.642453   -1.268732   -0.337980
     13          6           0       -4.589237   -1.948350    0.651723
     14          1           0       -2.623340   -0.056474    1.123966
     15          1           0       -3.995177    0.740242    0.359487
     16          1           0       -2.782026   -1.921280   -0.534097
     17          1           0       -4.152861   -1.125465   -1.299007
     18          1           0       -5.465682   -1.319865    0.840008
     19          1           0       -4.087058   -2.120202    1.609264
     20          1           0       -4.939149   -2.914141    0.274007
     21          6           0        2.445417   -2.558789   -0.881530
     22          6           0        1.802459   -2.504692    0.359518
     23          6           0        1.594573   -1.278771    0.998617
     24          6           0        2.044579   -0.121343    0.365257
     25          6           0        2.688413   -0.142558   -0.870995
     26          6           0        2.885566   -1.379628   -1.491750
     27          1           0        2.602740   -3.515445   -1.370872
     28          1           0        1.459573   -3.418837    0.835770
     29          1           0        1.099674   -1.208053    1.959602
     30          1           0        3.019036    0.785663   -1.321009
     31          1           0        3.385195   -1.418617   -2.455542
     32          7           0        1.830180    1.182385    1.032132
     33          8           0        2.236078    2.187765    0.453255
     34          8           0        1.260297    1.174184    2.121078
 ---------------------------------------------------------------------

 SCF Done:  E(RHF) =  -669.536079831     A.U. after   15 cycles
 E2 =    -0.2093949903D+01 EUMP2 =    -0.67163002973382D+03

 The electronic state is 1-A.
 Alpha  occ. eigenvalues --  -20.61030 -20.61001 -15.86014 -11.31361 -11.27914
 Alpha  occ. eigenvalues --  -11.27906 -11.27634 -11.26913 -11.26901 -11.21490
 Alpha  occ. eigenvalues --  -11.21066 -11.21030 -11.20932 -11.20743 -11.20134
 Alpha  occ. eigenvalues --   -1.60064  -1.39621  -1.19518  -1.08918  -1.08031
 Alpha  occ. eigenvalues --   -1.04909  -1.03075  -0.95763  -0.95524  -0.86548
 Alpha  occ. eigenvalues --   -0.86309  -0.82592  -0.79161  -0.77802  -0.77647
 Alpha  occ. eigenvalues --   -0.72246  -0.71428  -0.70616  -0.65170  -0.64906
 Alpha  occ. eigenvalues --   -0.64656  -0.62256  -0.60455  -0.58925  -0.57107
 Alpha  occ. eigenvalues --   -0.55408  -0.54838  -0.53239  -0.52997  -0.52189
 Alpha  occ. eigenvalues --   -0.51956  -0.49561  -0.49009  -0.49006  -0.47458
 Alpha  occ. eigenvalues --   -0.46345  -0.45467  -0.45342  -0.44580  -0.43315
 Alpha  occ. eigenvalues --   -0.37479  -0.36503
 Alpha virt. eigenvalues --    0.04829   0.11064   0.16289   0.21189   0.22982
 Alpha virt. eigenvalues --    0.24528   0.26750   0.26991   0.27759   0.28269
 Alpha virt. eigenvalues --    0.28571   0.30603   0.31638   0.32113   0.32489

 Mulliken charges:
               1
     1  C   -0.298494
     2  C   -0.311559
     3  C   -0.471632
     4  H    0.144580
     5  H    0.147094
     6  H    0.167610
     7  H    0.150397
     8  H    0.146451
     9  H    0.149974
    10  H    0.169718
    11  C   -0.298071
    12  C   -0.298830
    13  C   -0.475193
    14  H    0.150938
    15  H    0.150483
    16  H    0.147458
    17  H    0.151517
    18  H    0.156591
    19  H    0.153691
    20  H    0.157980
    21  C   -0.170430
    22  C   -0.218518
    23  C   -0.171458
    24  C    0.159365
    25  C   -0.172409
    26  C   -0.218329
    27  H    0.226440
    28  H    0.224282
    29  H    0.275895
    30  H    0.276702
    31  H    0.224405
    32  N    0.488201
    33  O   -0.455432
    34  O   -0.459415
 Sum of Mulliken charges =  -0.00000

 Dipole moment (field-independent basis, Debye):
    X=              0.9691    Y=             -4.5082    Z=             -2.2256  Tot=              5.1202
 Quadrupole moment (field-independent basis, Debye-Ang):
   XX=            -91.2963   YY=            -92.8906   ZZ=            -94.2387
   XY=             -9.3291   XZ=             -6.0721   YZ=             -2.9580

 Normal termination of Gaussian 16 at Thu May  6 01:01:44 2021.
