 Gaussian 16, Revision A.03,
 Gaussian 16:  EM64L-G16RevA.03 25-Dec-2016

 -------------
 #p 6-31g* mp2
 -------------

 ------------------------------------------------------
 Input file generated by CHIRIPA (05-May-2021 14:51:14)
 ------------------------------------------------------
 Symbolic Z-matrix:
 Charge =  0 Multiplicity = 1

                         Standard orientation:
 ---------------------------------------------------------------------
 Center     Atomic      Atomic             Coordinates (Angstroms)
 Number     Number       Type             X           Y           Z
 ---------------------------------------------------------------------
      1          6           0        4.465976   -0.064959    0.112268
      2          6           0        5.246357   -0.973372   -0.838403
      3          6           0        6.374186   -1.732141   -0.138358
      4          1           0        5.158380    0.650676    0.576367
      5          1           0        4.049661   -0.671376    0.928561
      6          1           0        5.659916   -0.365632   -1.653410
      7          1           0        4.551982   -1.686804   -1.300438
      8          1           0        5.975077   -2.362299    0.663024
      9          1           0        7.089305   -1.033621    0.308046
     10          1           0        6.918926   -2.375453   -0.836404
     11          6           0        3.335166    0.700299   -0.572844
     12          6           0        2.554786    1.608712    0.377828
     13          6           0        1.426956    2.367481   -0.322218
     14          1           0        3.751482    1.306716   -1.389137
     15          1           0        2.642762   -0.015336   -1.036943
     16          1           0        3.249160    2.322144    0.839862
     17          1           0        2.141227    1.000972    1.192835
     18          1           0        0.711838    1.668961   -0.768622
     19          1           0        1.826066    2.997639   -1.123600
     20          1           0        0.882217    3.010793    0.375829
     21          6           0       -4.662823   -0.326110    0.278594
     22          6           0       -5.356903   -0.314973   -1.083798
     23          6           0       -6.881599   -0.332076   -0.970637
     24          1           0       -4.980469   -1.216963    0.837546
     25          1           0       -4.998038    0.543804    0.860208
     26          1           0       -5.019428   -1.183893   -1.663198
     27          1           0       -5.037420    0.575858   -1.639648
     28          1           0       -7.236488    0.541985   -0.415054
     29          1           0       -7.218394   -1.227763   -0.438740
     30          1           0       -7.357435   -0.323751   -1.956217
     31          6           0       -3.138320   -0.309230    0.181981
     32          6           0       -2.444239   -0.320367    1.544375
     33          6           0       -0.919544   -0.303264    1.431212
     34          1           0       -2.803105   -1.179144   -0.399633
     35          1           0       -2.820674    0.581623   -0.376969
     36          1           0       -2.763722   -1.211197    2.100223
     37          1           0       -2.781715    0.548553    2.123774
     38          1           0       -0.582748    0.592424    0.899315
     39          1           0       -0.564655   -1.177325    0.875630
     40          1           0       -0.443707   -0.311588    2.416792
 ---------------------------------------------------------------------

 SCF Done:  E(RHF) =  -470.732868549     A.U. after   11 cycles
 E2 =    -0.1583032743D+01 EUMP2 =    -0.47231590129208D+03

 The electronic state is 1-A.
 Alpha  occ. eigenvalues --  -11.21603 -11.21599 -11.21573 -11.21535 -11.21411
 Alpha  occ. eigenvalues --  -11.21361 -11.21351 -11.21301 -11.21071 -11.21059
 Alpha  occ. eigenvalues --  -11.21049 -11.21025  -1.08437  -1.08386  -1.03564
 Alpha  occ. eigenvalues --   -1.03468  -0.96039  -0.95905  -0.87041  -0.86938
 Alpha  occ. eigenvalues --   -0.79600  -0.79561  -0.78248  -0.78200  -0.65114
 Alpha  occ. eigenvalues --   -0.64984  -0.61136  -0.60740  -0.59362  -0.59314
 Alpha  occ. eigenvalues --   -0.57599  -0.57563  -0.55540  -0.55000  -0.52677
 Alpha  occ. eigenvalues --   -0.52656  -0.52421  -0.52339  -0.50097  -0.49708
 Alpha  occ. eigenvalues --   -0.47969  -0.47802  -0.46661  -0.46532  -0.45824
 Alpha  occ. eigenvalues --   -0.45726  -0.45665  -0.45663  -0.43786  -0.43746
 Alpha virt. eigenvalues --    0.21570   0.22988   0.23639   0.24928   0.26288
 Alpha virt. eigenvalues --    0.26408   0.27103   0.27613   0.27958   0.29120
 Alpha virt. eigenvalues --    0.30794   0.31322   0.31666   0.31768   0.32483

 Mulliken charges:
               1
     1  C   -0.298389
     2  C   -0.299612
     3  C   -0.475685
     4  H    0.149447
     5  H    0.149830
     6  H    0.151821
     7  H    0.151878
     8  H    0.155170
     9  H    0.155118
    10  H    0.160126
    11  C   -0.298217
    12  C   -0.302581
    13  C   -0.479423
    14  H    0.149128
    15  H    0.150083
    16  H    0.151628
    17  H    0.156914
    18  H    0.156470
    19  H    0.156101
    20  H    0.159561
    21  C   -0.298249
    22  C   -0.299688
    23  C   -0.475713
    24  H    0.149678
    25  H    0.149616
    26  H    0.151854
    27  H    0.152080
    28  H    0.155219
    29  H    0.155153
    30  H    0.160276
    31  C   -0.298692
    32  C   -0.299527
    33  C   -0.484094
    34  H    0.149229
    35  H    0.149773
    36  H    0.151669
    37  H    0.151926
    38  H    0.166777
    39  H    0.153837
    40  H    0.159508
 Sum of Mulliken charges =  -0.00000

 Dipole moment (field-independent basis, Debye):
    X=             -0.0034    Y=              0.0120    Z=              0.0016  Tot=              0.0125
 Quadrupole moment (field-independent basis, Debye-Ang):
   XX=            -86.4197   YY=            -83.5690   ZZ=            -84.9329
   XY=              0.9658   XZ=             -0.4911   YZ=              0.1107

 Normal termination of Gaussian 16 at Wed May  5 23:14:58 2021.
