 Gaussian 16, Revision A.03,
 Gaussian 16:  EM64L-G16RevA.03 25-Dec-2016

 -------------
 #p 6-31g* mp2
 -------------

 ------------------------------------------------------
 Input file generated by CHIRIPA (05-May-2021 14:53:14)
 ------------------------------------------------------
 Symbolic Z-matrix:
 Charge =  0 Multiplicity = 1

                         Standard orientation:
 ---------------------------------------------------------------------
 Center     Atomic      Atomic             Coordinates (Angstroms)
 Number     Number       Type             X           Y           Z
 ---------------------------------------------------------------------
      1          6           0        3.620822   -0.464799   -0.384432
      2          6           0        3.009916   -1.579721    0.465114
      3          6           0        1.736961   -2.161787   -0.150173
      4          1           0        2.878442    0.333813   -0.518731
      5          1           0        3.842960   -0.856819   -1.386614
      6          1           0        2.790274   -1.186086    1.465826
      7          1           0        3.753901   -2.375685    0.597566
      8          1           0        1.944286   -2.580564   -1.140246
      9          1           0        0.975183   -1.384205   -0.267053
     10          1           0        1.317000   -2.957141    0.473449
     11          6           0        4.893984    0.127134    0.217567
     12          6           0        5.504889    1.242057   -0.631979
     13          6           0        6.777844    1.824123   -0.016691
     14          1           0        4.671846    0.519154    1.219749
     15          1           0        5.636363   -0.671478    0.351866
     16          1           0        4.760904    2.038021   -0.764431
     17          1           0        5.724532    0.848421   -1.632690
     18          1           0        7.539623    1.046541    0.100189
     19          1           0        6.570520    2.242899    0.973381
     20          1           0        7.197806    2.619476   -0.640313
     21          6           0       -4.331695    2.443762   -0.034762
     22          6           0       -3.205343    2.204066    0.759215
     23          6           0       -2.639759    0.927078    0.822185
     24          6           0       -3.228879   -0.091602    0.074844
     25          6           0       -4.351271    0.115709   -0.725498
     26          6           0       -4.900061    1.400658   -0.773283
     27          1           0       -4.764531    3.438849   -0.077779
     28          1           0       -2.761830    3.012250    1.333828
     29          1           0       -1.767936    0.713715    1.428665
     30          1           0       -4.771128   -0.709996   -1.287058
     31          1           0       -5.774817    1.583895   -1.390753
     32          7           0       -2.639010   -1.447706    0.133468
     33          8           0       -3.176818   -2.328222   -0.534431
     34          8           0       -1.650031   -1.604426    0.846209
 ---------------------------------------------------------------------

 SCF Done:  E(RHF) =  -669.535644406     A.U. after   15 cycles
 E2 =    -0.2090985347D+01 EUMP2 =    -0.67162662975262D+03

 The electronic state is 1-A.
 Alpha  occ. eigenvalues --  -20.60885 -20.60868 -15.85905 -11.31265 -11.27835
 Alpha  occ. eigenvalues --  -11.27827 -11.27573 -11.26848 -11.26837 -11.21328
 Alpha  occ. eigenvalues --  -11.20980 -11.20868 -11.20813 -11.20712 -11.19681
 Alpha  occ. eigenvalues --   -1.59939  -1.39495  -1.19437  -1.08834  -1.07901
 Alpha  occ. eigenvalues --   -1.04838  -1.02892  -0.95676  -0.95303  -0.86319
 Alpha  occ. eigenvalues --   -0.86235  -0.82504  -0.78985  -0.77693  -0.77547
 Alpha  occ. eigenvalues --   -0.72132  -0.71256  -0.70545  -0.65093  -0.64841
 Alpha  occ. eigenvalues --   -0.64544  -0.62186  -0.60294  -0.58736  -0.56913
 Alpha  occ. eigenvalues --   -0.55340  -0.54604  -0.53168  -0.52931  -0.51949
 Alpha  occ. eigenvalues --   -0.51742  -0.49300  -0.48893  -0.48858  -0.47289
 Alpha  occ. eigenvalues --   -0.46083  -0.45279  -0.45179  -0.44718  -0.43128
 Alpha  occ. eigenvalues --   -0.37415  -0.36441
 Alpha virt. eigenvalues --    0.04957   0.11210   0.16427   0.21314   0.23323
 Alpha virt. eigenvalues --    0.24947   0.27032   0.27297   0.27935   0.28106
 Alpha virt. eigenvalues --    0.28889   0.30827   0.31891   0.32254   0.32603

 Mulliken charges:
               1
     1  C   -0.296954
     2  C   -0.300945
     3  C   -0.472086
     4  H    0.145629
     5  H    0.148711
     6  H    0.149434
     7  H    0.148807
     8  H    0.148232
     9  H    0.159848
    10  H    0.170456
    11  C   -0.297449
    12  C   -0.298877
    13  C   -0.475283
    14  H    0.147608
    15  H    0.149571
    16  H    0.149617
    17  H    0.151812
    18  H    0.155374
    19  H    0.154066
    20  H    0.158792
    21  C   -0.170716
    22  C   -0.218453
    23  C   -0.171324
    24  C    0.158375
    25  C   -0.170826
    26  C   -0.218502
    27  H    0.225885
    28  H    0.223652
    29  H    0.275420
    30  H    0.275883
    31  H    0.223753
    32  N    0.488393
    33  O   -0.459212
    34  O   -0.458691
 Sum of Mulliken charges =  -0.00000

 Dipole moment (field-independent basis, Debye):
    X=             -2.3380    Y=              4.6936    Z=             -0.1783  Tot=              5.2467
 Quadrupole moment (field-independent basis, Debye-Ang):
   XX=            -80.6170   YY=            -95.2898   ZZ=            -93.2685
   XY=            -15.1390   XZ=              2.6408   YZ=              1.7329

 Normal termination of Gaussian 16 at Wed May  5 18:36:31 2021.
