 Gaussian 16, Revision A.03,
 Gaussian 16:  EM64L-G16RevA.03 25-Dec-2016

 -------------
 #p 6-31g* mp2
 -------------

 ------------------------------------------------------
 Input file generated by CHIRIPA (05-May-2021 14:53:15)
 ------------------------------------------------------
 Symbolic Z-matrix:
 Charge =  0 Multiplicity = 1

                         Standard orientation:
 ---------------------------------------------------------------------
 Center     Atomic      Atomic             Coordinates (Angstroms)
 Number     Number       Type             X           Y           Z
 ---------------------------------------------------------------------
      1          6           0       -5.068391   -0.057450    0.342963
      2          6           0       -5.483235   -1.257334   -0.509192
      3          6           0       -6.714492   -1.976722    0.042425
      4          1           0       -4.868116   -0.396015    1.368735
      5          1           0       -5.908968    0.647517    0.404997
      6          1           0       -4.641661   -1.959174   -0.570745
      7          1           0       -5.682361   -0.915903   -1.533101
      8          1           0       -7.570451   -1.295643    0.087883
      9          1           0       -6.523838   -2.344841    1.055707
     10          1           0       -6.993582   -2.831141   -0.582023
     11          6           0       -3.838993    0.672051   -0.195682
     12          6           0       -3.424149    1.871935    0.656473
     13          6           0       -2.192893    2.591323    0.104856
     14          1           0       -2.998417   -0.032916   -0.257716
     15          1           0       -4.039269    1.010617   -1.221454
     16          1           0       -3.225023    1.530504    1.680382
     17          1           0       -4.265724    2.573775    0.718026
     18          1           0       -2.383547    2.959443   -0.908426
     19          1           0       -1.336934    1.910244    0.059397
     20          1           0       -1.913803    3.445743    0.729304
     21          6           0        5.986277   -0.316918    0.217828
     22          6           0        5.224633   -1.473441    0.414993
     23          6           0        3.834980   -1.442537    0.265130
     24          6           0        3.237096   -0.232650   -0.084152
     25          6           0        3.968596    0.936488   -0.287411
     26          6           0        5.356937    0.882241   -0.132127
     27          1           0        7.065283   -0.349992    0.336350
     28          1           0        5.710691   -2.406124    0.686830
     29          1           0        3.221212   -2.322996    0.411752
     30          1           0        3.455667    1.851484   -0.557793
     31          1           0        5.945911    1.781972   -0.285878
     32          7           0        1.766627   -0.187577   -0.245674
     33          8           0        1.263869    0.890787   -0.553898
     34          8           0        1.144675   -1.231467   -0.060993
 ---------------------------------------------------------------------

 SCF Done:  E(RHF) =  -669.536477723     A.U. after   15 cycles
 E2 =    -0.2090866925D+01 EUMP2 =    -0.67162734464803D+03

 The electronic state is 1-A.
 Alpha  occ. eigenvalues --  -20.61039 -20.61014 -15.86047 -11.31336 -11.27895
 Alpha  occ. eigenvalues --  -11.27889 -11.27627 -11.26894 -11.26884 -11.20714
 Alpha  occ. eigenvalues --  -11.20372 -11.20356 -11.20290 -11.20073 -11.19359
 Alpha  occ. eigenvalues --   -1.60083  -1.39639  -1.19501  -1.08912  -1.07300
 Alpha  occ. eigenvalues --   -1.04891  -1.02383  -0.95760  -0.94816  -0.86293
 Alpha  occ. eigenvalues --   -0.85830  -0.82592  -0.78475  -0.77649  -0.77076
 Alpha  occ. eigenvalues --   -0.72268  -0.71391  -0.70609  -0.65156  -0.64894
 Alpha  occ. eigenvalues --   -0.63931  -0.62238  -0.59777  -0.58242  -0.56428
 Alpha  occ. eigenvalues --   -0.55399  -0.54091  -0.53225  -0.52982  -0.51542
 Alpha  occ. eigenvalues --   -0.51236  -0.49160  -0.49026  -0.48601  -0.46756
 Alpha  occ. eigenvalues --   -0.45509  -0.45045  -0.44634  -0.44476  -0.42647
 Alpha  occ. eigenvalues --   -0.37478  -0.36490
 Alpha virt. eigenvalues --    0.04870   0.11165   0.16372   0.21304   0.23960
 Alpha virt. eigenvalues --    0.25513   0.27225   0.27781   0.28176   0.28650
 Alpha virt. eigenvalues --    0.29234   0.30872   0.32370   0.32620   0.32778

 Mulliken charges:
               1
     1  C   -0.297361
     2  C   -0.299396
     3  C   -0.475059
     4  H    0.148160
     5  H    0.145872
     6  H    0.154476
     7  H    0.150405
     8  H    0.153251
     9  H    0.154079
    10  H    0.157878
    11  C   -0.300422
    12  C   -0.297906
    13  C   -0.487386
    14  H    0.161605
    15  H    0.146651
    16  H    0.148750
    17  H    0.145013
    18  H    0.149336
    19  H    0.185957
    20  H    0.150814
    21  C   -0.170463
    22  C   -0.218623
    23  C   -0.170523
    24  C    0.157646
    25  C   -0.170740
    26  C   -0.218585
    27  H    0.226155
    28  H    0.223933
    29  H    0.275840
    30  H    0.276318
    31  H    0.224051
    32  N    0.489769
    33  O   -0.459859
    34  O   -0.459634
 Sum of Mulliken charges =  -0.00000

 Dipole moment (field-independent basis, Debye):
    X=              5.6148    Y=             -0.2782    Z=              0.5210  Tot=              5.6458
 Quadrupole moment (field-independent basis, Debye-Ang):
   XX=            -63.6312   YY=            -90.6231   ZZ=            -95.3774
   XY=             -1.9635   XZ=              2.1297   YZ=             -1.7253

 Normal termination of Gaussian 16 at Thu May  6 01:07:19 2021.
