 Gaussian 16, Revision A.03,
 Gaussian 16:  EM64L-G16RevA.03 25-Dec-2016

 -------------
 #p 6-31g* mp2
 -------------

 ------------------------------------------------------
 Input file generated by CHIRIPA (05-May-2021 14:57:23)
 ------------------------------------------------------
 Symbolic Z-matrix:
 Charge =  0 Multiplicity = 1

                         Standard orientation:
 ---------------------------------------------------------------------
 Center     Atomic      Atomic             Coordinates (Angstroms)
 Number     Number       Type             X           Y           Z
 ---------------------------------------------------------------------
      1          6           0        0.928540   -1.133669    0.885818
      2          6           0        2.109793   -1.337320    1.606712
      3          6           0        3.314601   -0.780503    1.167461
      4          6           0        3.301771   -0.022076   -0.002118
      5          6           0        2.141350    0.198833   -0.742330
      6          6           0        0.948055   -0.367593   -0.284340
      7          1           0       -0.002912   -1.569950    1.234317
      8          1           0        2.097623   -1.931818    2.515816
      9          1           0        4.243638   -0.922275    1.706170
     10          1           0        2.184934    0.796169   -1.644942
     11          1           0        0.032203   -0.207769   -0.846227
     12          7           0        4.571153    0.572487   -0.477053
     13          8           0        4.533296    1.236685   -1.510515
     14          8           0        5.579916    0.363050    0.193149
     15          6           0       -3.208948    2.419842    0.955064
     16          6           0       -3.251413    2.273180   -0.435335
     17          6           0       -3.187665    1.003779   -1.017661
     18          6           0       -3.081309   -0.102267   -0.175852
     19          6           0       -3.036675    0.011271    1.212819
     20          6           0       -3.101904    1.290410    1.773261
     21          1           0       -3.259045    3.409726    1.398928
     22          1           0       -3.334518    3.148532   -1.073219
     23          1           0       -3.218486    0.861484   -2.091077
     24          1           0       -2.953542   -0.880072    1.822751
     25          1           0       -3.068710    1.401296    2.853376
     26          7           0       -3.013038   -1.451280   -0.780751
     27          8           0       -2.919582   -2.409879   -0.017213
     28          8           0       -3.054276   -1.524493   -2.006954
 ---------------------------------------------------------------------

 SCF Done:  E(RHF) =  -868.338531353     A.U. after   16 cycles
 E2 =    -0.2601211090D+01 EUMP2 =    -0.87093974244217D+03

 The electronic state is 1-A.
 Alpha  occ. eigenvalues --  -20.62023 -20.61991 -20.60625 -20.60620 -15.87030
 Alpha  occ. eigenvalues --  -15.85677 -11.32314 -11.30974 -11.28860 -11.28806
 Alpha  occ. eigenvalues --  -11.28459 -11.27788 -11.27757 -11.27547 -11.27537
 Alpha  occ. eigenvalues --  -11.27202 -11.26531 -11.26499  -1.61079  -1.59703
 Alpha  occ. eigenvalues --   -1.40631  -1.39258  -1.20453  -1.19137  -1.09845
 Alpha  occ. eigenvalues --   -1.08533  -1.05812  -1.04536  -0.96695  -0.95382
 Alpha  occ. eigenvalues --   -0.87212  -0.85937  -0.83512  -0.82221  -0.78602
 Alpha  occ. eigenvalues --   -0.77294  -0.73226  -0.72453  -0.71893  -0.71499
 Alpha  occ. eigenvalues --   -0.71026  -0.70203  -0.66074  -0.65773  -0.64786
 Alpha  occ. eigenvalues --   -0.64545  -0.63154  -0.61899  -0.56256  -0.55001
 Alpha  occ. eigenvalues --   -0.54181  -0.53870  -0.52853  -0.52605  -0.50008
 Alpha  occ. eigenvalues --   -0.49980  -0.48656  -0.48649  -0.46024  -0.44679
 Alpha  occ. eigenvalues --   -0.38395  -0.37447  -0.37044  -0.36139
 Alpha virt. eigenvalues --    0.03870   0.05251   0.10117   0.11514   0.15417
 Alpha virt. eigenvalues --    0.16776   0.20240   0.21445   0.25973   0.26788
 Alpha virt. eigenvalues --    0.27243   0.28475   0.30229   0.30581   0.32357

 Mulliken charges:
               1
     1  C   -0.173408
     2  C   -0.219552
     3  C   -0.171394
     4  C    0.158050
     5  C   -0.172341
     6  C   -0.218132
     7  H    0.230541
     8  H    0.222642
     9  H    0.274526
    10  H    0.274305
    11  H    0.222686
    12  N    0.488123
    13  O   -0.461459
    14  O   -0.461195
    15  C   -0.169366
    16  C   -0.216578
    17  C   -0.176705
    18  C    0.153013
    19  C   -0.176572
    20  C   -0.215907
    21  H    0.230702
    22  H    0.228452
    23  H    0.278266
    24  H    0.273573
    25  H    0.227110
    26  N    0.487602
    27  O   -0.462078
    28  O   -0.454903
 Sum of Mulliken charges =  -0.00000

 Dipole moment (field-independent basis, Debye):
    X=             -5.0308    Y=              2.8261    Z=              3.8144  Tot=              6.9171
 Quadrupole moment (field-independent basis, Debye-Ang):
   XX=           -132.7089   YY=           -104.6853   ZZ=            -98.5225
   XY=            -23.5261   XZ=              1.4468   YZ=             -4.8354

 Normal termination of Gaussian 16 at Thu May  6 19:36:38 2021.
