 Gaussian 16, Revision A.03,
 Gaussian 16:  EM64L-G16RevA.03 25-Dec-2016

 -------------
 #p 6-31g* mp2
 -------------

 ------------------------------------------------------
 Input file generated by CHIRIPA (05-May-2021 14:55:24)
 ------------------------------------------------------
 Symbolic Z-matrix:
 Charge =  0 Multiplicity = 1

                         Standard orientation:
 ---------------------------------------------------------------------
 Center     Atomic      Atomic             Coordinates (Angstroms)
 Number     Number       Type             X           Y           Z
 ---------------------------------------------------------------------
      1          6           0       -1.510878   -1.445537   -0.585820
      2          6           0       -2.681582   -2.199923   -0.455913
      3          6           0       -3.893744   -1.580441   -0.137395
      4          6           0       -3.898945   -0.198441    0.045192
      5          6           0       -2.749382    0.580518   -0.077351
      6          6           0       -1.548449   -0.060166   -0.396459
      7          1           0       -0.573603   -1.935001   -0.833482
      8          1           0       -2.655385   -3.275979   -0.602412
      9          1           0       -4.814921   -2.140332   -0.030749
     10          1           0       -2.806907    1.651507    0.074610
     11          1           0       -0.640822    0.528229   -0.496709
     12          7           0       -5.176264    0.468600    0.382705
     13          8           0       -5.154327    1.687560    0.538562
     14          8           0       -6.175176   -0.240164    0.484999
     15          6           0        3.994074    0.498737   -0.196211
     16          6           0        3.556006    1.963228   -0.159495
     17          6           0        2.098959    2.155173   -0.581358
     18          1           0        3.849911    0.104857   -1.211603
     19          1           0        3.340103   -0.088984    0.462805
     20          1           0        4.211478    2.548244   -0.817317
     21          1           0        3.701407    2.353721    0.855880
     22          1           0        1.429455    1.596309    0.080485
     23          1           0        1.942425    1.791937   -1.602220
     24          1           0        1.806850    3.209407   -0.547844
     25          6           0        5.448302    0.290709    0.222922
     26          6           0        5.886370   -1.173782    0.186208
     27          6           0        7.343416   -1.365727    0.608070
     28          1           0        6.102272    0.878430   -0.436093
     29          1           0        5.592464    0.684589    1.238315
     30          1           0        5.740968   -1.564275   -0.829168
     31          1           0        5.230897   -1.758798    0.844028
     32          1           0        7.499951   -1.002491    1.628931
     33          1           0        8.012920   -0.806863   -0.053773
     34          1           0        7.635525   -2.419961    0.574556
 ---------------------------------------------------------------------

 SCF Done:  E(RHF) =  -669.535658698     A.U. after   15 cycles
 E2 =    -0.2090803763D+01 EUMP2 =    -0.67162646246053D+03

 The electronic state is 1-A.
 Alpha  occ. eigenvalues --  -20.60705 -20.60700 -15.85757 -11.31109 -11.27681
 Alpha  occ. eigenvalues --  -11.27660 -11.27409 -11.26696 -11.26623 -11.22457
 Alpha  occ. eigenvalues --  -11.22210 -11.22201 -11.22190 -11.22015 -11.21551
 Alpha  occ. eigenvalues --   -1.59781  -1.39335  -1.19277  -1.09172  -1.08675
 Alpha  occ. eigenvalues --   -1.04677  -1.04284  -0.96757  -0.95513  -0.87782
 Alpha  occ. eigenvalues --   -0.86074  -0.82345  -0.80362  -0.78972  -0.77393
 Alpha  occ. eigenvalues --   -0.71976  -0.71104  -0.70388  -0.65800  -0.64927
 Alpha  occ. eigenvalues --   -0.64695  -0.62066  -0.61650  -0.60117  -0.58351
 Alpha  occ. eigenvalues --   -0.56059  -0.55179  -0.53449  -0.53286  -0.53010
 Alpha  occ. eigenvalues --   -0.52655  -0.50688  -0.48771  -0.48732  -0.48621
 Alpha  occ. eigenvalues --   -0.47374  -0.46516  -0.46420  -0.44744  -0.44525
 Alpha  occ. eigenvalues --   -0.37262  -0.36280
 Alpha virt. eigenvalues --    0.05135   0.11346   0.16619   0.20433   0.22319
 Alpha virt. eigenvalues --    0.23701   0.25348   0.26036   0.26912   0.28331
 Alpha virt. eigenvalues --    0.28840   0.30229   0.30855   0.31178   0.31906

 Mulliken charges:
               1
     1  C   -0.173239
     2  C   -0.218468
     3  C   -0.171385
     4  C    0.158824
     5  C   -0.173270
     6  C   -0.227595
     7  H    0.225908
     8  H    0.222984
     9  H    0.275259
    10  H    0.275809
    11  H    0.236569
    12  N    0.488075
    13  O   -0.460539
    14  O   -0.460778
    15  C   -0.299050
    16  C   -0.299249
    17  C   -0.483320
    18  H    0.148525
    19  H    0.146774
    20  H    0.155909
    21  H    0.155649
    22  H    0.149807
    23  H    0.155253
    24  H    0.166493
    25  C   -0.298737
    26  C   -0.300074
    27  C   -0.476076
    28  H    0.151461
    29  H    0.151649
    30  H    0.151544
    31  H    0.151268
    32  H    0.156383
    33  H    0.156302
    34  H    0.161336
 Sum of Mulliken charges =  -0.00000

 Dipole moment (field-independent basis, Debye):
    X=              4.7594    Y=             -2.2807    Z=             -1.1849  Tot=              5.4090
 Quadrupole moment (field-independent basis, Debye-Ang):
   XX=           -129.4523   YY=            -89.8619   ZZ=            -94.8877
   XY=             11.2729   XZ=              4.4039   YZ=              0.2325

 Normal termination of Gaussian 16 at Wed May  5 22:24:54 2021.
