 Gaussian 16, Revision A.03,
 Gaussian 16:  EM64L-G16RevA.03 25-Dec-2016

 -------------
 #p 6-31g* mp2
 -------------

 ------------------------------------------------------
 Input file generated by CHIRIPA (05-May-2021 14:57:27)
 ------------------------------------------------------
 Symbolic Z-matrix:
 Charge =  0 Multiplicity = 1

                         Standard orientation:
 ---------------------------------------------------------------------
 Center     Atomic      Atomic             Coordinates (Angstroms)
 Number     Number       Type             X           Y           Z
 ---------------------------------------------------------------------
      1          6           0        2.690286    2.509069    0.893673
      2          6           0        3.384387    1.427084    1.445085
      3          6           0        3.339363    0.169697    0.835577
      4          6           0        2.587048    0.029296   -0.329584
      5          6           0        1.884654    1.088004   -0.903231
      6          6           0        1.943951    2.336380   -0.276662
      7          1           0        2.730806    3.482337    1.373780
      8          1           0        3.964807    1.558269    2.353901
      9          1           0        3.867143   -0.684969    1.241054
     10          1           0        1.314563    0.926384   -1.810035
     11          1           0        1.403901    3.174878   -0.707139
     12          7           0        2.531828   -1.297074   -0.983873
     13          8           0        1.861860   -1.394724   -2.009663
     14          8           0        3.159560   -2.213916   -0.458527
     15          6           0       -4.306639    1.048185   -1.105020
     16          6           0       -4.573111    0.691119    0.220883
     17          6           0       -3.632697   -0.026996    0.965516
     18          6           0       -2.430784   -0.373198    0.350016
     19          6           0       -2.135954   -0.032081   -0.969076
     20          6           0       -3.091054    0.686084   -1.694727
     21          1           0       -5.042879    1.606054   -1.676096
     22          1           0       -5.516300    0.970984    0.681444
     23          1           0       -3.813104   -0.316341    1.993695
     24          1           0       -1.186765   -0.325263   -1.400938
     25          1           0       -2.881395    0.962032   -2.724262
     26          7           0       -1.427436   -1.133461    1.128278
     27          8           0       -0.376124   -1.426478    0.563016
     28          8           0       -1.711323   -1.421942    2.288806
 ---------------------------------------------------------------------

 SCF Done:  E(RHF) =  -868.338254445     A.U. after   16 cycles
 E2 =    -0.2602380663D+01 EUMP2 =    -0.87094063510820D+03

 The electronic state is 1-A.
 Alpha  occ. eigenvalues --  -20.60741 -20.60721 -20.60006 -20.59943 -15.85784
 Alpha  occ. eigenvalues --  -15.85016 -11.31163 -11.30502 -11.27760 -11.27685
 Alpha  occ. eigenvalues --  -11.27517 -11.27201 -11.27026 -11.26903 -11.26781
 Alpha  occ. eigenvalues --  -11.26762 -11.26266 -11.26147  -1.59797  -1.58985
 Alpha  occ. eigenvalues --   -1.39353  -1.38564  -1.19347  -1.18689  -1.08744
 Alpha  occ. eigenvalues --   -1.08061  -1.04755  -1.04160  -0.95575  -0.94893
 Alpha  occ. eigenvalues --   -0.86150  -0.85551  -0.82421  -0.81759  -0.77468
 Alpha  occ. eigenvalues --   -0.76770  -0.72136  -0.71284  -0.71119  -0.70472
 Alpha  occ. eigenvalues --   -0.70069  -0.69865  -0.64999  -0.64767  -0.64382
 Alpha  occ. eigenvalues --   -0.64204  -0.62107  -0.61518  -0.55265  -0.54680
 Alpha  occ. eigenvalues --   -0.53090  -0.52853  -0.52427  -0.52279  -0.48773
 Alpha  occ. eigenvalues --   -0.48757  -0.48027  -0.48003  -0.44755  -0.43940
 Alpha  occ. eigenvalues --   -0.37350  -0.36604  -0.36384  -0.35737
 Alpha virt. eigenvalues --    0.05065   0.05826   0.11218   0.11910   0.16532
 Alpha virt. eigenvalues --    0.17288   0.20876   0.22090   0.26101   0.27762
 Alpha virt. eigenvalues --    0.28163   0.29393   0.30583   0.31444   0.32283

 Mulliken charges:
               1
     1  C   -0.172061
     2  C   -0.217851
     3  C   -0.166949
     4  C    0.176357
     5  C   -0.172664
     6  C   -0.219206
     7  H    0.222332
     8  H    0.222181
     9  H    0.276808
    10  H    0.263489
    11  H    0.217591
    12  N    0.498210
    13  O   -0.470714
    14  O   -0.456100
    15  C   -0.170865
    16  C   -0.219136
    17  C   -0.170912
    18  C    0.157596
    19  C   -0.178088
    20  C   -0.221064
    21  H    0.225034
    22  H    0.222957
    23  H    0.275233
    24  H    0.286385
    25  H    0.223157
    26  N    0.492009
    27  O   -0.463051
    28  O   -0.460677
 Sum of Mulliken charges =  -0.00000

 Dipole moment (field-independent basis, Debye):
    X=             -3.2692    Y=              7.0412    Z=             -0.2753  Tot=              7.7680
 Quadrupole moment (field-independent basis, Debye-Ang):
   XX=            -83.7818   YY=           -107.5009   ZZ=           -103.5712
   XY=              5.0883   XZ=             11.4905   YZ=             -1.0276

 Normal termination of Gaussian 16 at Thu May  6 00:30:00 2021.
