 Gaussian 16, Revision A.03,
 Gaussian 16:  EM64L-G16RevA.03 25-Dec-2016

 -------------
 #p 6-31g* mp2
 -------------

 ------------------------------------------------------
 Input file generated by CHIRIPA (05-May-2021 14:51:08)
 ------------------------------------------------------
 Symbolic Z-matrix:
 Charge =  0 Multiplicity = 1

                         Standard orientation:
 ---------------------------------------------------------------------
 Center     Atomic      Atomic             Coordinates (Angstroms)
 Number     Number       Type             X           Y           Z
 ---------------------------------------------------------------------
      1          6           0        3.138876   -0.580159   -0.454959
      2          6           0        3.621503    0.867931   -0.544909
      3          6           0        4.632403    1.085250   -1.671251
      4          1           0        4.004502   -1.239818   -0.305002
      5          1           0        2.688024   -0.869326   -1.414391
      6          1           0        4.070065    1.154723    0.414861
      7          1           0        2.754607    1.524238   -0.694477
      8          1           0        4.192015    0.826004   -2.639471
      9          1           0        5.514947    0.454390   -1.523830
     10          1           0        4.964094    2.127221   -1.717496
     11          6           0        2.127841   -0.813230    0.666296
     12          6           0        1.645215   -2.261320    0.756246
     13          6           0        0.634314   -2.478639    1.882588
     14          1           0        2.578693   -0.524062    1.625728
     15          1           0        1.262215   -0.153571    0.516340
     16          1           0        2.512110   -2.917626    0.905814
     17          1           0        1.196652   -2.548112   -0.203524
     18          1           0       -0.248230   -1.847779    1.735168
     19          1           0        1.074702   -2.219393    2.850809
     20          1           0        0.302624   -3.520610    1.928834
     21          6           0       -2.650022    0.035652   -0.488000
     22          6           0       -4.066558   -0.467580   -0.767591
     23          6           0       -4.083408   -1.790992   -1.533156
     24          1           0       -2.115319    0.154476   -1.440323
     25          1           0       -2.103730   -0.726973    0.084155
     26          1           0       -4.610455    0.296349   -1.337856
     27          1           0       -4.598012   -0.585037    0.185497
     28          1           0       -3.564751   -2.570729   -0.966054
     29          1           0       -3.577265   -1.684336   -2.498063
     30          1           0       -5.105923   -2.132372   -1.722320
     31          6           0       -2.616695    1.357736    0.276663
     32          6           0       -1.200161    1.860969    0.556253
     33          6           0       -1.183309    3.184381    1.321818
     34          1           0       -3.162988    2.120363   -0.295492
     35          1           0       -3.151398    1.238914    1.228986
     36          1           0       -0.668706    1.978425   -0.396834
     37          1           0       -0.656262    1.097040    1.126519
     38          1           0       -1.689453    3.077725    2.286725
     39          1           0       -1.701967    3.964119    0.754717
     40          1           0       -0.160794    3.525760    1.510982
 ---------------------------------------------------------------------

 SCF Done:  E(RHF) =  -470.733101856     A.U. after   11 cycles
 E2 =    -0.1583946411D+01 EUMP2 =    -0.47231704826684D+03

 The electronic state is 1-A.
 Alpha  occ. eigenvalues --  -11.21657 -11.21649 -11.21578 -11.21575 -11.21473
 Alpha  occ. eigenvalues --  -11.21412 -11.21347 -11.21264 -11.21107 -11.21106
 Alpha  occ. eigenvalues --  -11.21103 -11.21054  -1.08503  -1.08386  -1.03582
 Alpha  occ. eigenvalues --   -1.03514  -0.96029  -0.95961  -0.87049  -0.86977
 Alpha  occ. eigenvalues --   -0.79682  -0.79563  -0.78414  -0.78104  -0.65203
 Alpha  occ. eigenvalues --   -0.64959  -0.61001  -0.60893  -0.59409  -0.59322
 Alpha  occ. eigenvalues --   -0.57675  -0.57544  -0.55374  -0.55198  -0.52721
 Alpha  occ. eigenvalues --   -0.52663  -0.52484  -0.52363  -0.50030  -0.49857
 Alpha  occ. eigenvalues --   -0.48071  -0.47880  -0.46819  -0.46591  -0.46175
 Alpha  occ. eigenvalues --   -0.45787  -0.45702  -0.45103  -0.43832  -0.43755
 Alpha virt. eigenvalues --    0.20048   0.22784   0.23699   0.23981   0.25714
 Alpha virt. eigenvalues --    0.26251   0.27161   0.27645   0.28378   0.29589
 Alpha virt. eigenvalues --    0.30482   0.31614   0.31719   0.31846   0.32282

 Mulliken charges:
               1
     1  C   -0.297546
     2  C   -0.300234
     3  C   -0.475660
     4  H    0.149335
     5  H    0.149306
     6  H    0.151741
     7  H    0.152390
     8  H    0.155036
     9  H    0.155188
    10  H    0.160084
    11  C   -0.307917
    12  C   -0.298863
    13  C   -0.480813
    14  H    0.148431
    15  H    0.160676
    16  H    0.151845
    17  H    0.152198
    18  H    0.157868
    19  H    0.155368
    20  H    0.160447
    21  C   -0.303743
    22  C   -0.299381
    23  C   -0.475905
    24  H    0.149417
    25  H    0.153529
    26  H    0.152216
    27  H    0.152258
    28  H    0.155560
    29  H    0.155055
    30  H    0.160490
    31  C   -0.297425
    32  C   -0.307495
    33  C   -0.475322
    34  H    0.149851
    35  H    0.149895
    36  H    0.151426
    37  H    0.159097
    38  H    0.155420
    39  H    0.155248
    40  H    0.160928
 Sum of Mulliken charges =  -0.00000

 Dipole moment (field-independent basis, Debye):
    X=             -0.0369    Y=              0.0211    Z=              0.0050  Tot=              0.0428
 Quadrupole moment (field-independent basis, Debye-Ang):
   XX=            -84.8026   YY=            -85.4970   ZZ=            -84.4771
   XY=             -0.5578   XZ=              0.9736   YZ=             -0.8304

 Normal termination of Gaussian 16 at Thu May  6 10:01:01 2021.
