 Gaussian 16, Revision A.03,
 Gaussian 16:  EM64L-G16RevA.03 25-Dec-2016

 -------------
 #p 6-31g* mp2
 -------------

 ------------------------------------------------------
 Input file generated by CHIRIPA (05-May-2021 14:53:12)
 ------------------------------------------------------
 Symbolic Z-matrix:
 Charge =  0 Multiplicity = 1

                         Standard orientation:
 ---------------------------------------------------------------------
 Center     Atomic      Atomic             Coordinates (Angstroms)
 Number     Number       Type             X           Y           Z
 ---------------------------------------------------------------------
      1          6           0        4.348689    0.078393   -0.257045
      2          6           0        5.609001   -0.778760   -0.135035
      3          6           0        6.641539   -0.469470   -1.219470
      4          1           0        3.900467   -0.078877   -1.247654
      5          1           0        4.629037    1.139603   -0.205726
      6          1           0        5.326205   -1.838065   -0.185179
      7          1           0        6.054170   -0.619576    0.855471
      8          1           0        6.952232    0.579051   -1.167756
      9          1           0        6.220132   -0.646361   -2.214319
     10          1           0        7.534390   -1.093504   -1.113367
     11          6           0        3.307039   -0.219186    0.820053
     12          6           0        2.046727    0.637967    0.698043
     13          6           0        1.014189    0.328677    1.782478
     14          1           0        3.026692   -1.280396    0.768735
     15          1           0        3.755262   -0.061916    1.810663
     16          1           0        1.601559    0.478784   -0.292463
     17          1           0        2.329523    1.697273    0.748187
     18          1           0        1.435597    0.505568    2.777328
     19          1           0        0.703496   -0.719844    1.730765
     20          1           0        0.121338    0.952712    1.676376
     21          6           0       -3.801024   -2.324509   -0.003238
     22          6           0       -3.510560   -1.576858    1.142698
     23          6           0       -3.060821   -0.257542    1.034586
     24          6           0       -2.912163    0.285039   -0.240874
     25          6           0       -3.193318   -0.434243   -1.401423
     26          6           0       -3.641757   -1.751826   -1.269409
     27          1           0       -4.149887   -3.348713    0.090029
     28          1           0       -3.633323   -2.019022    2.127311
     29          1           0       -2.828682    0.343872    1.905120
     30          1           0       -3.061174    0.033814   -2.369348
     31          1           0       -3.866573   -2.330091   -2.161098
     32          7           0       -2.436732    1.680822   -0.367979
     33          8           0       -2.314010    2.135800   -1.503132
     34          8           0       -2.195814    2.293430    0.669955
 ---------------------------------------------------------------------

 SCF Done:  E(RHF) =  -669.536410469     A.U. after   15 cycles
 E2 =    -0.2091610748D+01 EUMP2 =    -0.67162802121644D+03

 The electronic state is 1-A.
 Alpha  occ. eigenvalues --  -20.60946 -20.60938 -15.85955 -11.31246 -11.27816
 Alpha  occ. eigenvalues --  -11.27805 -11.27551 -11.26817 -11.26803 -11.21386
 Alpha  occ. eigenvalues --  -11.21128 -11.21088 -11.21021 -11.20879 -11.20547
 Alpha  occ. eigenvalues --   -1.59992  -1.39552  -1.19417  -1.08828  -1.08102
 Alpha  occ. eigenvalues --   -1.04810  -1.03186  -0.95690  -0.95630  -0.86671
 Alpha  occ. eigenvalues --   -0.86211  -0.82510  -0.79256  -0.77909  -0.77565
 Alpha  occ. eigenvalues --   -0.72184  -0.71303  -0.70530  -0.65076  -0.64816
 Alpha  occ. eigenvalues --   -0.64739  -0.62162  -0.60592  -0.58998  -0.57235
 Alpha  occ. eigenvalues --   -0.55322  -0.54953  -0.53141  -0.52909  -0.52318
 Alpha  occ. eigenvalues --   -0.52072  -0.49606  -0.48948  -0.48936  -0.47572
 Alpha  occ. eigenvalues --   -0.46297  -0.45457  -0.45381  -0.44951  -0.43389
 Alpha  occ. eigenvalues --   -0.37393  -0.36400
 Alpha virt. eigenvalues --    0.04932   0.11211   0.16406   0.21310   0.23158
 Alpha virt. eigenvalues --    0.24576   0.26946   0.27066   0.27746   0.27882
 Alpha virt. eigenvalues --    0.28641   0.30449   0.31679   0.31736   0.32166

 Mulliken charges:
               1
     1  C   -0.298089
     2  C   -0.299262
     3  C   -0.475505
     4  H    0.149503
     5  H    0.150972
     6  H    0.150231
     7  H    0.151504
     8  H    0.155824
     9  H    0.154854
    10  H    0.159118
    11  C   -0.297808
    12  C   -0.297707
    13  C   -0.488987
    14  H    0.146250
    15  H    0.148685
    16  H    0.151205
    17  H    0.156856
    18  H    0.152960
    19  H    0.147462
    20  H    0.175912
    21  C   -0.170538
    22  C   -0.219193
    23  C   -0.169284
    24  C    0.158823
    25  C   -0.170957
    26  C   -0.218742
    27  H    0.225821
    28  H    0.223975
    29  H    0.276367
    30  H    0.275550
    31  H    0.223556
    32  N    0.488385
    33  O   -0.458218
    34  O   -0.459522
 Sum of Mulliken charges =  -0.00000

 Dipole moment (field-independent basis, Debye):
    X=             -1.8190    Y=             -4.8149    Z=              0.4009  Tot=              5.1626
 Quadrupole moment (field-independent basis, Debye-Ang):
   XX=            -86.5354   YY=            -97.5996   ZZ=            -90.2412
   XY=             14.5625   XZ=              0.2035   YZ=              2.3087

 Normal termination of Gaussian 16 at Thu May  6 15:18:34 2021.
