 Gaussian 16, Revision A.03,
 Gaussian 16:  EM64L-G16RevA.03 25-Dec-2016

 -------------
 #p 6-31g* mp2
 -------------

 ------------------------------------------------------
 Input file generated by CHIRIPA (05-May-2021 14:51:14)
 ------------------------------------------------------
 Symbolic Z-matrix:
 Charge =  0 Multiplicity = 1

                         Standard orientation:
 ---------------------------------------------------------------------
 Center     Atomic      Atomic             Coordinates (Angstroms)
 Number     Number       Type             X           Y           Z
 ---------------------------------------------------------------------
      1          6           0       -4.452197   -0.474616    0.052080
      2          6           0       -5.926325   -0.669117   -0.304430
      3          6           0       -6.405046   -2.103441   -0.077859
      4          1           0       -3.842532   -1.165065   -0.546697
      5          1           0       -4.296812   -0.752186    1.103843
      6          1           0       -6.079149   -0.389945   -1.354823
      7          1           0       -6.532535    0.022010    0.295127
      8          1           0       -6.281328   -2.389614    0.971617
      9          1           0       -5.825366   -2.803910   -0.687707
     10          1           0       -7.461477   -2.220063   -0.339035
     11          6           0       -3.958844    0.954166   -0.169087
     12          6           0       -2.484716    1.148667    0.187423
     13          6           0       -2.005995    2.582991   -0.039149
     14          1           0       -4.114229    1.231736   -1.220850
     15          1           0       -4.568509    1.644615    0.429690
     16          1           0       -1.878506    0.457540   -0.412134
     17          1           0       -2.331893    0.869495    1.237815
     18          1           0       -2.585675    3.283460    0.570699
     19          1           0       -2.129713    2.869164   -1.088625
     20          1           0       -0.949564    2.699613    0.222028
     21          6           0        3.554695    0.151499   -0.023736
     22          6           0        2.335158   -0.573447    0.546498
     23          6           0        1.040715    0.221913    0.374412
     24          1           0        3.655179    1.128954    0.467618
     25          1           0        3.386620    0.353772   -1.090615
     26          1           0        2.506064   -0.775523    1.611661
     27          1           0        2.237677   -1.549371    0.053865
     28          1           0        0.843083    0.411494   -0.685589
     29          1           0        1.112996    1.189739    0.881057
     30          1           0        0.181653   -0.314733    0.789000
     31          6           0        4.856346   -0.631048    0.140743
     32          6           0        6.075884    0.093897   -0.429490
     33          6           0        7.370326   -0.701463   -0.257404
     34          1           0        5.024421   -0.833322    1.207622
     35          1           0        4.755862   -1.608504   -0.350611
     36          1           0        6.173364    1.069821    0.063142
     37          1           0        5.904976    0.295973   -1.494653
     38          1           0        7.298045   -1.669289   -0.764051
     39          1           0        7.567959   -0.891044    0.802596
     40          1           0        8.229388   -0.164818   -0.671994
 ---------------------------------------------------------------------

 SCF Done:  E(RHF) =  -470.732360604     A.U. after   11 cycles
 E2 =    -0.1583258674D+01 EUMP2 =    -0.47231561927748D+03

 The electronic state is 1-A.
 Alpha  occ. eigenvalues --  -11.21599 -11.21576 -11.21568 -11.21443 -11.21399
 Alpha  occ. eigenvalues --  -11.21345 -11.21340 -11.21268 -11.21070 -11.21049
 Alpha  occ. eigenvalues --  -11.21022 -11.20932  -1.08430  -1.08356  -1.03562
 Alpha  occ. eigenvalues --   -1.03418  -0.96037  -0.95849  -0.87006  -0.86921
 Alpha  occ. eigenvalues --   -0.79689  -0.79444  -0.78262  -0.78143  -0.65068
 Alpha  occ. eigenvalues --   -0.64984  -0.60979  -0.60807  -0.59500  -0.59154
 Alpha  occ. eigenvalues --   -0.57619  -0.57499  -0.55310  -0.55162  -0.52759
 Alpha  occ. eigenvalues --   -0.52613  -0.52448  -0.52161  -0.49953  -0.49829
 Alpha  occ. eigenvalues --   -0.48012  -0.47706  -0.46696  -0.46481  -0.45787
 Alpha  occ. eigenvalues --   -0.45740  -0.45697  -0.45601  -0.43784  -0.43618
 Alpha virt. eigenvalues --    0.22076   0.23024   0.23489   0.24821   0.26400
 Alpha virt. eigenvalues --    0.26579   0.26774   0.27257   0.27851   0.29169
 Alpha virt. eigenvalues --    0.30121   0.30900   0.31302   0.31754   0.32575

 Mulliken charges:
               1
     1  C   -0.298229
     2  C   -0.299500
     3  C   -0.475659
     4  H    0.149207
     5  H    0.149087
     6  H    0.151849
     7  H    0.151924
     8  H    0.155071
     9  H    0.155036
    10  H    0.160143
    11  C   -0.297942
    12  C   -0.300702
    13  C   -0.479403
    14  H    0.148984
    15  H    0.149035
    16  H    0.156328
    17  H    0.150834
    18  H    0.154099
    19  H    0.154109
    20  H    0.164968
    21  C   -0.298497
    22  C   -0.300980
    23  C   -0.477124
    24  H    0.149461
    25  H    0.149399
    26  H    0.151694
    27  H    0.151634
    28  H    0.155089
    29  H    0.154928
    30  H    0.165178
    31  C   -0.298211
    32  C   -0.299597
    33  C   -0.475692
    34  H    0.149504
    35  H    0.149588
    36  H    0.151928
    37  H    0.151887
    38  H    0.155154
    39  H    0.155176
    40  H    0.160244
 Sum of Mulliken charges =  -0.00000

 Dipole moment (field-independent basis, Debye):
    X=              0.0291    Y=             -0.0084    Z=              0.0041  Tot=              0.0306
 Quadrupole moment (field-independent basis, Debye-Ang):
   XX=            -86.3246   YY=            -85.8018   ZZ=            -83.0406
   XY=              0.0377   XZ=             -0.1108   YZ=              0.7996

 Normal termination of Gaussian 16 at Wed May  5 21:39:37 2021.
