 Gaussian 16, Revision A.03,
 Gaussian 16:  EM64L-G16RevA.03 25-Dec-2016

 -------------
 #p 6-31g* mp2
 -------------

 ------------------------------------------------------
 Input file generated by CHIRIPA (05-May-2021 14:55:23)
 ------------------------------------------------------
 Symbolic Z-matrix:
 Charge =  0 Multiplicity = 1

                         Standard orientation:
 ---------------------------------------------------------------------
 Center     Atomic      Atomic             Coordinates (Angstroms)
 Number     Number       Type             X           Y           Z
 ---------------------------------------------------------------------
      1          6           0        2.105611    2.322161    0.475675
      2          6           0        2.193095    1.443281    1.560312
      3          6           0        2.736636    0.165633    1.396830
      4          6           0        3.185058   -0.201919    0.129110
      5          6           0        3.111506    0.651064   -0.971026
      6          6           0        2.564288    1.923949   -0.784311
      7          1           0        1.681947    3.312819    0.611696
      8          1           0        1.837674    1.749837    2.539977
      9          1           0        2.816373   -0.534767    2.219327
     10          1           0        3.474159    0.317020   -1.935555
     11          1           0        2.497605    2.604403   -1.628457
     12          7           0        3.762427   -1.551987   -0.056258
     13          8           0        4.150436   -1.851777   -1.183295
     14          8           0        3.816026   -2.284816    0.928996
     15          6           0       -4.635140    0.119703    0.111239
     16          6           0       -5.642659   -1.016675   -0.066353
     17          6           0       -6.998401   -0.709599    0.570406
     18          1           0       -4.501638    0.318621    1.183411
     19          1           0       -5.047957    1.038386   -0.328076
     20          1           0       -5.227480   -1.933267    0.371940
     21          1           0       -5.773634   -1.213039   -1.138222
     22          1           0       -7.437520    0.189815    0.126751
     23          1           0       -6.888263   -0.534506    1.645493
     24          1           0       -7.703359   -1.535208    0.431605
     25          6           0       -3.275004   -0.172409   -0.519972
     26          6           0       -2.267485    0.963968   -0.342381
     27          6           0       -0.911744    0.656893   -0.979139
     28          1           0       -2.862187   -1.091093   -0.080657
     29          1           0       -3.408507   -0.371327   -1.592145
     30          1           0       -2.136511    1.160332    0.729488
     31          1           0       -2.682665    1.880561   -0.780674
     32          1           0       -1.021881    0.481798   -2.054226
     33          1           0       -0.472624   -0.242522   -0.535485
     34          1           0       -0.206786    1.482501   -0.840339
 ---------------------------------------------------------------------

 SCF Done:  E(RHF) =  -669.533910077     A.U. after   15 cycles
 E2 =    -0.2093205749D+01 EUMP2 =    -0.67162711582570D+03

 The electronic state is 1-A.
 Alpha  occ. eigenvalues --  -20.60798 -20.60792 -15.85851 -11.31241 -11.27812
 Alpha  occ. eigenvalues --  -11.27783 -11.27517 -11.26818 -11.26781 -11.21837
 Alpha  occ. eigenvalues --  -11.21716 -11.21563 -11.21503 -11.21186 -11.21092
 Alpha  occ. eigenvalues --   -1.59873  -1.39425  -1.19410  -1.08816  -1.08587
 Alpha  occ. eigenvalues --   -1.04811  -1.03680  -0.96122  -0.95635  -0.87142
 Alpha  occ. eigenvalues --   -0.86212  -0.82464  -0.79755  -0.78408  -0.77506
 Alpha  occ. eigenvalues --   -0.72069  -0.71196  -0.70521  -0.65224  -0.65063
 Alpha  occ. eigenvalues --   -0.64815  -0.62154  -0.61084  -0.59575  -0.57775
 Alpha  occ. eigenvalues --   -0.55427  -0.55318  -0.53685  -0.52903  -0.52567
 Alpha  occ. eigenvalues --   -0.52208  -0.50032  -0.48830  -0.48823  -0.48074
 Alpha  occ. eigenvalues --   -0.46787  -0.45947  -0.45875  -0.44827  -0.43953
 Alpha  occ. eigenvalues --   -0.37278  -0.36367
 Alpha virt. eigenvalues --    0.04998   0.11179   0.16458   0.21252   0.22730
 Alpha virt. eigenvalues --    0.24247   0.26462   0.27129   0.27316   0.27839
 Alpha virt. eigenvalues --    0.28393   0.30914   0.31219   0.31751   0.32216

 Mulliken charges:
               1
     1  C   -0.173185
     2  C   -0.215329
     3  C   -0.171654
     4  C    0.159072
     5  C   -0.168122
     6  C   -0.217502
     7  H    0.226245
     8  H    0.223631
     9  H    0.275724
    10  H    0.275959
    11  H    0.224171
    12  N    0.487897
    13  O   -0.460000
    14  O   -0.460503
    15  C   -0.298069
    16  C   -0.299859
    17  C   -0.475730
    18  H    0.148448
    19  H    0.148631
    20  H    0.153021
    21  H    0.152498
    22  H    0.154767
    23  H    0.154810
    24  H    0.161036
    25  C   -0.298498
    26  C   -0.299227
    27  C   -0.478422
    28  H    0.151358
    29  H    0.150501
    30  H    0.147802
    31  H    0.148940
    32  H    0.152784
    33  H    0.157388
    34  H    0.161415
 Sum of Mulliken charges =  -0.00000

 Dipole moment (field-independent basis, Debye):
    X=             -1.9372    Y=              4.7369    Z=              0.6570  Tot=              5.1597
 Quadrupole moment (field-independent basis, Debye-Ang):
   XX=           -109.4372   YY=            -96.9879   ZZ=            -89.3492
   XY=             16.0085   XZ=              1.6286   YZ=             -1.0051

 Normal termination of Gaussian 16 at Thu May  6 15:56:14 2021.
