 Gaussian 16, Revision A.03,
 Gaussian 16:  EM64L-G16RevA.03 25-Dec-2016

 -------------
 #p 6-31g* mp2
 -------------

 ------------------------------------------------------
 Input file generated by CHIRIPA (05-May-2021 14:51:14)
 ------------------------------------------------------
 Symbolic Z-matrix:
 Charge =  0 Multiplicity = 1

                         Standard orientation:
 ---------------------------------------------------------------------
 Center     Atomic      Atomic             Coordinates (Angstroms)
 Number     Number       Type             X           Y           Z
 ---------------------------------------------------------------------
      1          6           0        2.683127    1.404783   -0.257093
      2          6           0        1.710024    2.032999    0.741106
      3          6           0        1.505232    3.529705    0.505041
      4          1           0        3.649635    1.923154   -0.193074
      5          1           0        2.307783    1.568110   -1.276816
      6          1           0        2.086386    1.867332    1.758711
      7          1           0        0.745778    1.512947    0.674839
      8          1           0        1.107063    3.710464   -0.498647
      9          1           0        2.455289    4.066862    0.591385
     10          1           0        0.806014    3.958451    1.229700
     11          6           0        2.898183   -0.091113   -0.033989
     12          6           0        3.871286   -0.719329   -1.032187
     13          6           0        4.076078   -2.216035   -0.796123
     14          1           0        3.273528   -0.254439    0.985735
     15          1           0        1.931675   -0.609483   -0.098007
     16          1           0        4.835532   -0.199277   -0.965920
     17          1           0        3.494924   -0.553662   -2.049793
     18          1           0        3.126021   -2.753192   -0.882466
     19          1           0        4.474247   -2.396794    0.207565
     20          1           0        4.775297   -2.644780   -1.520781
     21          6           0       -3.156936   -0.292948   -0.417359
     22          6           0       -4.601613    0.066040   -0.068039
     23          6           0       -5.321202    0.793582   -1.204114
     24          1           0       -2.609145    0.624646   -0.672096
     25          1           0       -3.150308   -0.921364   -1.318715
     26          1           0       -4.605605    0.692449    0.833189
     27          1           0       -5.145978   -0.852494    0.186081
     28          1           0       -5.346829    0.171564   -2.104692
     29          1           0       -4.803385    1.725285   -1.453907
     30          1           0       -6.352368    1.040706   -0.933029
     31          6           0       -2.424374   -1.020723    0.708440
     32          6           0       -0.979697   -1.379711    0.359121
     33          6           0       -0.260108   -2.107252    1.495196
     34          1           0       -2.431003   -0.392306    1.609797
     35          1           0       -2.972165   -1.938316    0.963177
     36          1           0       -0.435331   -0.461177    0.105000
     37          1           0       -0.975705   -2.006119   -0.542108
     38          1           0       -0.777924   -3.038955    1.744989
     39          1           0       -0.234481   -1.485234    2.395773
     40          1           0        0.771057   -2.354376    1.224110
 ---------------------------------------------------------------------

 SCF Done:  E(RHF) =  -470.732130272     A.U. after   11 cycles
 E2 =    -0.1584721949D+01 EUMP2 =    -0.47231685222037D+03

 The electronic state is 1-A.
 Alpha  occ. eigenvalues --  -11.21631 -11.21625 -11.21622 -11.21585 -11.21438
 Alpha  occ. eigenvalues --  -11.21390 -11.21379 -11.21286 -11.21107 -11.21089
 Alpha  occ. eigenvalues --  -11.21086 -11.21040  -1.08501  -1.08400  -1.03561
 Alpha  occ. eigenvalues --   -1.03545  -0.96035  -0.95957  -0.87039  -0.86982
 Alpha  occ. eigenvalues --   -0.79665  -0.79584  -0.78407  -0.78139  -0.65315
 Alpha  occ. eigenvalues --   -0.64902  -0.61052  -0.60861  -0.59452  -0.59298
 Alpha  occ. eigenvalues --   -0.57738  -0.57498  -0.55342  -0.55210  -0.52736
 Alpha  occ. eigenvalues --   -0.52664  -0.52503  -0.52328  -0.49972  -0.49906
 Alpha  occ. eigenvalues --   -0.48080  -0.47820  -0.46911  -0.46572  -0.46071
 Alpha  occ. eigenvalues --   -0.45777  -0.45744  -0.45126  -0.43802  -0.43784
 Alpha virt. eigenvalues --    0.20708   0.22608   0.23576   0.24289   0.26124
 Alpha virt. eigenvalues --    0.26752   0.27039   0.27346   0.27738   0.29939
 Alpha virt. eigenvalues --    0.30368   0.31405   0.31693   0.31914   0.32393

 Mulliken charges:
               1
     1  C   -0.297552
     2  C   -0.306205
     3  C   -0.475286
     4  H    0.149728
     5  H    0.149034
     6  H    0.152284
     7  H    0.156849
     8  H    0.155052
     9  H    0.155557
    10  H    0.159975
    11  C   -0.309308
    12  C   -0.298880
    13  C   -0.476996
    14  H    0.149083
    15  H    0.163173
    16  H    0.151741
    17  H    0.151732
    18  H    0.155416
    19  H    0.155295
    20  H    0.160550
    21  C   -0.298437
    22  C   -0.299669
    23  C   -0.475756
    24  H    0.149067
    25  H    0.149545
    26  H    0.152081
    27  H    0.152086
    28  H    0.155162
    29  H    0.155234
    30  H    0.160382
    31  C   -0.297511
    32  C   -0.309363
    33  C   -0.479044
    34  H    0.149763
    35  H    0.149985
    36  H    0.158695
    37  H    0.151542
    38  H    0.155408
    39  H    0.155797
    40  H    0.163790
 Sum of Mulliken charges =  -0.00000

 Dipole moment (field-independent basis, Debye):
    X=             -0.0043    Y=             -0.0078    Z=              0.0088  Tot=              0.0125
 Quadrupole moment (field-independent basis, Debye-Ang):
   XX=            -84.6118   YY=            -85.4343   ZZ=            -84.7757
   XY=              1.0490   XZ=              0.1396   YZ=              0.9087

 Normal termination of Gaussian 16 at Wed May  5 20:00:51 2021.
