 Gaussian 16, Revision A.03,
 Gaussian 16:  EM64L-G16RevA.03 25-Dec-2016

 -------------
 #p 6-31g* mp2
 -------------

 ------------------------------------------------------
 Input file generated by CHIRIPA (05-May-2021 14:57:21)
 ------------------------------------------------------
 Symbolic Z-matrix:
 Charge =  0 Multiplicity = 1

                         Standard orientation:
 ---------------------------------------------------------------------
 Center     Atomic      Atomic             Coordinates (Angstroms)
 Number     Number       Type             X           Y           Z
 ---------------------------------------------------------------------
      1          6           0       -2.439802   -2.251918   -0.489070
      2          6           0       -3.115078   -1.798710    0.648966
      3          6           0       -3.281762   -0.429571    0.877491
      4          6           0       -2.758047    0.462538   -0.056936
      5          6           0       -2.080442    0.042055   -1.200324
      6          6           0       -1.925545   -1.331711   -1.408462
      7          1           0       -2.314896   -3.317295   -0.658675
      8          1           0       -3.515506   -2.511069    1.364680
      9          1           0       -3.800294   -0.051307    1.750107
     10          1           0       -1.692336    0.776257   -1.895838
     11          1           0       -1.400672   -1.680805   -2.293157
     12          7           0       -2.928268    1.914433    0.174202
     13          8           0       -2.457536    2.680047   -0.664180
     14          8           0       -3.529196    2.259324    1.189374
     15          6           0        1.364663   -2.329217    0.353279
     16          6           0        1.956425   -1.736825    1.473730
     17          6           0        2.715043   -0.569859    1.342451
     18          6           0        2.861987   -0.019650    0.070063
     19          6           0        2.284890   -0.586248   -1.065373
     20          6           0        1.530492   -1.753054   -0.910469
     21          1           0        0.776989   -3.235683    0.464436
     22          1           0        1.829330   -2.182076    2.456401
     23          1           0        3.184187   -0.090409    2.193009
     24          1           0        2.429395   -0.119168   -2.032002
     25          1           0        1.072077   -2.210930   -1.782392
     26          7           0        3.662869    1.215679   -0.081421
     27          8           0        3.777289    1.680799   -1.213327
     28          8           0        4.161015    1.695420    0.934618
 ---------------------------------------------------------------------

 SCF Done:  E(RHF) =  -868.334873806     A.U. after   16 cycles
 E2 =    -0.2602863031D+01 EUMP2 =    -0.87093773683655D+03

 The electronic state is 1-A.
 Alpha  occ. eigenvalues --  -20.61080 -20.61066 -20.60879 -20.60874 -15.86136
 Alpha  occ. eigenvalues --  -15.85942 -11.31712 -11.31464 -11.28289 -11.28284
 Alpha  occ. eigenvalues --  -11.28167 -11.28087 -11.28026 -11.27890 -11.27459
 Alpha  occ. eigenvalues --  -11.27400 -11.27217 -11.27096  -1.60146  -1.59950
 Alpha  occ. eigenvalues --   -1.39693  -1.39500  -1.19919  -1.19662  -1.09312
 Alpha  occ. eigenvalues --   -1.09032  -1.05373  -1.05095  -0.96094  -0.95841
 Alpha  occ. eigenvalues --   -0.86812  -0.86473  -0.82939  -0.82673  -0.77936
 Alpha  occ. eigenvalues --   -0.77679  -0.72353  -0.72160  -0.71470  -0.71272
 Alpha  occ. eigenvalues --   -0.71099  -0.70781  -0.65614  -0.65573  -0.65329
 Alpha  occ. eigenvalues --   -0.65010  -0.62776  -0.62381  -0.55963  -0.55608
 Alpha  occ. eigenvalues --   -0.53983  -0.53560  -0.53183  -0.53053  -0.49130
 Alpha  occ. eigenvalues --   -0.49092  -0.48929  -0.48902  -0.45052  -0.44872
 Alpha  occ. eigenvalues --   -0.38325  -0.37463  -0.37189  -0.36195
 Alpha virt. eigenvalues --    0.04433   0.05025   0.10120   0.11495   0.15687
 Alpha virt. eigenvalues --    0.16627   0.18848   0.22144   0.24809   0.26393
 Alpha virt. eigenvalues --    0.28256   0.29039   0.29362   0.31525   0.32011

 Mulliken charges:
               1
     1  C   -0.175886
     2  C   -0.218711
     3  C   -0.170272
     4  C    0.160112
     5  C   -0.168010
     6  C   -0.213893
     7  H    0.220562
     8  H    0.223360
     9  H    0.277354
    10  H    0.278026
    11  H    0.216750
    12  N    0.487812
    13  O   -0.456661
    14  O   -0.459122
    15  C   -0.165075
    16  C   -0.218523
    17  C   -0.169555
    18  C    0.160220
    19  C   -0.173042
    20  C   -0.213582
    21  H    0.218644
    22  H    0.223507
    23  H    0.277681
    24  H    0.274965
    25  H    0.212583
    26  N    0.488423
    27  O   -0.459379
    28  O   -0.458288
 Sum of Mulliken charges =  -0.00000

 Dipole moment (field-independent basis, Debye):
    X=             -2.2257    Y=             -9.1768    Z=             -0.1409  Tot=              9.4439
 Quadrupole moment (field-independent basis, Debye-Ang):
   XX=           -123.9441   YY=           -110.9503   ZZ=            -96.4636
   XY=              2.4538   XZ=              2.2144   YZ=             -1.5956

 Normal termination of Gaussian 16 at Wed May  5 20:54:14 2021.
