 Gaussian 16, Revision A.03,
 Gaussian 16:  EM64L-G16RevA.03 25-Dec-2016

 -------------
 #p 6-31g* mp2
 -------------

 ------------------------------------------------------
 Input file generated by CHIRIPA (05-May-2021 14:51:07)
 ------------------------------------------------------
 Symbolic Z-matrix:
 Charge =  0 Multiplicity = 1

                         Standard orientation:
 ---------------------------------------------------------------------
 Center     Atomic      Atomic             Coordinates (Angstroms)
 Number     Number       Type             X           Y           Z
 ---------------------------------------------------------------------
      1          6           0       -2.174267   -0.821675    0.583271
      2          6           0       -1.698563   -2.228646    0.219784
      3          6           0       -0.580182   -2.729235    1.134350
      4          1           0       -1.322302   -0.129704    0.535570
      5          1           0       -2.522234   -0.817655    1.625528
      6          1           0       -1.352886   -2.230335   -0.821908
      7          1           0       -2.551799   -2.917313    0.268169
      8          1           0       -0.917124   -2.756191    2.175668
      9          1           0        0.288601   -2.065310    1.079398
     10          1           0       -0.255274   -3.736812    0.856711
     11          6           0       -3.292116   -0.307360   -0.322059
     12          6           0       -3.767821    1.099611    0.041429
     13          6           0       -4.886201    1.600199   -0.873137
     14          1           0       -2.944149   -0.311380   -1.364315
     15          1           0       -4.144081   -0.999331   -0.274358
     16          1           0       -2.914584    1.788278   -0.006957
     17          1           0       -4.113497    1.101299    1.083120
     18          1           0       -5.754984    0.936275   -0.818185
     19          1           0       -4.549259    1.627156   -1.914456
     20          1           0       -5.211109    2.607777   -0.595499
     21          6           0        2.482462   -0.152126   -0.214203
     22          6           0        3.583200   -1.137558   -0.608263
     23          6           0        3.066048   -2.567112   -0.771740
     24          1           0        2.019407   -0.485656    0.724563
     25          1           0        1.691846   -0.172038   -0.977045
     26          1           0        4.372158   -1.114778    0.154390
     27          1           0        4.043816   -0.801538   -1.546101
     28          1           0        2.294056   -2.611240   -1.546778
     29          1           0        2.624265   -2.926259    0.163376
     30          1           0        3.869411   -3.254897   -1.053553
     31          6           0        2.983922    1.281161   -0.047009
     32          6           0        1.883183    2.266593    0.347050
     33          6           0        2.400335    3.696147    0.510528
     34          1           0        3.774536    1.301073    0.715831
     35          1           0        3.446976    1.614692   -0.985776
     36          1           0        1.422567    1.930574    1.284888
     37          1           0        1.094224    2.243814   -0.415603
     38          1           0        2.842118    4.055294   -0.424588
     39          1           0        3.172326    3.740275    1.285565
     40          1           0        1.596971    4.383932    0.792341
 ---------------------------------------------------------------------

 SCF Done:  E(RHF) =  -470.732931460     A.U. after   11 cycles
 E2 =    -0.1583918192D+01 EUMP2 =    -0.47231684965194D+03

 The electronic state is 1-A.
 Alpha  occ. eigenvalues --  -11.21675 -11.21641 -11.21573 -11.21536 -11.21480
 Alpha  occ. eigenvalues --  -11.21419 -11.21357 -11.21290 -11.21121 -11.21054
 Alpha  occ. eigenvalues --  -11.21045 -11.20941  -1.08504  -1.08374  -1.03586
 Alpha  occ. eigenvalues --   -1.03468  -0.96025  -0.95926  -0.87042  -0.86946
 Alpha  occ. eigenvalues --   -0.79677  -0.79519  -0.78371  -0.78145  -0.65145
 Alpha  occ. eigenvalues --   -0.65001  -0.61020  -0.60849  -0.59394  -0.59302
 Alpha  occ. eigenvalues --   -0.57658  -0.57516  -0.55310  -0.55223  -0.52713
 Alpha  occ. eigenvalues --   -0.52671  -0.52444  -0.52314  -0.49962  -0.49929
 Alpha  occ. eigenvalues --   -0.47998  -0.47824  -0.46805  -0.46557  -0.46025
 Alpha  occ. eigenvalues --   -0.45762  -0.45697  -0.45284  -0.43836  -0.43730
 Alpha virt. eigenvalues --    0.20784   0.22945   0.23435   0.24631   0.25443
 Alpha virt. eigenvalues --    0.25894   0.26973   0.27583   0.28907   0.29723
 Alpha virt. eigenvalues --    0.30656   0.30795   0.31410   0.31939   0.32205

 Mulliken charges:
               1
     1  C   -0.300865
     2  C   -0.298594
     3  C   -0.484133
     4  H    0.152317
     5  H    0.149054
     6  H    0.151393
     7  H    0.151512
     8  H    0.153743
     9  H    0.164465
    10  H    0.160335
    11  C   -0.298104
    12  C   -0.299718
    13  C   -0.475649
    14  H    0.149028
    15  H    0.149545
    16  H    0.152100
    17  H    0.151850
    18  H    0.155151
    19  H    0.154979
    20  H    0.160139
    21  C   -0.304085
    22  C   -0.299768
    23  C   -0.478486
    24  H    0.154094
    25  H    0.149559
    26  H    0.152023
    27  H    0.151987
    28  H    0.154927
    29  H    0.159678
    30  H    0.159992
    31  C   -0.297523
    32  C   -0.300709
    33  C   -0.475766
    34  H    0.149925
    35  H    0.149970
    36  H    0.152715
    37  H    0.151514
    38  H    0.155347
    39  H    0.155502
    40  H    0.160556
 Sum of Mulliken charges =  -0.00000

 Dipole moment (field-independent basis, Debye):
    X=              0.0569    Y=              0.0166    Z=              0.0085  Tot=              0.0599
 Quadrupole moment (field-independent basis, Debye-Ang):
   XX=            -84.9721   YY=            -86.0375   ZZ=            -83.7797
   XY=              0.3868   XZ=             -0.7086   YZ=             -0.2912

 Normal termination of Gaussian 16 at Thu May  6 06:51:24 2021.
