 Gaussian 16, Revision A.03,
 Gaussian 16:  EM64L-G16RevA.03 25-Dec-2016

 -------------
 #p 6-31g* mp2
 -------------

 ------------------------------------------------------
 Input file generated by CHIRIPA (05-May-2021 14:55:25)
 ------------------------------------------------------
 Symbolic Z-matrix:
 Charge =  0 Multiplicity = 1

                         Standard orientation:
 ---------------------------------------------------------------------
 Center     Atomic      Atomic             Coordinates (Angstroms)
 Number     Number       Type             X           Y           Z
 ---------------------------------------------------------------------
      1          6           0        0.379045   -0.776132    0.801703
      2          6           0        1.379885   -0.604082    1.763597
      3          6           0        2.684632   -0.279472    1.380438
      4          6           0        2.954624   -0.133833    0.020591
      5          6           0        1.979179   -0.298782   -0.961544
      6          6           0        0.681354   -0.623202   -0.555405
      7          1           0       -0.631825   -1.028223    1.108276
      8          1           0        1.147994   -0.722227    2.818260
      9          1           0        3.478610   -0.140569    2.104125
     10          1           0        2.240751   -0.174452   -2.005355
     11          1           0       -0.093902   -0.756220   -1.304624
     12          7           0        4.332238    0.209716   -0.397207
     13          8           0        4.544426    0.332488   -1.601590
     14          8           0        5.173738    0.349714    0.487618
     15          6           0       -3.515002    0.893239    0.286847
     16          6           0       -3.110591    2.123511   -0.526089
     17          6           0       -3.163014    3.415077    0.290552
     18          1           0       -4.530366    1.039078    0.680182
     19          1           0       -2.851932    0.804171    1.158512
     20          1           0       -3.773348    2.209447   -1.396712
     21          1           0       -2.096145    1.974645   -0.917694
     22          1           0       -2.488464    3.354619    1.150742
     23          1           0       -4.175197    3.590755    0.669004
     24          1           0       -2.870143    4.281937   -0.309980
     25          6           0       -3.467594   -0.405676   -0.515836
     26          6           0       -3.872006   -1.635948    0.297100
     27          6           0       -3.819582   -2.927514   -0.519542
     28          1           0       -4.130664   -0.316608   -1.387501
     29          1           0       -2.452230   -0.551514   -0.909172
     30          1           0       -4.886452   -1.487081    0.688705
     31          1           0       -3.209249   -1.721884    1.167723
     32          1           0       -2.807400   -3.103191   -0.897993
     33          1           0       -4.494133   -2.867056   -1.379732
     34          1           0       -4.112455   -3.794374    0.080991
 ---------------------------------------------------------------------

 SCF Done:  E(RHF) =  -669.535135264     A.U. after   15 cycles
 E2 =    -0.2092906297D+01 EUMP2 =    -0.67162804156155D+03

 The electronic state is 1-A.
 Alpha  occ. eigenvalues --  -20.60771 -20.60766 -15.85825 -11.31200 -11.27773
 Alpha  occ. eigenvalues --  -11.27770 -11.27499 -11.26784 -11.26772 -11.22820
 Alpha  occ. eigenvalues --  -11.22618 -11.22413 -11.22350 -11.22107 -11.21668
 Alpha  occ. eigenvalues --   -1.59846  -1.39399  -1.19375  -1.09510  -1.08763
 Alpha  occ. eigenvalues --   -1.04780  -1.04476  -0.96919  -0.95600  -0.87928
 Alpha  occ. eigenvalues --   -0.86184  -0.82434  -0.80561  -0.79309  -0.77479
 Alpha  occ. eigenvalues --   -0.72044  -0.71169  -0.70530  -0.66230  -0.65018
 Alpha  occ. eigenvalues --   -0.64722  -0.62143  -0.61866  -0.60289  -0.58522
 Alpha  occ. eigenvalues --   -0.56222  -0.55265  -0.53567  -0.53335  -0.53100
 Alpha  occ. eigenvalues --   -0.52877  -0.50864  -0.48861  -0.48808  -0.48796
 Alpha  occ. eigenvalues --   -0.47626  -0.46810  -0.46750  -0.44803  -0.44759
 Alpha  occ. eigenvalues --   -0.37347  -0.36381
 Alpha virt. eigenvalues --    0.05044   0.11184   0.16478   0.17968   0.23013
 Alpha virt. eigenvalues --    0.23423   0.24011   0.25249   0.27025   0.28458
 Alpha virt. eigenvalues --    0.29875   0.30240   0.30912   0.31260   0.31721

 Mulliken charges:
               1
     1  C   -0.176396
     2  C   -0.220310
     3  C   -0.170531
     4  C    0.158541
     5  C   -0.170702
     6  C   -0.225310
     7  H    0.234098
     8  H    0.223785
     9  H    0.275685
    10  H    0.275984
    11  H    0.228026
    12  N    0.487934
    13  O   -0.460309
    14  O   -0.460334
    15  C   -0.298452
    16  C   -0.300813
    17  C   -0.476263
    18  H    0.154066
    19  H    0.144955
    20  H    0.154025
    21  H    0.151987
    22  H    0.156112
    23  H    0.156266
    24  H    0.163778
    25  C   -0.305354
    26  C   -0.302530
    27  C   -0.475851
    28  H    0.156372
    29  H    0.142513
    30  H    0.158502
    31  H    0.144746
    32  H    0.151849
    33  H    0.159519
    34  H    0.164411
 Sum of Mulliken charges =  -0.00000

 Dipole moment (field-independent basis, Debye):
    X=             -5.0669    Y=             -1.1513    Z=              1.4443  Tot=              5.3931
 Quadrupole moment (field-independent basis, Debye-Ang):
   XX=           -121.6172   YY=            -95.8355   ZZ=            -90.2678
   XY=             -3.0578   XZ=              6.2842   YZ=             -0.6684

 Normal termination of Gaussian 16 at Thu May  6 19:22:03 2021.
