 Gaussian 16, Revision A.03,
 Gaussian 16:  EM64L-G16RevA.03 25-Dec-2016

 -------------
 #p 6-31g* mp2
 -------------

 ------------------------------------------------------
 Input file generated by CHIRIPA (05-May-2021 14:51:13)
 ------------------------------------------------------
 Symbolic Z-matrix:
 Charge =  0 Multiplicity = 1

                         Standard orientation:
 ---------------------------------------------------------------------
 Center     Atomic      Atomic             Coordinates (Angstroms)
 Number     Number       Type             X           Y           Z
 ---------------------------------------------------------------------
      1          6           0       -3.183870   -0.638500   -0.092866
      2          6           0       -2.120135   -0.884946    0.977515
      3          6           0       -1.075811   -1.915358    0.546897
      4          1           0       -3.681008   -1.588491   -0.332275
      5          1           0       -2.693434   -0.300939   -1.016403
      6          1           0       -2.612552   -1.220615    1.899182
      7          1           0       -1.625603    0.065776    1.214542
      8          1           0       -0.558223   -1.583806   -0.359070
      9          1           0       -1.550779   -2.877505    0.329459
     10          1           0       -0.325092   -2.076193    1.326905
     11          6           0       -4.234943    0.389179    0.322887
     12          6           0       -5.298678    0.635625   -0.747495
     13          6           0       -6.343002    1.666037   -0.316877
     14          1           0       -4.725379    0.051618    1.246423
     15          1           0       -3.737805    1.339170    0.562295
     16          1           0       -5.793210   -0.315097   -0.984522
     17          1           0       -4.806261    0.971293   -1.669161
     18          1           0       -5.868033    2.628184   -0.099439
     19          1           0       -6.860590    1.334485    0.589091
     20          1           0       -7.093721    1.826872   -1.096885
     21          6           0        3.809453   -0.568783   -0.419245
     22          6           0        2.788265   -1.597534    0.067410
     23          6           0        3.001462   -2.979924   -0.550116
     24          1           0        3.753465   -0.495514   -1.513978
     25          1           0        4.821060   -0.925681   -0.181192
     26          1           0        1.778821   -1.238153   -0.170253
     27          1           0        2.846556   -1.668223    1.161129
     28          1           0        3.996458   -3.363382   -0.302032
     29          1           0        2.922655   -2.930868   -1.640980
     30          1           0        2.260583   -3.699770   -0.188479
     31          6           0        3.609360    0.818104    0.189224
     32          6           0        4.630548    1.846855   -0.297430
     33          6           0        4.417351    3.229245    0.320096
     34          1           0        2.597753    1.175002   -0.048829
     35          1           0        3.665347    0.744834    1.283959
     36          1           0        4.572256    1.917544   -1.391149
     37          1           0        5.639993    1.487474   -0.059766
     38          1           0        4.496158    3.180188    1.410960
     39          1           0        3.422356    3.612702    0.072012
     40          1           0        5.158229    3.949091   -0.041542
 ---------------------------------------------------------------------

 SCF Done:  E(RHF) =  -470.732763931     A.U. after   11 cycles
 E2 =    -0.1582850059D+01 EUMP2 =    -0.47231561399051D+03

 The electronic state is 1-A.
 Alpha  occ. eigenvalues --  -11.21615 -11.21613 -11.21588 -11.21460 -11.21422
 Alpha  occ. eigenvalues --  -11.21369 -11.21363 -11.21297 -11.21082 -11.21067
 Alpha  occ. eigenvalues --  -11.21059 -11.20991  -1.08449  -1.08382  -1.03563
 Alpha  occ. eigenvalues --   -1.03462  -0.96016  -0.95915  -0.87025  -0.86943
 Alpha  occ. eigenvalues --   -0.79687  -0.79476  -0.78273  -0.78180  -0.65119
 Alpha  occ. eigenvalues --   -0.64990  -0.61072  -0.60779  -0.59459  -0.59212
 Alpha  occ. eigenvalues --   -0.57613  -0.57534  -0.55353  -0.55166  -0.52720
 Alpha  occ. eigenvalues --   -0.52586  -0.52419  -0.52357  -0.50056  -0.49809
 Alpha  occ. eigenvalues --   -0.47932  -0.47849  -0.46795  -0.46427  -0.45830
 Alpha  occ. eigenvalues --   -0.45762  -0.45719  -0.45522  -0.43794  -0.43712
 Alpha virt. eigenvalues --    0.21908   0.23094   0.23587   0.24803   0.26162
 Alpha virt. eigenvalues --    0.26774   0.26900   0.27504   0.27781   0.29096
 Alpha virt. eigenvalues --    0.30008   0.31256   0.31486   0.31919   0.32369

 Mulliken charges:
               1
     1  C   -0.298502
     2  C   -0.300307
     3  C   -0.478883
     4  H    0.149772
     5  H    0.149302
     6  H    0.152073
     7  H    0.152135
     8  H    0.156783
     9  H    0.154999
    10  H    0.163536
    11  C   -0.298280
    12  C   -0.299647
    13  C   -0.475715
    14  H    0.149633
    15  H    0.149640
    16  H    0.151984
    17  H    0.151835
    18  H    0.155192
    19  H    0.155232
    20  H    0.160285
    21  C   -0.297957
    22  C   -0.305262
    23  C   -0.476291
    24  H    0.149022
    25  H    0.149070
    26  H    0.160249
    27  H    0.150372
    28  H    0.154710
    29  H    0.154450
    30  H    0.161451
    31  C   -0.298001
    32  C   -0.299560
    33  C   -0.475647
    34  H    0.148691
    35  H    0.149542
    36  H    0.151809
    37  H    0.152009
    38  H    0.155164
    39  H    0.154901
    40  H    0.160214
 Sum of Mulliken charges =  -0.00000

 Dipole moment (field-independent basis, Debye):
    X=             -0.0390    Y=             -0.0142    Z=              0.0111  Tot=              0.0430
 Quadrupole moment (field-independent basis, Debye-Ang):
   XX=            -84.9545   YY=            -85.8198   ZZ=            -84.1878
   XY=              0.9319   XZ=              0.4111   YZ=             -1.0258

 Normal termination of Gaussian 16 at Wed May  5 16:50:02 2021.
