 Gaussian 16, Revision A.03,
 Gaussian 16:  EM64L-G16RevA.03 25-Dec-2016

 -------------
 #p 6-31g* mp2
 -------------

 ------------------------------------------------------
 Input file generated by CHIRIPA (05-May-2021 14:53:15)
 ------------------------------------------------------
 Symbolic Z-matrix:
 Charge =  0 Multiplicity = 1

                         Standard orientation:
 ---------------------------------------------------------------------
 Center     Atomic      Atomic             Coordinates (Angstroms)
 Number     Number       Type             X           Y           Z
 ---------------------------------------------------------------------
      1          6           0        3.477490    0.733098   -0.275056
      2          6           0        4.143460    1.970783    0.327112
      3          6           0        3.608993    3.275960   -0.263355
      4          1           0        3.630606    0.734843   -1.362943
      5          1           0        2.392500    0.793179   -0.112018
      6          1           0        5.227018    1.907712    0.164203
      7          1           0        3.988905    1.965991    1.413715
      8          1           0        2.532020    3.365517   -0.088114
      9          1           0        3.777168    3.306907   -1.344725
     10          1           0        4.098724    4.147946    0.181238
     11          6           0        4.001255   -0.579441    0.305150
     12          6           0        3.335285   -1.817126   -0.297017
     13          6           0        3.869752   -3.122303    0.293450
     14          1           0        5.086245   -0.639523    0.142113
     15          1           0        3.848139   -0.581186    1.393037
     16          1           0        3.489840   -1.812334   -1.383620
     17          1           0        2.251727   -1.754055   -0.134109
     18          1           0        3.701577   -3.153250    1.374819
     19          1           0        4.946725   -3.211860    0.118209
     20          1           0        3.380021   -3.994289   -0.151144
     21          6           0       -5.385954    0.460992    0.130951
     22          6           0       -4.445972    1.492897    0.221074
     23          6           0       -3.077851    1.215870    0.143288
     24          6           0       -2.683120   -0.110392   -0.025552
     25          6           0       -3.595360   -1.160357   -0.118715
     26          6           0       -4.958402   -0.860014   -0.038358
     27          1           0       -6.446771    0.685249    0.192374
     28          1           0       -4.775124    2.519743    0.352576
     29          1           0       -2.328718    1.995456    0.210086
     30          1           0       -3.236790   -2.174114   -0.249652
     31          1           0       -5.686158   -1.663427   -0.108662
     32          7           0       -1.237439   -0.416011   -0.109261
     33          8           0       -0.915391   -1.592767   -0.258137
     34          8           0       -0.453738    0.526990   -0.024412
 ---------------------------------------------------------------------

 SCF Done:  E(RHF) =  -669.537169481     A.U. after   15 cycles
 E2 =    -0.2091944501D+01 EUMP2 =    -0.67162911398229D+03

 The electronic state is 1-A.
 Alpha  occ. eigenvalues --  -20.61214 -20.61204 -15.86199 -11.31436 -11.27982
 Alpha  occ. eigenvalues --  -11.27979 -11.27704 -11.26968 -11.26959 -11.20347
 Alpha  occ. eigenvalues --  -11.20027 -11.19865 -11.19801 -11.19712 -11.19599
 Alpha  occ. eigenvalues --   -1.60236  -1.39797  -1.19590  -1.09012  -1.06887
 Alpha  occ. eigenvalues --   -1.04972  -1.02123  -0.95867  -0.94603  -0.86377
 Alpha  occ. eigenvalues --   -0.85634  -0.82705  -0.78171  -0.77768  -0.76654
 Alpha  occ. eigenvalues --   -0.72412  -0.71535  -0.70698  -0.65247  -0.64975
 Alpha  occ. eigenvalues --   -0.63512  -0.62319  -0.59525  -0.57979  -0.56200
 Alpha  occ. eigenvalues --   -0.55481  -0.53901  -0.53308  -0.53061  -0.51359
 Alpha  occ. eigenvalues --   -0.51038  -0.49232  -0.49186  -0.48543  -0.46494
 Alpha  occ. eigenvalues --   -0.45228  -0.45153  -0.44265  -0.43937  -0.42332
 Alpha  occ. eigenvalues --   -0.37565  -0.36567
 Alpha virt. eigenvalues --    0.04763   0.11089   0.16283   0.21218   0.24377
 Alpha virt. eigenvalues --    0.25596   0.27158   0.27918   0.28288   0.29072
 Alpha virt. eigenvalues --    0.29518   0.30862   0.32261   0.32696   0.33116

 Mulliken charges:
               1
     1  C   -0.312172
     2  C   -0.297511
     3  C   -0.474949
     4  H    0.143396
     5  H    0.181319
     6  H    0.146464
     7  H    0.148772
     8  H    0.157269
     9  H    0.152550
    10  H    0.154108
    11  C   -0.295767
    12  C   -0.308224
    13  C   -0.474181
    14  H    0.141568
    15  H    0.145783
    16  H    0.146193
    17  H    0.177900
    18  H    0.151884
    19  H    0.148864
    20  H    0.157676
    21  C   -0.170250
    22  C   -0.218581
    23  C   -0.170554
    24  C    0.157519
    25  C   -0.170171
    26  C   -0.218634
    27  H    0.226542
    28  H    0.224381
    29  H    0.275954
    30  H    0.276218
    31  H    0.224337
    32  N    0.491752
    33  O   -0.458145
    34  O   -0.461309
 Sum of Mulliken charges =  -0.00000

 Dipole moment (field-independent basis, Debye):
    X=             -5.7114    Y=              1.0479    Z=              0.2831  Tot=              5.8136
 Quadrupole moment (field-independent basis, Debye-Ang):
   XX=            -69.3855   YY=            -92.1726   ZZ=            -95.3921
   XY=             -0.9533   XZ=             -1.2160   YZ=              0.9748

 Normal termination of Gaussian 16 at Wed May  5 18:39:17 2021.
