 Gaussian 16, Revision A.03,
 Gaussian 16:  EM64L-G16RevA.03 25-Dec-2016

 -------------
 #p 6-31g* mp2
 -------------

 ------------------------------------------------------
 Input file generated by CHIRIPA (05-May-2021 14:57:22)
 ------------------------------------------------------
 Symbolic Z-matrix:
 Charge =  0 Multiplicity = 1

                         Standard orientation:
 ---------------------------------------------------------------------
 Center     Atomic      Atomic             Coordinates (Angstroms)
 Number     Number       Type             X           Y           Z
 ---------------------------------------------------------------------
      1          6           0       -1.944772   -1.676985    0.066608
      2          6           0       -2.899417   -1.815244   -0.946337
      3          6           0       -4.059319   -1.034772   -0.940161
      4          6           0       -4.233147   -0.121803    0.098858
      5          6           0       -3.300416    0.039148    1.122283
      6          6           0       -2.147960   -0.751862    1.095871
      7          1           0       -1.046625   -2.287368    0.053951
      8          1           0       -2.744265   -2.532898   -1.746928
      9          1           0       -4.814614   -1.121336   -1.711818
     10          1           0       -3.482966    0.763073    1.907157
     11          1           0       -1.408273   -0.642342    1.883851
     12          7           0       -5.457141    0.710026    0.116108
     13          8           0       -5.586740    1.507149    1.042626
     14          8           0       -6.263734    0.549139   -0.797216
     15          6           0        1.761770    1.244873   -0.588433
     16          6           0        2.900183    2.056869   -0.623031
     17          6           0        4.162802    1.521312   -0.351886
     18          6           0        4.250839    0.163578   -0.048410
     19          6           0        3.135270   -0.671289   -0.006066
     20          6           0        1.882732   -0.114218   -0.280604
     21          1           0        0.784852    1.669263   -0.800382
     22          1           0        2.809246    3.112694   -0.861796
     23          1           0        5.060591    2.127119   -0.371722
     24          1           0        3.257577   -1.720243    0.235087
     25          1           0        1.000352   -0.747217   -0.253007
     26          7           0        5.582180   -0.414780    0.240434
     27          8           0        5.633014   -1.613938    0.505146
     28          8           0        6.549643    0.342013    0.196651
 ---------------------------------------------------------------------

 SCF Done:  E(RHF) =  -868.337144190     A.U. after   16 cycles
 E2 =    -0.2600161570D+01 EUMP2 =    -0.87093730575968D+03

 The electronic state is 1-A.
 Alpha  occ. eigenvalues --  -20.61480 -20.61474 -20.61234 -20.61224 -15.86536
 Alpha  occ. eigenvalues --  -15.86290 -11.32082 -11.31730 -11.28640 -11.28615
 Alpha  occ. eigenvalues --  -11.28498 -11.28373 -11.28284 -11.28051 -11.27749
 Alpha  occ. eigenvalues --  -11.27703 -11.27411 -11.27280  -1.60551  -1.60306
 Alpha  occ. eigenvalues --   -1.40099  -1.39858  -1.20269  -1.19918  -1.09657
 Alpha  occ. eigenvalues --   -1.09288  -1.05675  -1.05347  -0.96456  -0.96108
 Alpha  occ. eigenvalues --   -0.87078  -0.86731  -0.83267  -0.82950  -0.78265
 Alpha  occ. eigenvalues --   -0.77997  -0.72749  -0.72505  -0.71878  -0.71632
 Alpha  occ. eigenvalues --   -0.71432  -0.70997  -0.65928  -0.65706  -0.65568
 Alpha  occ. eigenvalues --   -0.65319  -0.62998  -0.62698  -0.56268  -0.55784
 Alpha  occ. eigenvalues --   -0.54051  -0.53758  -0.53652  -0.53396  -0.49523
 Alpha  occ. eigenvalues --   -0.49495  -0.49270  -0.49256  -0.45464  -0.45247
 Alpha  occ. eigenvalues --   -0.38301  -0.37888  -0.37275  -0.36954
 Alpha virt. eigenvalues --    0.04193   0.04564   0.10252   0.10735   0.15499
 Alpha virt. eigenvalues --    0.16032   0.19028   0.21753   0.25169   0.26535
 Alpha virt. eigenvalues --    0.27815   0.28600   0.29763   0.31493   0.31722

 Mulliken charges:
               1
     1  C   -0.178168
     2  C   -0.218192
     3  C   -0.170844
     4  C    0.159585
     5  C   -0.171734
     6  C   -0.221357
     7  H    0.222375
     8  H    0.226955
     9  H    0.278597
    10  H    0.278254
    11  H    0.226603
    12  N    0.487775
    13  O   -0.458423
    14  O   -0.457822
    15  C   -0.172880
    16  C   -0.218491
    17  C   -0.170054
    18  C    0.159065
    19  C   -0.172072
    20  C   -0.223103
    21  H    0.229706
    22  H    0.226263
    23  H    0.277577
    24  H    0.273888
    25  H    0.217566
    26  N    0.488116
    27  O   -0.460692
    28  O   -0.458495
 Sum of Mulliken charges =  -0.00000

 Dipole moment (field-independent basis, Debye):
    X=             -0.5462    Y=             -0.7562    Z=             -1.1140  Tot=              1.4531
 Quadrupole moment (field-independent basis, Debye-Ang):
   XX=           -179.5269   YY=            -98.9432   ZZ=           -102.0090
   XY=             23.1578   XZ=             -2.2445   YZ=              0.8861

 Normal termination of Gaussian 16 at Wed May  5 19:22:07 2021.
