 Gaussian 16, Revision A.03,
 Gaussian 16:  EM64L-G16RevA.03 25-Dec-2016

 -------------
 #p 6-31g* mp2
 -------------

 ------------------------------------------------------
 Input file generated by CHIRIPA (05-May-2021 14:55:22)
 ------------------------------------------------------
 Symbolic Z-matrix:
 Charge =  0 Multiplicity = 1

                         Standard orientation:
 ---------------------------------------------------------------------
 Center     Atomic      Atomic             Coordinates (Angstroms)
 Number     Number       Type             X           Y           Z
 ---------------------------------------------------------------------
      1          6           0        1.012625   -2.054187   -0.099648
      2          6           0        0.692229   -0.692641   -0.091971
      3          6           0        1.701069    0.273884   -0.040792
      4          6           0        3.025650   -0.158484    0.002001
      5          6           0        3.376821   -1.507531   -0.004359
      6          6           0        2.351539   -2.456577   -0.055895
      7          1           0        0.222548   -2.798217   -0.139544
      8          1           0       -0.346719   -0.377230   -0.125876
      9          1           0        1.481221    1.334561   -0.033711
     10          1           0        4.421667   -1.791292    0.030219
     11          1           0        2.603318   -3.513279   -0.061738
     12          7           0        4.102367    0.855480    0.056371
     13          8           0        5.261582    0.448681    0.093414
     14          8           0        3.766696    2.037826    0.060913
     15          6           0       -4.188471   -0.113349    0.097213
     16          6           0       -3.670283   -1.543498   -0.058156
     17          6           0       -4.767891   -2.592718    0.121247
     18          1           0       -4.645767   -0.001635    1.089858
     19          1           0       -4.987534    0.061434   -0.636508
     20          1           0       -2.871487   -1.715086    0.674714
     21          1           0       -3.213996   -1.651765   -1.050475
     22          1           0       -5.562037   -2.449858   -0.618701
     23          1           0       -5.217581   -2.513537    1.116290
     24          1           0       -4.375513   -3.607921    0.006085
     25          6           0       -3.102906    0.946879   -0.079396
     26          6           0       -3.621094    2.377027    0.075973
     27          6           0       -2.523486    3.426249   -0.103431
     28          1           0       -2.303843    0.772097    0.654324
     29          1           0       -2.645610    0.835164   -1.072041
     30          1           0       -4.077381    2.485297    1.068292
     31          1           0       -4.419890    2.548616   -0.656897
     32          1           0       -2.073795    3.347068   -1.098473
     33          1           0       -1.729340    3.283389    0.636519
     34          1           0       -2.915863    4.441452    0.011731
 ---------------------------------------------------------------------

 SCF Done:  E(RHF) =  -669.535694984     A.U. after   15 cycles
 E2 =    -0.2091973428D+01 EUMP2 =    -0.67162766841146D+03

 The electronic state is 1-A.
 Alpha  occ. eigenvalues --  -20.60676 -20.60671 -15.85727 -11.31067 -11.27638
 Alpha  occ. eigenvalues --  -11.27608 -11.27349 -11.26652 -11.26533 -11.22747
 Alpha  occ. eigenvalues --  -11.22508 -11.22366 -11.22347 -11.21982 -11.21701
 Alpha  occ. eigenvalues --   -1.59752  -1.39306  -1.19229  -1.09431  -1.08627
 Alpha  occ. eigenvalues --   -1.04624  -1.04428  -0.96860  -0.95470  -0.87873
 Alpha  occ. eigenvalues --   -0.86027  -0.82305  -0.80513  -0.79320  -0.77340
 Alpha  occ. eigenvalues --   -0.71945  -0.71075  -0.70338  -0.66052  -0.64877
 Alpha  occ. eigenvalues --   -0.64622  -0.61984  -0.61807  -0.60243  -0.58491
 Alpha  occ. eigenvalues --   -0.56129  -0.55124  -0.53528  -0.53336  -0.52963
 Alpha  occ. eigenvalues --   -0.52670  -0.50791  -0.48822  -0.48707  -0.48703
 Alpha  occ. eigenvalues --   -0.47540  -0.46740  -0.46714  -0.44717  -0.44708
 Alpha  occ. eigenvalues --   -0.37213  -0.36229
 Alpha virt. eigenvalues --    0.05168   0.11382   0.16647   0.19800   0.22589
 Alpha virt. eigenvalues --    0.22938   0.25049   0.25665   0.26714   0.27669
 Alpha virt. eigenvalues --    0.29884   0.30646   0.30847   0.31238   0.31490

 Mulliken charges:
               1
     1  C   -0.174291
     2  C   -0.229338
     3  C   -0.174876
     4  C    0.158956
     5  C   -0.171569
     6  C   -0.218382
     7  H    0.226421
     8  H    0.239893
     9  H    0.275679
    10  H    0.275050
    11  H    0.222722
    12  N    0.488066
    13  O   -0.460942
    14  O   -0.460635
    15  C   -0.297153
    16  C   -0.304802
    17  C   -0.475529
    18  H    0.153666
    19  H    0.154002
    20  H    0.146966
    21  H    0.150619
    22  H    0.158903
    23  H    0.158540
    24  H    0.159975
    25  C   -0.307784
    26  C   -0.298988
    27  C   -0.477845
    28  H    0.146416
    29  H    0.149464
    30  H    0.155131
    31  H    0.155260
    32  H    0.156156
    33  H    0.154717
    34  H    0.165531
 Sum of Mulliken charges =  -0.00000

 Dipole moment (field-independent basis, Debye):
    X=             -4.1286    Y=             -3.4680    Z=             -0.1910  Tot=              5.3953
 Quadrupole moment (field-independent basis, Debye-Ang):
   XX=           -114.9644   YY=            -91.5334   ZZ=            -94.6554
   XY=            -13.9442   XZ=             -0.2991   YZ=              0.0117

 Normal termination of Gaussian 16 at Thu May  6 03:04:18 2021.
