 Gaussian 16, Revision A.03,
 Gaussian 16:  EM64L-G16RevA.03 25-Dec-2016

 -------------
 #p 6-31g* mp2
 -------------

 ------------------------------------------------------
 Input file generated by CHIRIPA (05-May-2021 14:53:14)
 ------------------------------------------------------
 Symbolic Z-matrix:
 Charge =  0 Multiplicity = 1

                         Standard orientation:
 ---------------------------------------------------------------------
 Center     Atomic      Atomic             Coordinates (Angstroms)
 Number     Number       Type             X           Y           Z
 ---------------------------------------------------------------------
      1          6           0       -1.959425    1.138869    0.040422
      2          6           0       -1.875876    2.336559    0.987282
      3          6           0       -0.512452    3.027430    0.947717
      4          1           0       -1.173399    0.417264    0.301947
      5          1           0       -1.747110    1.474723   -0.984038
      6          1           0       -2.089646    1.998796    2.009454
      7          1           0       -2.662314    3.055308    0.723595
      8          1           0       -0.294345    3.391786   -0.061379
      9          1           0        0.281576    2.329271    1.231786
     10          1           0       -0.474765    3.880739    1.632044
     11          6           0       -3.316395    0.437756    0.068698
     12          6           0       -3.399944   -0.759934   -0.878162
     13          6           0       -4.763368   -1.450805   -0.838597
     14          1           0       -3.528710    0.101902    1.093159
     15          1           0       -4.102421    1.159361   -0.192827
     16          1           0       -2.613506   -1.478683   -0.614474
     17          1           0       -3.186174   -0.422171   -1.900333
     18          1           0       -5.557396   -0.752646   -1.122666
     19          1           0       -4.981475   -1.815162    0.170500
     20          1           0       -4.801055   -2.304114   -1.522924
     21          6           0        0.758326   -2.121439    1.507397
     22          6           0        1.871233   -1.420725    1.983796
     23          6           0        2.600399   -0.583706    1.133934
     24          6           0        2.186792   -0.470316   -0.192476
     25          6           0        1.082441   -1.155337   -0.696901
     26          6           0        0.368170   -1.986746    0.170925
     27          1           0        0.197677   -2.769476    2.174567
     28          1           0        2.176535   -1.523404    3.021241
     29          1           0        3.465917   -0.029661    1.476471
     30          1           0        0.802353   -1.032702   -1.736098
     31          1           0       -0.495717   -2.529717   -0.201806
     32          7           0        2.950844    0.412829   -1.101696
     33          8           0        2.565981    0.495605   -2.266026
     34          8           0        3.920103    1.005539   -0.632795
 ---------------------------------------------------------------------

 SCF Done:  E(RHF) =  -669.534248412     A.U. after   15 cycles
 E2 =    -0.2094790047D+01 EUMP2 =    -0.67162903845964D+03

 The electronic state is 1-A.
 Alpha  occ. eigenvalues --  -20.60807 -20.60802 -15.85864 -11.31278 -11.27863
 Alpha  occ. eigenvalues --  -11.27823 -11.27599 -11.26879 -11.26828 -11.22220
 Alpha  occ. eigenvalues --  -11.21724 -11.21644 -11.21607 -11.21373 -11.20980
 Alpha  occ. eigenvalues --   -1.59881  -1.39433  -1.19469  -1.08852  -1.08696
 Alpha  occ. eigenvalues --   -1.04876  -1.03802  -0.96216  -0.95669  -0.87237
 Alpha  occ. eigenvalues --   -0.86262  -0.82506  -0.79913  -0.78511  -0.77524
 Alpha  occ. eigenvalues --   -0.72080  -0.71203  -0.70553  -0.65434  -0.65105
 Alpha  occ. eigenvalues --   -0.64820  -0.62233  -0.61189  -0.59616  -0.57840
 Alpha  occ. eigenvalues --   -0.55520  -0.55357  -0.53325  -0.53023  -0.52886
 Alpha  occ. eigenvalues --   -0.52587  -0.50162  -0.48849  -0.48831  -0.48195
 Alpha  occ. eigenvalues --   -0.46955  -0.46004  -0.45889  -0.44825  -0.44026
 Alpha  occ. eigenvalues --   -0.37442  -0.36342
 Alpha virt. eigenvalues --    0.04992   0.11061   0.16384   0.20388   0.22941
 Alpha virt. eigenvalues --    0.23846   0.25628   0.26405   0.27639   0.28231
 Alpha virt. eigenvalues --    0.29032   0.29915   0.31421   0.31565   0.32187

 Mulliken charges:
               1
     1  C   -0.309861
     2  C   -0.298528
     3  C   -0.477411
     4  H    0.160230
     5  H    0.151020
     6  H    0.148755
     7  H    0.151979
     8  H    0.160352
     9  H    0.153696
    10  H    0.160273
    11  C   -0.296824
    12  C   -0.302464
    13  C   -0.475390
    14  H    0.146978
    15  H    0.151918
    16  H    0.140674
    17  H    0.154924
    18  H    0.158938
    19  H    0.154107
    20  H    0.159597
    21  C   -0.171587
    22  C   -0.218457
    23  C   -0.172019
    24  C    0.161313
    25  C   -0.170618
    26  C   -0.221486
    27  H    0.226187
    28  H    0.224061
    29  H    0.276391
    30  H    0.276968
    31  H    0.228218
    32  N    0.488282
    33  O   -0.460139
    34  O   -0.460075
 Sum of Mulliken charges =  -0.00000

 Dipole moment (field-independent basis, Debye):
    X=             -2.6127    Y=             -3.0749    Z=              3.1629  Tot=              5.1269
 Quadrupole moment (field-independent basis, Debye-Ang):
   XX=           -105.8290   YY=            -92.2111   ZZ=            -92.9318
   XY=             -5.6125   XZ=             10.5591   YZ=             -0.6179

 Normal termination of Gaussian 16 at Wed May  5 20:16:36 2021.
