 Gaussian 16, Revision A.03,
 Gaussian 16:  EM64L-G16RevA.03 25-Dec-2016

 -------------
 #p 6-31g* mp2
 -------------

 ------------------------------------------------------
 Input file generated by CHIRIPA (05-May-2021 14:51:08)
 ------------------------------------------------------
 Symbolic Z-matrix:
 Charge =  0 Multiplicity = 1

                         Standard orientation:
 ---------------------------------------------------------------------
 Center     Atomic      Atomic             Coordinates (Angstroms)
 Number     Number       Type             X           Y           Z
 ---------------------------------------------------------------------
      1          6           0        2.876695    0.870576   -0.052276
      2          6           0        4.024726    1.822730    0.284491
      3          6           0        3.592996    3.289470    0.293329
      4          1           0        2.462690    1.138341   -1.034033
      5          1           0        2.067075    1.011062    0.677227
      6          1           0        4.832510    1.679512   -0.444611
      7          1           0        4.436171    1.552546    1.265475
      8          1           0        2.803109    3.454095    1.033314
      9          1           0        3.201700    3.581782   -0.686488
     10          1           0        4.429089    3.952609    0.536342
     11          6           0        3.292645   -0.599305   -0.065004
     12          6           0        2.144613   -1.551459   -0.401771
     13          6           0        2.576343   -3.018199   -0.410609
     14          1           0        4.102265   -0.739791   -0.794507
     15          1           0        3.706649   -0.867070    0.916753
     16          1           0        1.733169   -1.281276   -1.382755
     17          1           0        1.336829   -1.408241    0.327331
     18          1           0        2.967639   -3.310511    0.569208
     19          1           0        3.366230   -3.182824   -1.150594
     20          1           0        1.740250   -3.681338   -0.653622
     21          6           0       -2.490599   -0.608338   -0.025409
     22          6           0       -2.748043   -2.010149    0.528333
     23          6           0       -1.550362   -2.944250    0.352802
     24          1           0       -2.235326   -0.683240   -1.091322
     25          1           0       -1.612717   -0.178804    0.476806
     26          1           0       -3.626008   -2.436368    0.026208
     27          1           0       -3.002920   -1.931885    1.593005
     28          1           0       -0.671279   -2.544623    0.868661
     29          1           0       -1.297907   -3.051974   -0.707039
     30          1           0       -1.756133   -3.940905    0.755540
     31          6           0       -3.678740    0.337067    0.142689
     32          6           0       -3.421297    1.738879   -0.411053
     33          6           0       -4.618977    2.672980   -0.235522
     34          1           0       -4.556623   -0.092467   -0.359526
     35          1           0       -3.934014    0.411969    1.208602
     36          1           0       -3.166420    1.660614   -1.475725
     37          1           0       -2.543332    2.165098    0.091072
     38          1           0       -4.871432    2.780703    0.824319
     39          1           0       -5.498061    2.273353   -0.751381
     40          1           0       -4.413205    3.669634   -0.638260
 ---------------------------------------------------------------------

 SCF Done:  E(RHF) =  -470.733045257     A.U. after   11 cycles
 E2 =    -0.1583162125D+01 EUMP2 =    -0.47231620738126D+03

 The electronic state is 1-A.
 Alpha  occ. eigenvalues --  -11.21597 -11.21592 -11.21591 -11.21522 -11.21397
 Alpha  occ. eigenvalues --  -11.21380 -11.21338 -11.21316 -11.21067 -11.21064
 Alpha  occ. eigenvalues --  -11.21041 -11.20992  -1.08431  -1.08392  -1.03551
 Alpha  occ. eigenvalues --   -1.03467  -0.96005  -0.95911  -0.86996  -0.86953
 Alpha  occ. eigenvalues --   -0.79654  -0.79500  -0.78297  -0.78144  -0.65109
 Alpha  occ. eigenvalues --   -0.64989  -0.61037  -0.60801  -0.59398  -0.59271
 Alpha  occ. eigenvalues --   -0.57738  -0.57394  -0.55330  -0.55168  -0.52707
 Alpha  occ. eigenvalues --   -0.52624  -0.52438  -0.52277  -0.49971  -0.49849
 Alpha  occ. eigenvalues --   -0.48032  -0.47775  -0.46772  -0.46457  -0.45945
 Alpha  occ. eigenvalues --   -0.45748  -0.45696  -0.45405  -0.43793  -0.43729
 Alpha virt. eigenvalues --    0.21344   0.23194   0.23394   0.24701   0.25357
 Alpha virt. eigenvalues --    0.26681   0.26890   0.27264   0.28709   0.29290
 Alpha virt. eigenvalues --    0.29761   0.31254   0.31630   0.31888   0.32171

 Mulliken charges:
               1
     1  C   -0.298047
     2  C   -0.299606
     3  C   -0.475645
     4  H    0.149939
     5  H    0.148637
     6  H    0.152006
     7  H    0.151826
     8  H    0.154918
     9  H    0.155267
    10  H    0.160218
    11  C   -0.297988
    12  C   -0.302863
    13  C   -0.477815
    14  H    0.149363
    15  H    0.149217
    16  H    0.151760
    17  H    0.155521
    18  H    0.154470
    19  H    0.154732
    20  H    0.163500
    21  C   -0.298537
    22  C   -0.300272
    23  C   -0.479568
    24  H    0.149886
    25  H    0.149809
    26  H    0.151845
    27  H    0.151607
    28  H    0.160459
    29  H    0.155518
    30  H    0.159909
    31  C   -0.298343
    32  C   -0.299580
    33  C   -0.475710
    34  H    0.149545
    35  H    0.149459
    36  H    0.151947
    37  H    0.152095
    38  H    0.155100
    39  H    0.155129
    40  H    0.160293
 Sum of Mulliken charges =  -0.00000

 Dipole moment (field-independent basis, Debye):
    X=             -0.0122    Y=             -0.0117    Z=             -0.0099  Tot=              0.0196
 Quadrupole moment (field-independent basis, Debye-Ang):
   XX=            -85.3837   YY=            -86.5590   ZZ=            -82.9328
   XY=              0.9095   XZ=              0.1538   YZ=              0.1073

 Normal termination of Gaussian 16 at Thu May  6 13:12:16 2021.
