 Gaussian 16, Revision A.03,
 Gaussian 16:  EM64L-G16RevA.03 25-Dec-2016

 -------------
 #p 6-31g* mp2
 -------------

 ------------------------------------------------------
 Input file generated by CHIRIPA (05-May-2021 14:57:25)
 ------------------------------------------------------
 Symbolic Z-matrix:
 Charge =  0 Multiplicity = 1

                         Standard orientation:
 ---------------------------------------------------------------------
 Center     Atomic      Atomic             Coordinates (Angstroms)
 Number     Number       Type             X           Y           Z
 ---------------------------------------------------------------------
      1          6           0        4.629523    1.799292    0.278029
      2          6           0        4.984463    0.738134   -0.561305
      3          6           0        4.105227   -0.329202   -0.766939
      4          6           0        2.873616   -0.302857   -0.114460
      5          6           0        2.491084    0.739996    0.727810
      6          6           0        3.386159    1.796841    0.918778
      7          1           0        5.318687    2.624349    0.432075
      8          1           0        5.949412    0.737375   -1.060221
      9          1           0        4.354513   -1.163427   -1.411411
     10          1           0        1.522174    0.712696    1.211428
     11          1           0        3.107835    2.619618    1.571173
     12          7           0        1.934424   -1.427244   -0.324392
     13          8           0        0.855283   -1.380347    0.262032
     14          8           0        2.295209   -2.334145   -1.071387
     15          6           0       -3.653560    2.375227   -0.857141
     16          6           0       -3.027279    2.284060    0.390248
     17          6           0       -2.676402    1.038415    0.919211
     18          6           0       -2.967968   -0.100720    0.170446
     19          6           0       -3.591056   -0.042596   -1.075215
     20          6           0       -3.932958    1.213656   -1.584610
     21          1           0       -3.922644    3.346994   -1.260452
     22          1           0       -2.809075    3.184472    0.957427
     23          1           0       -2.190768    0.938977    1.882378
     24          1           0       -3.795714   -0.957876   -1.617246
     25          1           0       -4.419255    1.281432   -2.553613
     26          7           0       -2.601262   -1.425043    0.720077
     27          8           0       -2.868988   -2.413676    0.040691
     28          8           0       -2.053053   -1.449339    1.819857
 ---------------------------------------------------------------------

 SCF Done:  E(RHF) =  -868.336172725     A.U. after   16 cycles
 E2 =    -0.2600994272D+01 EUMP2 =    -0.87093716699665D+03

 The electronic state is 1-A.
 Alpha  occ. eigenvalues --  -20.60344 -20.60322 -20.59652 -20.59631 -15.85395
 Alpha  occ. eigenvalues --  -15.84718 -11.30984 -11.30524 -11.27593 -11.27575
 Alpha  occ. eigenvalues --  -11.27375 -11.27189 -11.27109 -11.26990 -11.26666
 Alpha  occ. eigenvalues --  -11.26636 -11.26322 -11.26250  -1.59408  -1.58671
 Alpha  occ. eigenvalues --   -1.38957  -1.38233  -1.19181  -1.18736  -1.08535
 Alpha  occ. eigenvalues --   -1.08046  -1.04621  -1.04224  -0.95331  -0.94814
 Alpha  occ. eigenvalues --   -0.86007  -0.85596  -0.82165  -0.81665  -0.77178
 Alpha  occ. eigenvalues --   -0.76624  -0.71678  -0.70957  -0.70747  -0.70303
 Alpha  occ. eigenvalues --   -0.69866  -0.69853  -0.64828  -0.64630  -0.64393
 Alpha  occ. eigenvalues --   -0.64246  -0.61968  -0.61575  -0.55116  -0.54718
 Alpha  occ. eigenvalues --   -0.52935  -0.52722  -0.52507  -0.52333  -0.48382
 Alpha  occ. eigenvalues --   -0.48349  -0.47718  -0.47669  -0.44319  -0.43530
 Alpha  occ. eigenvalues --   -0.37176  -0.36725  -0.36235  -0.35851
 Alpha virt. eigenvalues --    0.05345   0.05982   0.11416   0.11783   0.16812
 Alpha virt. eigenvalues --    0.17372   0.21354   0.21897   0.26967   0.27710
 Alpha virt. eigenvalues --    0.28217   0.28997   0.30694   0.31499   0.32323

 Mulliken charges:
               1
     1  C   -0.171435
     2  C   -0.218580
     3  C   -0.171056
     4  C    0.158697
     5  C   -0.170658
     6  C   -0.218567
     7  H    0.224240
     8  H    0.222764
     9  H    0.275968
    10  H    0.274881
    11  H    0.220596
    12  N    0.489062
    13  O   -0.456385
    14  O   -0.460030
    15  C   -0.172571
    16  C   -0.219363
    17  C   -0.172769
    18  C    0.165671
    19  C   -0.170363
    20  C   -0.218529
    21  H    0.222095
    22  H    0.217916
    23  H    0.271479
    24  H    0.276772
    25  H    0.221548
    26  N    0.495006
    27  O   -0.458521
    28  O   -0.457869
 Sum of Mulliken charges =  -0.00000

 Dipole moment (field-independent basis, Debye):
    X=              2.0576    Y=              8.2800    Z=             -1.1918  Tot=              8.6146
 Quadrupole moment (field-independent basis, Debye-Ang):
   XX=            -77.1030   YY=           -107.6190   ZZ=           -101.3829
   XY=             -3.5505   XZ=              6.8194   YZ=              3.8765

 Normal termination of Gaussian 16 at Thu May  6 19:42:33 2021.
