 Gaussian 16, Revision A.03,
 Gaussian 16:  EM64L-G16RevA.03 25-Dec-2016

 -------------
 #p 6-31g* mp2
 -------------

 ------------------------------------------------------
 Input file generated by CHIRIPA (05-May-2021 14:53:18)
 ------------------------------------------------------
 Symbolic Z-matrix:
 Charge =  0 Multiplicity = 1

                         Standard orientation:
 ---------------------------------------------------------------------
 Center     Atomic      Atomic             Coordinates (Angstroms)
 Number     Number       Type             X           Y           Z
 ---------------------------------------------------------------------
      1          6           0        3.874251    0.683385    0.432377
      2          6           0        2.911074    0.474214    1.601361
      3          6           0        2.132796    1.740513    1.959921
      4          1           0        4.577639    1.488691    0.684710
      5          1           0        3.307195    1.026839   -0.443912
      6          1           0        3.479588    0.129930    2.474789
      7          1           0        2.210019   -0.330818    1.346292
      8          1           0        1.540971    2.083921    1.105277
      9          1           0        2.817754    2.547287    2.240186
     10          1           0        1.450266    1.568457    2.798020
     11          6           0        4.659553   -0.573565    0.062099
     12          6           0        5.622729   -0.364395   -1.106885
     13          6           0        6.401008   -1.630693   -1.465445
     14          1           0        5.226608   -0.917019    0.938388
     15          1           0        3.956165   -1.378872   -0.190234
     16          1           0        6.323785    0.440637   -0.851816
     17          1           0        5.054216   -0.020111   -1.980313
     18          1           0        5.716049   -2.437467   -1.745710
     19          1           0        6.992832   -1.974101   -0.610802
     20          1           0        7.083537   -1.458638   -2.303545
     21          6           0       -2.337728    2.133859   -0.990685
     22          6           0       -1.587520    1.276733   -0.178870
     23          6           0       -2.129100    0.068115    0.268882
     24          6           0       -3.429786   -0.253339   -0.116052
     25          6           0       -4.202400    0.579552   -0.923921
     26          6           0       -3.640477    1.783151   -1.359969
     27          1           0       -1.909113    3.070793   -1.333963
     28          1           0       -0.575537    1.546510    0.109494
     29          1           0       -1.570519   -0.614049    0.898212
     30          1           0       -5.208541    0.283369   -1.194801
     31          1           0       -4.225424    2.446856   -1.990347
     32          7           0       -4.013901   -1.530193    0.351767
     33          8           0       -5.162049   -1.790384   -0.001354
     34          8           0       -3.312524   -2.246620    1.062708
 ---------------------------------------------------------------------

 SCF Done:  E(RHF) =  -669.535491566     A.U. after   15 cycles
 E2 =    -0.2090926955D+01 EUMP2 =    -0.67162641852056D+03

 The electronic state is 1-A.
 Alpha  occ. eigenvalues --  -20.60743 -20.60738 -15.85796 -11.31155 -11.27723
 Alpha  occ. eigenvalues --  -11.27714 -11.27461 -11.26741 -11.26699 -11.22353
 Alpha  occ. eigenvalues --  -11.22073 -11.22009 -11.21969 -11.21810 -11.21339
 Alpha  occ. eigenvalues --   -1.59819  -1.39372  -1.19325  -1.08994  -1.08722
 Alpha  occ. eigenvalues --   -1.04727  -1.04117  -0.96577  -0.95559  -0.87595
 Alpha  occ. eigenvalues --   -0.86126  -0.82391  -0.80182  -0.78769  -0.77440
 Alpha  occ. eigenvalues --   -0.72015  -0.71142  -0.70437  -0.65652  -0.64976
 Alpha  occ. eigenvalues --   -0.64742  -0.62146  -0.61459  -0.59949  -0.58163
 Alpha  occ. eigenvalues --   -0.55907  -0.55217  -0.53276  -0.53058  -0.53043
 Alpha  occ. eigenvalues --   -0.52764  -0.50505  -0.48774  -0.48770  -0.48486
 Alpha  occ. eigenvalues --   -0.47215  -0.46317  -0.46224  -0.44779  -0.44348
 Alpha  occ. eigenvalues --   -0.37309  -0.36329
 Alpha virt. eigenvalues --    0.05094   0.11321   0.16587   0.19263   0.22719
 Alpha virt. eigenvalues --    0.23714   0.25641   0.26323   0.27027   0.28281
 Alpha virt. eigenvalues --    0.28857   0.29908   0.31097   0.31501   0.32086

 Mulliken charges:
               1
     1  C   -0.298062
     2  C   -0.300807
     3  C   -0.480756
     4  H    0.151240
     5  H    0.146241
     6  H    0.157288
     7  H    0.150675
     8  H    0.145356
     9  H    0.161059
    10  H    0.163932
    11  C   -0.299032
    12  C   -0.299984
    13  C   -0.476136
    14  H    0.151440
    15  H    0.151366
    16  H    0.152203
    17  H    0.151475
    18  H    0.156488
    19  H    0.156128
    20  H    0.161138
    21  C   -0.173101
    22  C   -0.225461
    23  C   -0.174162
    24  C    0.158909
    25  C   -0.171290
    26  C   -0.218453
    27  H    0.225840
    28  H    0.235035
    29  H    0.275794
    30  H    0.275441
    31  H    0.223251
    32  N    0.488086
    33  O   -0.460599
    34  O   -0.460544
 Sum of Mulliken charges =  -0.00000

 Dipole moment (field-independent basis, Debye):
    X=              2.2569    Y=              4.4704    Z=             -1.5959  Tot=              5.2559
 Quadrupole moment (field-independent basis, Debye-Ang):
   XX=           -104.5965   YY=            -98.1188   ZZ=            -93.3285
   XY=            -16.4653   XZ=              8.8242   YZ=             -0.8250

 Normal termination of Gaussian 16 at Thu May  6 15:39:03 2021.
