 Gaussian 16, Revision A.03,
 Gaussian 16:  EM64L-G16RevA.03 25-Dec-2016

 -------------
 #p 6-31g* mp2
 -------------

 ------------------------------------------------------
 Input file generated by CHIRIPA (05-May-2021 14:53:15)
 ------------------------------------------------------
 Symbolic Z-matrix:
 Charge =  0 Multiplicity = 1

                         Standard orientation:
 ---------------------------------------------------------------------
 Center     Atomic      Atomic             Coordinates (Angstroms)
 Number     Number       Type             X           Y           Z
 ---------------------------------------------------------------------
      1          6           0        4.144277   -0.486912    0.037758
      2          6           0        3.586481   -1.906575   -0.069035
      3          6           0        4.679963   -2.974926   -0.042256
      4          1           0        4.848609   -0.313489   -0.787340
      5          1           0        4.723413   -0.396937    0.967221
      6          1           0        3.007416   -1.993441   -0.997342
      7          1           0        2.883250   -2.076572    0.756304
      8          1           0        5.252334   -2.917079    0.889220
      9          1           0        5.377205   -2.833476   -0.874390
     10          1           0        4.259056   -3.982240   -0.119809
     11          6           0        3.063278    0.592220    0.012374
     12          6           0        3.621074    2.011884    0.119167
     13          6           0        2.527592    3.080235    0.092388
     14          1           0        2.484143    0.502246   -0.917089
     15          1           0        2.358947    0.418798    0.837472
     16          1           0        4.324305    2.181881   -0.706171
     17          1           0        4.200139    2.098750    1.047474
     18          1           0        1.830351    2.938785    0.924522
     19          1           0        1.955222    3.022388   -0.839087
     20          1           0        2.948500    4.087549    0.169942
     21          6           0       -5.154560   -0.980651    0.089064
     22          6           0       -4.052389   -1.841359    0.119407
     23          6           0       -2.751832   -1.331899    0.059807
     24          6           0       -2.589315    0.049693   -0.030087
     25          6           0       -3.667238    0.933056   -0.062364
     26          6           0       -4.958812    0.401371   -0.001565
     27          1           0       -6.161375   -1.385045    0.135828
     28          1           0       -4.201401   -2.915087    0.189754
     29          1           0       -1.880746   -1.975450    0.081493
     30          1           0       -3.487010    1.998871   -0.132881
     31          1           0       -5.812905    1.072197   -0.025319
     32          7           0       -1.217229    0.600798   -0.093817
     33          8           0       -1.100801    1.821807   -0.172682
     34          8           0       -0.284196   -0.198688   -0.063698
 ---------------------------------------------------------------------

 SCF Done:  E(RHF) =  -669.535506369     A.U. after   15 cycles
 E2 =    -0.2092315801D+01 EUMP2 =    -0.67162782216989D+03

 The electronic state is 1-A.
 Alpha  occ. eigenvalues --  -20.61005 -20.60985 -15.86018 -11.31334 -11.27895
 Alpha  occ. eigenvalues --  -11.27892 -11.27631 -11.26899 -11.26890 -11.20387
 Alpha  occ. eigenvalues --  -11.20182 -11.19956 -11.19911 -11.19298 -11.19166
 Alpha  occ. eigenvalues --   -1.60056  -1.39612  -1.19501  -1.08908  -1.06853
 Alpha  occ. eigenvalues --   -1.04895  -1.02057  -0.95750  -0.94486  -0.86297
 Alpha  occ. eigenvalues --   -0.85495  -0.82586  -0.78152  -0.77639  -0.76539
 Alpha  occ. eigenvalues --   -0.72218  -0.71372  -0.70608  -0.65155  -0.64896
 Alpha  occ. eigenvalues --   -0.63514  -0.62242  -0.59479  -0.57920  -0.56070
 Alpha  occ. eigenvalues --   -0.55400  -0.53784  -0.53229  -0.52987  -0.51270
 Alpha  occ. eigenvalues --   -0.50898  -0.49099  -0.48947  -0.48415  -0.46410
 Alpha  occ. eigenvalues --   -0.45221  -0.45042  -0.43980  -0.43936  -0.42264
 Alpha  occ. eigenvalues --   -0.37480  -0.36496
 Alpha virt. eigenvalues --    0.04866   0.11159   0.16359   0.21293   0.24259
 Alpha virt. eigenvalues --    0.25732   0.27217   0.28064   0.28245   0.29125
 Alpha virt. eigenvalues --    0.29381   0.30918   0.32424   0.32808   0.32894

 Mulliken charges:
               1
     1  C   -0.298863
     2  C   -0.296444
     3  C   -0.474662
     4  H    0.143558
     5  H    0.143294
     6  H    0.152495
     7  H    0.152417
     8  H    0.152533
     9  H    0.152762
    10  H    0.154878
    11  C   -0.292557
    12  C   -0.301108
    13  C   -0.470540
    14  H    0.157457
    15  H    0.160399
    16  H    0.143782
    17  H    0.143573
    18  H    0.160704
    19  H    0.161996
    20  H    0.148051
    21  C   -0.170541
    22  C   -0.218557
    23  C   -0.170996
    24  C    0.157608
    25  C   -0.170692
    26  C   -0.218588
    27  H    0.226137
    28  H    0.223983
    29  H    0.275979
    30  H    0.276004
    31  H    0.223963
    32  N    0.488773
    33  O   -0.458642
    34  O   -0.458158
 Sum of Mulliken charges =  -0.00000

 Dipole moment (field-independent basis, Debye):
    X=             -5.3609    Y=             -1.9302    Z=              0.2000  Tot=              5.7013
 Quadrupole moment (field-independent basis, Debye-Ang):
   XX=            -72.1884   YY=            -92.4615   ZZ=            -94.6883
   XY=              3.4277   XZ=             -0.5123   YZ=             -0.3243

 Normal termination of Gaussian 16 at Thu May  6 02:40:46 2021.
