 Gaussian 16, Revision A.03,
 Gaussian 16:  EM64L-G16RevA.03 25-Dec-2016

 -------------
 #p 6-31g* mp2
 -------------

 ------------------------------------------------------
 Input file generated by CHIRIPA (05-May-2021 14:57:23)
 ------------------------------------------------------
 Symbolic Z-matrix:
 Charge =  0 Multiplicity = 1

                         Standard orientation:
 ---------------------------------------------------------------------
 Center     Atomic      Atomic             Coordinates (Angstroms)
 Number     Number       Type             X           Y           Z
 ---------------------------------------------------------------------
      1          6           0        4.883338    0.931268    0.000381
      2          6           0        4.750654   -0.296315    0.657615
      3          6           0        3.585506   -1.055700    0.515089
      4          6           0        2.568328   -0.555047   -0.296074
      5          6           0        2.670588    0.664323   -0.963885
      6          6           0        3.844713    1.406830   -0.806848
      7          1           0        5.791940    1.514621    0.116735
      8          1           0        5.555633   -0.668126    1.285158
      9          1           0        3.456370   -2.009320    1.012433
     10          1           0        1.850962    1.008806   -1.582725
     11          1           0        3.944989    2.359845   -1.318465
     12          7           0        1.330086   -1.350040   -0.454641
     13          8           0        0.448458   -0.886882   -1.174956
     14          8           0        1.264627   -2.421260    0.144391
     15          6           0       -0.881345    1.925952    1.000707
     16          6           0       -0.993373    0.634916    1.527201
     17          6           0       -2.037093   -0.205944    1.129521
     18          6           0       -2.955226    0.278821    0.199292
     19          6           0       -2.870521    1.560068   -0.343406
     20          6           0       -1.818623    2.383601    0.068727
     21          1           0       -0.067382    2.572423    1.315249
     22          1           0       -0.266923    0.276837    2.251144
     23          1           0       -2.147568   -1.209873    1.521109
     24          1           0       -3.609984    1.888952   -1.063438
     25          1           0       -1.734109    3.385770   -0.341833
     26          7           0       -4.064494   -0.602188   -0.229364
     27          8           0       -4.860451   -0.151413   -1.050272
     28          8           0       -4.116976   -1.726817    0.263680
 ---------------------------------------------------------------------

 SCF Done:  E(RHF) =  -868.337088973     A.U. after   16 cycles
 E2 =    -0.2602350149D+01 EUMP2 =    -0.87093943912171D+03

 The electronic state is 1-A.
 Alpha  occ. eigenvalues --  -20.61297 -20.61234 -20.59856 -20.59827 -15.86284
 Alpha  occ. eigenvalues --  -15.84900 -11.31771 -11.30254 -11.28341 -11.28337
 Alpha  occ. eigenvalues --  -11.28085 -11.27375 -11.27352 -11.26959 -11.26836
 Alpha  occ. eigenvalues --  -11.26800 -11.26024 -11.25932  -1.60332  -1.58912
 Alpha  occ. eigenvalues --   -1.39882  -1.38468  -1.19951  -1.18479  -1.09320
 Alpha  occ. eigenvalues --   -1.07918  -1.05360  -1.03923  -0.96138  -0.94739
 Alpha  occ. eigenvalues --   -0.86745  -0.85354  -0.82966  -0.81591  -0.78002
 Alpha  occ. eigenvalues --   -0.76596  -0.72524  -0.71692  -0.71140  -0.71033
 Alpha  occ. eigenvalues --   -0.70209  -0.69698  -0.65591  -0.65347  -0.64190
 Alpha  occ. eigenvalues --   -0.64004  -0.62695  -0.61289  -0.55839  -0.54538
 Alpha  occ. eigenvalues --   -0.53700  -0.53438  -0.52225  -0.52073  -0.49289
 Alpha  occ. eigenvalues --   -0.49276  -0.47900  -0.47874  -0.45238  -0.43877
 Alpha  occ. eigenvalues --   -0.37951  -0.37015  -0.36454  -0.35427
 Alpha virt. eigenvalues --    0.04500   0.05963   0.10659   0.12130   0.15990
 Alpha virt. eigenvalues --    0.17389   0.20867   0.21996   0.26764   0.27773
 Alpha virt. eigenvalues --    0.27864   0.28941   0.30423   0.31472   0.31987

 Mulliken charges:
               1
     1  C   -0.171188
     2  C   -0.218750
     3  C   -0.173120
     4  C    0.155984
     5  C   -0.173081
     6  C   -0.220261
     7  H    0.227041
     8  H    0.225173
     9  H    0.276650
    10  H    0.277067
    11  H    0.223719
    12  N    0.486880
    13  O   -0.452986
    14  O   -0.462086
    15  C   -0.171398
    16  C   -0.224599
    17  C   -0.152841
    18  C    0.163389
    19  C   -0.168367
    20  C   -0.219834
    21  H    0.218102
    22  H    0.219266
    23  H    0.279912
    24  H    0.272917
    25  H    0.216862
    26  N    0.488501
    27  O   -0.464628
    28  O   -0.458325
 Sum of Mulliken charges =  -0.00000

 Dipole moment (field-independent basis, Debye):
    X=              8.2933    Y=              5.6253    Z=              1.9725  Tot=             10.2134
 Quadrupole moment (field-independent basis, Debye-Ang):
   XX=           -105.3333   YY=           -102.3053   ZZ=           -102.0797
   XY=             -5.7085   XZ=             -1.0863   YZ=             -5.2752

 Normal termination of Gaussian 16 at Fri May  7 03:21:42 2021.
