 Gaussian 16, Revision A.03,
 Gaussian 16:  EM64L-G16RevA.03 25-Dec-2016

 -------------
 #p 6-31g* mp2
 -------------

 ------------------------------------------------------
 Input file generated by CHIRIPA (05-May-2021 14:53:18)
 ------------------------------------------------------
 Symbolic Z-matrix:
 Charge =  0 Multiplicity = 1

                         Standard orientation:
 ---------------------------------------------------------------------
 Center     Atomic      Atomic             Coordinates (Angstroms)
 Number     Number       Type             X           Y           Z
 ---------------------------------------------------------------------
      1          6           0       -4.993327   -0.193094    0.011090
      2          6           0       -5.680258    0.987149    0.698939
      3          6           0       -7.162272    0.730329    0.973661
      4          1           0       -5.510517   -0.410429   -0.933487
      5          1           0       -5.100995   -1.088029    0.639495
      6          1           0       -5.570130    1.879908    0.070074
      7          1           0       -5.161254    1.201822    1.641895
      8          1           0       -7.288334   -0.144185    1.620139
      9          1           0       -7.699533    0.537753    0.039388
     10          1           0       -7.633656    1.586776    1.465754
     11          6           0       -3.511356    0.048523   -0.270180
     12          6           0       -2.824425   -1.131720   -0.958029
     13          6           0       -1.342411   -0.874900   -1.232751
     14          1           0       -3.403688    0.943459   -0.898585
     15          1           0       -2.994166    0.265858    0.674397
     16          1           0       -3.343428   -1.346393   -1.900985
     17          1           0       -2.934552   -2.024478   -0.329164
     18          1           0       -0.805150   -0.682324   -0.298478
     19          1           0       -1.216349   -0.000386   -1.879229
     20          1           0       -0.871027   -1.731347   -1.724844
     21          6           0        2.842286   -2.392133    0.475361
     22          6           0        2.150911   -1.686688   -0.515027
     23          6           0        2.408622   -0.329692   -0.731125
     24          6           0        3.368532    0.293195    0.065035
     25          6           0        4.073974   -0.382424    1.059612
     26          6           0        3.799923   -1.738902    1.258138
     27          1           0        2.635744   -3.446078    0.636406
     28          1           0        1.406662   -2.191411   -1.124447
     29          1           0        1.888035    0.240470   -1.490942
     30          1           0        4.810232    0.147942    1.651265
     31          1           0        4.338390   -2.284241    2.028011
     32          7           0        3.650008    1.729511   -0.154437
     33          8           0        4.500458    2.255284    0.560358
     34          8           0        3.014849    2.302325   -1.037101
 ---------------------------------------------------------------------

 SCF Done:  E(RHF) =  -669.534844224     A.U. after   15 cycles
 E2 =    -0.2091898353D+01 EUMP2 =    -0.67162674257716D+03

 The electronic state is 1-A.
 Alpha  occ. eigenvalues --  -20.60709 -20.60704 -15.85761 -11.31108 -11.27676
 Alpha  occ. eigenvalues --  -11.27638 -11.27405 -11.26702 -11.26617 -11.22146
 Alpha  occ. eigenvalues --  -11.21857 -11.21768 -11.21721 -11.21622 -11.21208
 Alpha  occ. eigenvalues --   -1.59784  -1.39338  -1.19280  -1.08771  -1.08678
 Alpha  occ. eigenvalues --   -1.04683  -1.03916  -0.96399  -0.95515  -0.87442
 Alpha  occ. eigenvalues --   -0.86071  -0.82349  -0.80002  -0.78547  -0.77382
 Alpha  occ. eigenvalues --   -0.71979  -0.71108  -0.70386  -0.65399  -0.64927
 Alpha  occ. eigenvalues --   -0.64704  -0.62067  -0.61300  -0.59773  -0.57988
 Alpha  occ. eigenvalues --   -0.55679  -0.55187  -0.53309  -0.53095  -0.52744
 Alpha  occ. eigenvalues --   -0.52547  -0.50300  -0.48737  -0.48735  -0.48298
 Alpha  occ. eigenvalues --   -0.46993  -0.46098  -0.45997  -0.44747  -0.44168
 Alpha  occ. eigenvalues --   -0.37268  -0.36234
 Alpha virt. eigenvalues --    0.05114   0.11367   0.16554   0.20634   0.22629
 Alpha virt. eigenvalues --    0.23948   0.25834   0.26359   0.26863   0.27966
 Alpha virt. eigenvalues --    0.28906   0.29369   0.31176   0.31605   0.32228

 Mulliken charges:
               1
     1  C   -0.298672
     2  C   -0.300113
     3  C   -0.475921
     4  H    0.150058
     5  H    0.148983
     6  H    0.153529
     7  H    0.152781
     8  H    0.154826
     9  H    0.155345
    10  H    0.161418
    11  C   -0.299639
    12  C   -0.299385
    13  C   -0.484005
    14  H    0.152609
    15  H    0.151374
    16  H    0.153622
    17  H    0.151322
    18  H    0.161846
    19  H    0.159914
    20  H    0.149937
    21  C   -0.173002
    22  C   -0.218300
    23  C   -0.172736
    24  C    0.158114
    25  C   -0.171550
    26  C   -0.218583
    27  H    0.225251
    28  H    0.228606
    29  H    0.277394
    30  H    0.275187
    31  H    0.222945
    32  N    0.488177
    33  O   -0.460803
    34  O   -0.460526
 Sum of Mulliken charges =  -0.00000

 Dipole moment (field-independent basis, Debye):
    X=             -1.1481    Y=             -5.0013    Z=              0.7922  Tot=              5.1922
 Quadrupole moment (field-independent basis, Debye-Ang):
   XX=           -100.4110   YY=            -98.3705   ZZ=            -91.6734
   XY=            -17.8668   XZ=              5.9266   YZ=             -0.6716

 Normal termination of Gaussian 16 at Thu May  6 12:21:24 2021.
