 Gaussian 16, Revision A.03,
 Gaussian 16:  EM64L-G16RevA.03 25-Dec-2016

 -------------
 #p 6-31g* mp2
 -------------

 ------------------------------------------------------
 Input file generated by CHIRIPA (05-May-2021 14:51:14)
 ------------------------------------------------------
 Symbolic Z-matrix:
 Charge =  0 Multiplicity = 1

                         Standard orientation:
 ---------------------------------------------------------------------
 Center     Atomic      Atomic             Coordinates (Angstroms)
 Number     Number       Type             X           Y           Z
 ---------------------------------------------------------------------
      1          6           0        3.304536    0.589714   -0.555603
      2          6           0        3.068868    1.904688    0.188231
      3          6           0        2.135167    2.851580   -0.566350
      4          1           0        3.723766    0.806975   -1.547564
      5          1           0        2.338447    0.094751   -0.726132
      6          1           0        4.035243    2.396354    0.358527
      7          1           0        2.650329    1.684261    1.178611
      8          1           0        1.157598    2.384412   -0.723550
      9          1           0        2.550380    3.100551   -1.548293
     10          1           0        1.980510    3.785322   -0.016743
     11          6           0        4.235904   -0.367397    0.186166
     12          6           0        4.471571   -1.682371   -0.557667
     13          6           0        5.405272   -2.629263    0.196914
     14          1           0        5.201992    0.127566    0.356696
     15          1           0        3.816673   -0.584658    1.178128
     16          1           0        4.890111   -1.461944   -1.548047
     17          1           0        3.505197   -2.174037   -0.727964
     18          1           0        4.990059   -2.878234    1.178857
     19          1           0        6.382842   -2.162095    0.354114
     20          1           0        5.559930   -3.563005   -0.352693
     21          6           0       -3.116539    0.251877    0.028708
     22          6           0       -2.074452    0.129250    1.140914
     23          6           0       -0.772181    0.860741    0.814104
     24          1           0       -2.695490   -0.145470   -0.904983
     25          1           0       -3.327342    1.315188   -0.151086
     26          1           0       -1.866700   -0.933559    1.319507
     27          1           0       -2.498100    0.526759    2.072109
     28          1           0       -0.958898    1.927916    0.656378
     29          1           0       -0.323911    0.459301   -0.100500
     30          1           0       -0.041376    0.760053    1.622588
     31          6           0       -4.423900   -0.474194    0.340728
     32          6           0       -5.465988   -0.351566   -0.771477
     33          6           0       -6.768258   -1.083058   -0.444667
     34          1           0       -4.213097   -1.537506    0.520521
     35          1           0       -4.844949   -0.076847    1.274419
     36          1           0       -5.042340   -0.749075   -1.702673
     37          1           0       -5.673739    0.711241   -0.950071
     38          1           0       -7.216528   -0.681618    0.469936
     39          1           0       -6.581541   -2.150232   -0.286942
     40          1           0       -7.499064   -0.982370   -1.253151
 ---------------------------------------------------------------------

 SCF Done:  E(RHF) =  -470.732617542     A.U. after   11 cycles
 E2 =    -0.1583406401D+01 EUMP2 =    -0.47231602394265D+03

 The electronic state is 1-A.
 Alpha  occ. eigenvalues --  -11.21662 -11.21629 -11.21571 -11.21479 -11.21451
 Alpha  occ. eigenvalues --  -11.21390 -11.21341 -11.21273 -11.21168 -11.21093
 Alpha  occ. eigenvalues --  -11.21050 -11.20850  -1.08482  -1.08354  -1.03606
 Alpha  occ. eigenvalues --   -1.03428  -0.96072  -0.95867  -0.87093  -0.86888
 Alpha  occ. eigenvalues --   -0.79691  -0.79487  -0.78299  -0.78167  -0.65122
 Alpha  occ. eigenvalues --   -0.64982  -0.61001  -0.60853  -0.59397  -0.59265
 Alpha  occ. eigenvalues --   -0.57708  -0.57469  -0.55365  -0.55180  -0.52719
 Alpha  occ. eigenvalues --   -0.52585  -0.52558  -0.52244  -0.50038  -0.49785
 Alpha  occ. eigenvalues --   -0.48065  -0.47751  -0.46694  -0.46507  -0.45881
 Alpha  occ. eigenvalues --   -0.45755  -0.45698  -0.45498  -0.43830  -0.43701
 Alpha virt. eigenvalues --    0.21141   0.22968   0.23796   0.24798   0.25825
 Alpha virt. eigenvalues --    0.26463   0.26660   0.27674   0.27963   0.29272
 Alpha virt. eigenvalues --    0.30274   0.30905   0.31368   0.31857   0.32469

 Mulliken charges:
               1
     1  C   -0.300980
     2  C   -0.299398
     3  C   -0.481505
     4  H    0.149241
     5  H    0.151586
     6  H    0.151155
     7  H    0.152700
     8  H    0.164636
     9  H    0.153469
    10  H    0.158581
    11  C   -0.298038
    12  C   -0.299546
    13  C   -0.475649
    14  H    0.149433
    15  H    0.149285
    16  H    0.151863
    17  H    0.151529
    18  H    0.155068
    19  H    0.155184
    20  H    0.160058
    21  C   -0.298566
    22  C   -0.300579
    23  C   -0.479821
    24  H    0.149620
    25  H    0.149796
    26  H    0.151832
    27  H    0.152246
    28  H    0.157642
    29  H    0.156854
    30  H    0.161802
    31  C   -0.298292
    32  C   -0.299689
    33  C   -0.475739
    34  H    0.149566
    35  H    0.149776
    36  H    0.152013
    37  H    0.152055
    38  H    0.155226
    39  H    0.155206
    40  H    0.160380
 Sum of Mulliken charges =  -0.00000

 Dipole moment (field-independent basis, Debye):
    X=             -0.0711    Y=             -0.0041    Z=              0.0129  Tot=              0.0724
 Quadrupole moment (field-independent basis, Debye-Ang):
   XX=            -85.6043   YY=            -84.8703   ZZ=            -84.5724
   XY=             -0.0543   XZ=             -0.7120   YZ=              0.6015

 Normal termination of Gaussian 16 at Wed May  5 21:39:12 2021.
