 Gaussian 16, Revision A.03,
 Gaussian 16:  EM64L-G16RevA.03 25-Dec-2016

 -------------
 #p 6-31g* mp2
 -------------

 ------------------------------------------------------
 Input file generated by CHIRIPA (05-May-2021 14:55:24)
 ------------------------------------------------------
 Symbolic Z-matrix:
 Charge =  0 Multiplicity = 1

                         Standard orientation:
 ---------------------------------------------------------------------
 Center     Atomic      Atomic             Coordinates (Angstroms)
 Number     Number       Type             X           Y           Z
 ---------------------------------------------------------------------
      1          6           0        0.261468   -1.823444    0.712166
      2          6           0        1.151804   -2.293102   -0.259042
      3          6           0        2.298784   -1.562520   -0.583441
      4          6           0        2.525406   -0.360967    0.086039
      5          6           0        1.657287    0.133396    1.058286
      6          6           0        0.516601   -0.613827    1.366576
      7          1           0       -0.627088   -2.397442    0.957909
      8          1           0        0.956215   -3.232172   -0.768882
      9          1           0        3.004769   -1.902791   -1.331250
     10          1           0        1.879132    1.073035    1.549490
     11          1           0       -0.173093   -0.246640    2.121255
     12          7           0        3.736331    0.421276   -0.248860
     13          8           0        3.913297    1.476868    0.355330
     14          8           0        4.485557   -0.036005   -1.109203
     15          6           0       -2.832136    1.291541   -0.528476
     16          6           0       -2.098911    2.294832    0.362462
     17          6           0       -1.816089    3.619279   -0.347216
     18          1           0       -2.232958    1.105313   -1.430280
     19          1           0       -3.777989    1.735991   -0.867919
     20          1           0       -1.155370    1.848097    0.701247
     21          1           0       -2.699814    2.478546    1.262340
     22          1           0       -2.750034    4.090018   -0.670873
     23          1           0       -1.196815    3.455985   -1.235155
     24          1           0       -1.291367    4.321705    0.307861
     25          6           0       -3.121992   -0.037423    0.166915
     26          6           0       -3.855217   -1.040714   -0.724023
     27          6           0       -4.138039   -2.365161   -0.014345
     28          1           0       -2.176139   -0.481873    0.506359
     29          1           0       -3.721169    0.148805    1.068719
     30          1           0       -3.254314   -1.224428   -1.623901
     31          1           0       -4.798758   -0.593978   -1.062808
     32          1           0       -4.757313   -2.201867    0.873594
     33          1           0       -3.204094   -2.835900    0.309312
     34          1           0       -4.662761   -3.067587   -0.669422
 ---------------------------------------------------------------------

 SCF Done:  E(RHF) =  -669.533804487     A.U. after   15 cycles
 E2 =    -0.2094967381D+01 EUMP2 =    -0.67162877186786D+03

 The electronic state is 1-A.
 Alpha  occ. eigenvalues --  -20.60835 -20.60829 -15.85889 -11.31292 -11.27860
 Alpha  occ. eigenvalues --  -11.27851 -11.27583 -11.26879 -11.26852 -11.22356
 Alpha  occ. eigenvalues --  -11.22073 -11.22059 -11.22051 -11.21882 -11.21349
 Alpha  occ. eigenvalues --   -1.59909  -1.39462  -1.19475  -1.09097  -1.08835
 Alpha  occ. eigenvalues --   -1.04880  -1.04156  -0.96605  -0.95693  -0.87618
 Alpha  occ. eigenvalues --   -0.86280  -0.82523  -0.80234  -0.78919  -0.77543
 Alpha  occ. eigenvalues --   -0.72107  -0.71233  -0.70606  -0.65783  -0.65122
 Alpha  occ. eigenvalues --   -0.64807  -0.62222  -0.61553  -0.59988  -0.58219
 Alpha  occ. eigenvalues --   -0.55929  -0.55367  -0.53347  -0.53191  -0.53022
 Alpha  occ. eigenvalues --   -0.52950  -0.50558  -0.48869  -0.48860  -0.48551
 Alpha  occ. eigenvalues --   -0.47275  -0.46414  -0.46319  -0.44859  -0.44387
 Alpha  occ. eigenvalues --   -0.37368  -0.36414
 Alpha virt. eigenvalues --    0.04906   0.11057   0.16197   0.19572   0.22919
 Alpha virt. eigenvalues --    0.22958   0.25841   0.25995   0.26570   0.27967
 Alpha virt. eigenvalues --    0.29753   0.30365   0.31150   0.31516   0.32003

 Mulliken charges:
               1
     1  C   -0.174664
     2  C   -0.221084
     3  C   -0.170760
     4  C    0.158136
     5  C   -0.172203
     6  C   -0.217228
     7  H    0.231945
     8  H    0.224240
     9  H    0.276080
    10  H    0.276472
    11  H    0.227385
    12  N    0.488048
    13  O   -0.459909
    14  O   -0.460150
    15  C   -0.296687
    16  C   -0.304678
    17  C   -0.476030
    18  H    0.152886
    19  H    0.151374
    20  H    0.149931
    21  H    0.150065
    22  H    0.155997
    23  H    0.158805
    24  H    0.162004
    25  C   -0.305978
    26  C   -0.300352
    27  C   -0.476408
    28  H    0.148726
    29  H    0.148365
    30  H    0.153509
    31  H    0.155902
    32  H    0.158021
    33  H    0.143816
    34  H    0.164425
 Sum of Mulliken charges =  -0.00000

 Dipole moment (field-independent basis, Debye):
    X=             -4.2598    Y=             -2.7071    Z=              1.0873  Tot=              5.1630
 Quadrupole moment (field-independent basis, Debye-Ang):
   XX=           -115.6813   YY=            -91.4794   ZZ=            -92.7339
   XY=             -7.1630   XZ=              1.7078   YZ=              2.4801

 Normal termination of Gaussian 16 at Wed May  5 22:23:54 2021.
