 Gaussian 16, Revision A.03,
 Gaussian 16:  EM64L-G16RevA.03 25-Dec-2016

 -------------
 #p 6-31g* mp2
 -------------

 ------------------------------------------------------
 Input file generated by CHIRIPA (05-May-2021 14:55:20)
 ------------------------------------------------------
 Symbolic Z-matrix:
 Charge =  0 Multiplicity = 1

                         Standard orientation:
 ---------------------------------------------------------------------
 Center     Atomic      Atomic             Coordinates (Angstroms)
 Number     Number       Type             X           Y           Z
 ---------------------------------------------------------------------
      1          6           0        0.097864   -1.145048    1.426665
      2          6           0       -0.711266   -0.108571    1.903682
      3          6           0       -1.908631    0.212381    1.257265
      4          6           0       -2.267896   -0.527063    0.131458
      5          6           0       -1.483184   -1.565338   -0.368043
      6          6           0       -0.289993   -1.868847    0.294321
      7          1           0        1.026384   -1.387597    1.935012
      8          1           0       -0.412564    0.455233    2.782856
      9          1           0       -2.553954    1.009839    1.605169
     10          1           0       -1.807421   -2.109527   -1.246762
     11          1           0        0.336404   -2.674307   -0.078378
     12          7           0       -3.533283   -0.196518   -0.561316
     13          8           0       -3.827444   -0.863030   -1.551198
     14          8           0       -4.206972    0.722817   -0.101312
     15          6           0        3.221102    0.369441    0.002555
     16          6           0        3.742291   -0.781051   -0.859253
     17          6           0        4.912856   -1.521495   -0.211706
     18          1           0        4.040909    1.074692    0.196157
     19          1           0        2.910894   -0.025197    0.980015
     20          1           0        4.050134   -0.384573   -1.835293
     21          1           0        2.921101   -1.483549   -1.050985
     22          1           0        4.614928   -1.944011    0.753344
     23          1           0        5.750375   -0.838791   -0.035421
     24          1           0        5.269739   -2.339902   -0.844718
     25          6           0        2.050822    1.119304   -0.631383
     26          6           0        1.529633    2.269796    0.230425
     27          6           0        0.359069    3.010240   -0.417122
     28          1           0        2.361030    1.513941   -1.608843
     29          1           0        1.231016    0.414052   -0.824985
     30          1           0        2.350823    2.972293    0.422157
     31          1           0        1.221790    1.873317    1.206465
     32          1           0       -0.478451    2.327536   -0.593407
     33          1           0        0.656996    3.432755   -1.382172
     34          1           0        0.002185    3.828647    0.215890
 ---------------------------------------------------------------------

 SCF Done:  E(RHF) =  -669.533102045     A.U. after   15 cycles
 E2 =    -0.2097610943D+01 EUMP2 =    -0.67163071298774D+03

 The electronic state is 1-A.
 Alpha  occ. eigenvalues --  -20.60879 -20.60874 -15.85937 -11.31369 -11.27936
 Alpha  occ. eigenvalues --  -11.27932 -11.27651 -11.26939 -11.26928 -11.22337
 Alpha  occ. eigenvalues --  -11.22048 -11.21880 -11.21816 -11.21617 -11.21201
 Alpha  occ. eigenvalues --   -1.59955  -1.39506  -1.19562  -1.09083  -1.08796
 Alpha  occ. eigenvalues --   -1.04971  -1.04009  -0.96462  -0.95745  -0.87467
 Alpha  occ. eigenvalues --   -0.86353  -0.82583  -0.80110  -0.78741  -0.77616
 Alpha  occ. eigenvalues --   -0.72151  -0.71284  -0.70670  -0.65724  -0.65195
 Alpha  occ. eigenvalues --   -0.64887  -0.62332  -0.61455  -0.59836  -0.58068
 Alpha  occ. eigenvalues --   -0.55896  -0.55340  -0.53230  -0.53145  -0.53042
 Alpha  occ. eigenvalues --   -0.52864  -0.50398  -0.48920  -0.48902  -0.48402
 Alpha  occ. eigenvalues --   -0.47173  -0.46280  -0.46143  -0.44896  -0.44253
 Alpha  occ. eigenvalues --   -0.37424  -0.36478
 Alpha virt. eigenvalues --    0.04883   0.10907   0.16257   0.19310   0.23177
 Alpha virt. eigenvalues --    0.23538   0.25029   0.26181   0.27286   0.27973
 Alpha virt. eigenvalues --    0.29073   0.30175   0.31207   0.31304   0.31890

 Mulliken charges:
               1
     1  C   -0.166955
     2  C   -0.216736
     3  C   -0.170825
     4  C    0.158397
     5  C   -0.170755
     6  C   -0.221405
     7  H    0.227912
     8  H    0.224904
     9  H    0.277082
    10  H    0.276691
    11  H    0.225392
    12  N    0.487956
    13  O   -0.459836
    14  O   -0.459611
    15  C   -0.297492
    16  C   -0.300699
    17  C   -0.475086
    18  H    0.152494
    19  H    0.137090
    20  H    0.156859
    21  H    0.145347
    22  H    0.149203
    23  H    0.158559
    24  H    0.162203
    25  C   -0.304452
    26  C   -0.297730
    27  C   -0.478590
    28  H    0.151174
    29  H    0.158990
    30  H    0.151103
    31  H    0.143967
    32  H    0.158689
    33  H    0.157296
    34  H    0.158864
 Sum of Mulliken charges =  -0.00000

 Dipole moment (field-independent basis, Debye):
    X=              4.3460    Y=             -1.1862    Z=              2.3848  Tot=              5.0973
 Quadrupole moment (field-independent basis, Debye-Ang):
   XX=           -115.7988   YY=            -91.3903   ZZ=            -92.1600
   XY=              0.5328   XZ=             -6.5407   YZ=              1.1746

 Normal termination of Gaussian 16 at Thu May  6 09:18:19 2021.
