 Gaussian 16, Revision A.03,
 Gaussian 16:  EM64L-G16RevA.03 25-Dec-2016

 -------------
 #p 6-31g* mp2
 -------------

 ------------------------------------------------------
 Input file generated by CHIRIPA (05-May-2021 14:57:27)
 ------------------------------------------------------
 Symbolic Z-matrix:
 Charge =  0 Multiplicity = 1

                         Standard orientation:
 ---------------------------------------------------------------------
 Center     Atomic      Atomic             Coordinates (Angstroms)
 Number     Number       Type             X           Y           Z
 ---------------------------------------------------------------------
      1          6           0        1.207083   -0.552780    1.353584
      2          6           0        1.490801   -1.183389    0.137707
      3          6           0        2.734721   -1.012937   -0.477238
      4          6           0        3.675804   -0.201301    0.154348
      5          6           0        3.423121    0.440376    1.365831
      6          6           0        2.172446    0.255665    1.962692
      7          1           0        0.238152   -0.690729    1.824263
      8          1           0        0.743005   -1.811807   -0.337620
      9          1           0        2.980832   -1.489323   -1.418463
     10          1           0        4.188767    1.060808    1.815573
     11          1           0        1.954880    0.746642    2.906965
     12          7           0        4.996262   -0.013303   -0.487094
     13          8           0        5.808297    0.706821    0.089670
     14          8           0        5.194198   -0.589634   -1.554474
     15          6           0       -1.609876    1.843015   -0.856098
     16          6           0       -2.799836    2.319252   -0.295997
     17          6           0       -3.830663    1.435918    0.038168
     18          6           0       -3.636863    0.076565   -0.202443
     19          6           0       -2.462901   -0.428609   -0.759132
     20          6           0       -1.445496    0.473020   -1.085473
     21          1           0       -0.814318    2.536316   -1.112646
     22          1           0       -2.930273    3.382690   -0.116744
     23          1           0       -4.762148    1.777526    0.472972
     24          1           0       -2.362136   -1.494162   -0.926049
     25          1           0       -0.522432    0.100330   -1.520329
     26          7           0       -4.721049   -0.868266    0.147181
     27          8           0       -4.525608   -2.061242   -0.074734
     28          8           0       -5.745745   -0.397956    0.636512
 ---------------------------------------------------------------------

 SCF Done:  E(RHF) =  -868.336785406     A.U. after   16 cycles
 E2 =    -0.2601654167D+01 EUMP2 =    -0.87093843957344D+03

 The electronic state is 1-A.
 Alpha  occ. eigenvalues --  -20.61439 -20.61428 -20.61335 -20.61330 -15.86491
 Alpha  occ. eigenvalues --  -15.86396 -11.31939 -11.31854 -11.28528 -11.28493
 Alpha  occ. eigenvalues --  -11.28439 -11.28437 -11.28149 -11.28144 -11.27509
 Alpha  occ. eigenvalues --  -11.27468 -11.27457 -11.27404  -1.60512  -1.60412
 Alpha  occ. eigenvalues --   -1.40063  -1.39962  -1.20105  -1.20045  -1.09475
 Alpha  occ. eigenvalues --   -1.09387  -1.05567  -1.05431  -0.96280  -0.96222
 Alpha  occ. eigenvalues --   -0.86968  -0.86779  -0.83140  -0.83044  -0.78241
 Alpha  occ. eigenvalues --   -0.78048  -0.72700  -0.72607  -0.71843  -0.71743
 Alpha  occ. eigenvalues --   -0.71151  -0.71090  -0.65789  -0.65690  -0.65654
 Alpha  occ. eigenvalues --   -0.65296  -0.63019  -0.62634  -0.55953  -0.55883
 Alpha  occ. eigenvalues --   -0.54102  -0.53738  -0.53594  -0.53315  -0.49468
 Alpha  occ. eigenvalues --   -0.49456  -0.49374  -0.49359  -0.45452  -0.45348
 Alpha  occ. eigenvalues --   -0.38385  -0.37832  -0.37253  -0.36777
 Alpha virt. eigenvalues --    0.04335   0.04418   0.10065   0.10966   0.15775
 Alpha virt. eigenvalues --    0.15840   0.19517   0.21621   0.24963   0.27333
 Alpha virt. eigenvalues --    0.27776   0.28405   0.30319   0.31093   0.31465

 Mulliken charges:
               1
     1  C   -0.166778
     2  C   -0.226478
     3  C   -0.174249
     4  C    0.158071
     5  C   -0.170263
     6  C   -0.220986
     7  H    0.232071
     8  H    0.220605
     9  H    0.276665
    10  H    0.277513
    11  H    0.226181
    12  N    0.488024
    13  O   -0.458827
    14  O   -0.459569
    15  C   -0.172876
    16  C   -0.218770
    17  C   -0.171661
    18  C    0.159199
    19  C   -0.181005
    20  C   -0.217493
    21  H    0.230270
    22  H    0.226128
    23  H    0.277446
    24  H    0.271860
    25  H    0.225729
    26  N    0.487941
    27  O   -0.460828
    28  O   -0.457917
 Sum of Mulliken charges =  -0.00000

 Dipole moment (field-independent basis, Debye):
    X=             -0.8032    Y=              2.8343    Z=              1.1407  Tot=              3.1591
 Quadrupole moment (field-independent basis, Debye-Ang):
   XX=           -165.4713   YY=            -99.9445   ZZ=           -101.0788
   XY=            -15.0876   XZ=             11.6462   YZ=              2.5882

 Normal termination of Gaussian 16 at Thu May  6 18:12:25 2021.
