 Gaussian 16, Revision A.03,
 Gaussian 16:  EM64L-G16RevA.03 25-Dec-2016

 -------------
 #p 6-31g* mp2
 -------------

 ------------------------------------------------------
 Input file generated by CHIRIPA (05-May-2021 14:51:09)
 ------------------------------------------------------
 Symbolic Z-matrix:
 Charge =  0 Multiplicity = 1

                         Standard orientation:
 ---------------------------------------------------------------------
 Center     Atomic      Atomic             Coordinates (Angstroms)
 Number     Number       Type             X           Y           Z
 ---------------------------------------------------------------------
      1          6           0        3.191310   -0.510094   -0.650009
      2          6           0        3.874870   -1.561807    0.224423
      3          6           0        3.941535   -2.934720   -0.445247
      4          1           0        2.175674   -0.849914   -0.894859
      5          1           0        3.731836   -0.428294   -1.603181
      6          1           0        3.334033   -1.640608    1.176212
      7          1           0        4.888929   -1.219356    0.467378
      8          1           0        4.499178   -2.877954   -1.385679
      9          1           0        2.935448   -3.301600   -0.672817
     10          1           0        4.433986   -3.671302    0.197248
     11          6           0        3.117014    0.867637    0.005784
     12          6           0        2.433454    1.919349   -0.868649
     13          6           0        2.366788    3.292263   -0.198979
     14          1           0        2.576488    0.785837    0.958955
     15          1           0        4.132650    1.207456    0.250633
     16          1           0        1.419395    1.576899   -1.111604
     17          1           0        2.974290    1.998151   -1.820438
     18          1           0        3.372876    3.659143    0.028592
     19          1           0        1.809145    3.235497    0.741453
     20          1           0        1.874338    4.028845   -0.841474
     21          6           0       -2.419343   -0.384160    0.358011
     22          6           0       -1.663043    0.268906    1.515379
     23          6           0       -0.194246   -0.151801    1.573959
     24          1           0       -2.352905   -1.476471    0.454908
     25          1           0       -1.924331   -0.123577   -0.587745
     26          1           0       -2.160146    0.008302    2.458560
     27          1           0       -1.731451    1.359789    1.415822
     28          1           0        0.322361    0.122888    0.648614
     29          1           0       -0.108769   -1.236277    1.697278
     30          1           0        0.327444    0.326724    2.408653
     31          6           0       -3.888981    0.026617    0.286215
     32          6           0       -4.645280   -0.626450   -0.871153
     33          6           0       -6.114078   -0.205741   -0.929734
     34          1           0       -4.383993   -0.233966    1.231970
     35          1           0       -3.955418    1.118928    0.189318
     36          1           0       -4.576872   -1.717332   -0.771596
     37          1           0       -4.148178   -0.365845   -1.814335
     38          1           0       -6.199555    0.878735   -1.053052
     39          1           0       -6.630685   -0.480432   -0.004388
     40          1           0       -6.635769   -0.684266   -1.764427
 ---------------------------------------------------------------------

 SCF Done:  E(RHF) =  -470.732220159     A.U. after   11 cycles
 E2 =    -0.1584289496D+01 EUMP2 =    -0.47231650965475D+03

 The electronic state is 1-A.
 Alpha  occ. eigenvalues --  -11.21669 -11.21634 -11.21599 -11.21531 -11.21464
 Alpha  occ. eigenvalues --  -11.21400 -11.21315 -11.21228 -11.21137 -11.21095
 Alpha  occ. eigenvalues --  -11.21067 -11.21020  -1.08500  -1.08369  -1.03598
 Alpha  occ. eigenvalues --   -1.03484  -0.96075  -0.95910  -0.87092  -0.86935
 Alpha  occ. eigenvalues --   -0.79673  -0.79548  -0.78301  -0.78185  -0.65310
 Alpha  occ. eigenvalues --   -0.64915  -0.61143  -0.60731  -0.59426  -0.59295
 Alpha  occ. eigenvalues --   -0.57657  -0.57540  -0.55487  -0.55081  -0.52762
 Alpha  occ. eigenvalues --   -0.52637  -0.52452  -0.52340  -0.50126  -0.49724
 Alpha  occ. eigenvalues --   -0.47973  -0.47872  -0.46698  -0.46584  -0.45917
 Alpha  occ. eigenvalues --   -0.45787  -0.45659  -0.45540  -0.43809  -0.43727
 Alpha virt. eigenvalues --    0.20499   0.22954   0.23856   0.25009   0.25533
 Alpha virt. eigenvalues --    0.26146   0.26967   0.27861   0.27979   0.29849
 Alpha virt. eigenvalues --    0.30683   0.30899   0.31728   0.32153   0.32243

 Mulliken charges:
               1
     1  C   -0.298999
     2  C   -0.300140
     3  C   -0.475744
     4  H    0.150152
     5  H    0.149188
     6  H    0.153286
     7  H    0.151624
     8  H    0.154932
     9  H    0.155180
    10  H    0.159947
    11  C   -0.306265
    12  C   -0.301062
    13  C   -0.475817
    14  H    0.157646
    15  H    0.150199
    16  H    0.150598
    17  H    0.152428
    18  H    0.155469
    19  H    0.155505
    20  H    0.159838
    21  C   -0.298663
    22  C   -0.299773
    23  C   -0.484559
    24  H    0.149752
    25  H    0.149054
    26  H    0.152161
    27  H    0.152214
    28  H    0.165930
    29  H    0.155285
    30  H    0.159917
    31  C   -0.298351
    32  C   -0.299725
    33  C   -0.475751
    34  H    0.149735
    35  H    0.149877
    36  H    0.151987
    37  H    0.152039
    38  H    0.155275
    39  H    0.155234
    40  H    0.160395
 Sum of Mulliken charges =  -0.00000

 Dipole moment (field-independent basis, Debye):
    X=             -0.0258    Y=             -0.0023    Z=              0.0267  Tot=              0.0372
 Quadrupole moment (field-independent basis, Debye-Ang):
   XX=            -85.1418   YY=            -85.3023   ZZ=            -84.4283
   XY=              0.7931   XZ=             -0.5955   YZ=             -0.9075

 Normal termination of Gaussian 16 at Thu May  6 00:35:22 2021.
