 Gaussian 16, Revision A.03,
 Gaussian 16:  EM64L-G16RevA.03 25-Dec-2016

 -------------
 #p 6-31g* mp2
 -------------

 ------------------------------------------------------
 Input file generated by CHIRIPA (05-May-2021 14:57:26)
 ------------------------------------------------------
 Symbolic Z-matrix:
 Charge =  0 Multiplicity = 1

                         Standard orientation:
 ---------------------------------------------------------------------
 Center     Atomic      Atomic             Coordinates (Angstroms)
 Number     Number       Type             X           Y           Z
 ---------------------------------------------------------------------
      1          6           0       -3.568078   -2.176914   -0.658535
      2          6           0       -4.590731   -1.224122   -0.604789
      3          6           0       -4.301182    0.112680   -0.315535
      4          6           0       -2.971970    0.463374   -0.084233
      5          6           0       -1.931010   -0.462660   -0.130638
      6          6           0       -2.243816   -1.793818   -0.421706
      7          1           0       -3.802040   -3.213182   -0.883939
      8          1           0       -5.620079   -1.518773   -0.788283
      9          1           0       -5.073416    0.870821   -0.267623
     10          1           0       -0.914473   -0.138731    0.056816
     11          1           0       -1.447569   -2.531617   -0.462785
     12          7           0       -2.653127    1.875599    0.222947
     13          8           0       -1.474013    2.159058    0.422893
     14          8           0       -3.588368    2.672301    0.257952
     15          6           0        4.358117    1.568737   -1.026926
     16          6           0        3.590354    1.883306    0.099177
     17          6           0        2.847486    0.894372    0.750870
     18          6           0        2.895592   -0.404577    0.247177
     19          6           0        3.650912   -0.749319   -0.872616
     20          6           0        4.385896    0.255744   -1.508379
     21          1           0        4.932134    2.343229   -1.526989
     22          1           0        3.566891    2.902141    0.475301
     23          1           0        2.244619    1.110257    1.624576
     24          1           0        3.654391   -1.773928   -1.224157
     25          1           0        4.981261    0.008547   -2.382725
     26          7           0        2.113323   -1.460055    0.928663
     27          8           0        2.172514   -2.596846    0.465155
     28          8           0        1.455804   -1.130561    1.913416
 ---------------------------------------------------------------------

 SCF Done:  E(RHF) =  -868.340330484     A.U. after   16 cycles
 E2 =    -0.2599000360D+01 EUMP2 =    -0.87093933084410D+03

 The electronic state is 1-A.
 Alpha  occ. eigenvalues --  -20.61300 -20.61270 -20.60450 -20.60437 -15.86293
 Alpha  occ. eigenvalues --  -15.85491 -11.31292 -11.30620 -11.27869 -11.27743
 Alpha  occ. eigenvalues --  -11.27500 -11.27203 -11.27095 -11.26864 -11.26794
 Alpha  occ. eigenvalues --  -11.26675 -11.26190 -11.26009  -1.60368  -1.59520
 Alpha  occ. eigenvalues --   -1.39920  -1.39081  -1.19435  -1.18768  -1.08907
 Alpha  occ. eigenvalues --   -1.08212  -1.04763  -1.04123  -0.95792  -0.95088
 Alpha  occ. eigenvalues --   -0.86188  -0.85538  -0.82624  -0.81921  -0.77713
 Alpha  occ. eigenvalues --   -0.76993  -0.72506  -0.71762  -0.71672  -0.70831
 Alpha  occ. eigenvalues --   -0.70531  -0.69880  -0.65082  -0.64759  -0.64420
 Alpha  occ. eigenvalues --   -0.64112  -0.62106  -0.61463  -0.55294  -0.54656
 Alpha  occ. eigenvalues --   -0.53129  -0.52845  -0.52481  -0.52205  -0.49290
 Alpha  occ. eigenvalues --   -0.49245  -0.48481  -0.48454  -0.45380  -0.44539
 Alpha  occ. eigenvalues --   -0.37412  -0.36753  -0.36338  -0.35707
 Alpha virt. eigenvalues --    0.04752   0.05521   0.11276   0.11940   0.16306
 Alpha virt. eigenvalues --    0.17062   0.21431   0.22039   0.27304   0.27580
 Alpha virt. eigenvalues --    0.28427   0.28782   0.31105   0.31541   0.32290

 Mulliken charges:
               1
     1  C   -0.171142
     2  C   -0.219010
     3  C   -0.172017
     4  C    0.156781
     5  C   -0.167461
     6  C   -0.220144
     7  H    0.225163
     8  H    0.221115
     9  H    0.272973
    10  H    0.273721
    11  H    0.234721
    12  N    0.488711
    13  O   -0.465208
    14  O   -0.462253
    15  C   -0.169527
    16  C   -0.216978
    17  C   -0.167663
    18  C    0.152184
    19  C   -0.171924
    20  C   -0.218831
    21  H    0.227164
    22  H    0.228868
    23  H    0.282408
    24  H    0.273153
    25  H    0.223229
    26  N    0.484664
    27  O   -0.464627
    28  O   -0.458069
 Sum of Mulliken charges =  -0.00000

 Dipole moment (field-independent basis, Debye):
    X=              1.8778    Y=             -1.1880    Z=             -3.4163  Tot=              4.0754
 Quadrupole moment (field-independent basis, Debye-Ang):
   XX=            -77.7415   YY=           -110.6933   ZZ=           -104.8124
   XY=             22.5973   XZ=             -3.9156   YZ=              4.3261

 Normal termination of Gaussian 16 at Thu May  6 21:21:27 2021.
