 Gaussian 16, Revision A.03,
 Gaussian 16:  EM64L-G16RevA.03 25-Dec-2016

 -------------
 #p 6-31g* mp2
 -------------

 ------------------------------------------------------
 Input file generated by CHIRIPA (05-May-2021 14:57:26)
 ------------------------------------------------------
 Symbolic Z-matrix:
 Charge =  0 Multiplicity = 1

                         Standard orientation:
 ---------------------------------------------------------------------
 Center     Atomic      Atomic             Coordinates (Angstroms)
 Number     Number       Type             X           Y           Z
 ---------------------------------------------------------------------
      1          6           0       -1.518645   -0.971691    0.023326
      2          6           0       -2.114122   -0.524723   -1.160797
      3          6           0       -3.425728   -0.040754   -1.157236
      4          6           0       -4.115857   -0.017827    0.053750
      5          6           0       -3.550088   -0.456147    1.250024
      6          6           0       -2.237262   -0.936040    1.222842
      7          1           0       -0.499285   -1.346067    0.011385
      8          1           0       -1.558425   -0.551246   -2.093826
      9          1           0       -3.911008    0.311455   -2.059383
     10          1           0       -4.129223   -0.417434    2.164639
     11          1           0       -1.777352   -1.282513    2.143974
     12          7           0       -5.505041    0.492371    0.070023
     13          8           0       -6.091779    0.502209    1.149966
     14          8           0       -5.980841    0.872767   -0.997475
     15          6           0        3.569293   -2.392489   -0.258443
     16          6           0        4.722183   -1.881555    0.346792
     17          6           0        4.908717   -0.501238    0.467124
     18          6           0        3.917607    0.343063   -0.031019
     19          6           0        2.758069   -0.135428   -0.639135
     20          6           0        2.592637   -1.519334   -0.748612
     21          1           0        3.432586   -3.466145   -0.347704
     22          1           0        5.482336   -2.557286    0.728368
     23          1           0        5.791641   -0.078721    0.931174
     24          1           0        2.017894    0.563167   -1.009980
     25          1           0        1.696280   -1.913305   -1.219118
     26          7           0        4.103912    1.806243    0.090625
     27          8           0        3.215898    2.528974   -0.356285
     28          8           0        5.134425    2.202646    0.630574
 ---------------------------------------------------------------------

 SCF Done:  E(RHF) =  -868.336676941     A.U. after   16 cycles
 E2 =    -0.2600071566D+01 EUMP2 =    -0.87093674850736D+03

 The electronic state is 1-A.
 Alpha  occ. eigenvalues --  -20.61438 -20.61432 -20.60969 -20.60963 -15.86502
 Alpha  occ. eigenvalues --  -15.86026 -11.32051 -11.31499 -11.28738 -11.28629
 Alpha  occ. eigenvalues --  -11.28452 -11.28091 -11.28061 -11.27927 -11.27830
 Alpha  occ. eigenvalues --  -11.27635 -11.27201 -11.27123  -1.60511  -1.60041
 Alpha  occ. eigenvalues --   -1.40059  -1.39591  -1.20268  -1.19693  -1.09618
 Alpha  occ. eigenvalues --   -1.09091  -1.05717  -1.05110  -0.96415  -0.95904
 Alpha  occ. eigenvalues --   -0.87094  -0.86520  -0.83268  -0.82724  -0.78279
 Alpha  occ. eigenvalues --   -0.77736  -0.72714  -0.72245  -0.71840  -0.71363
 Alpha  occ. eigenvalues --   -0.71354  -0.70874  -0.65920  -0.65738  -0.65359
 Alpha  occ. eigenvalues --   -0.65134  -0.63058  -0.62453  -0.56195  -0.55703
 Alpha  occ. eigenvalues --   -0.53992  -0.53789  -0.53429  -0.53218  -0.49489
 Alpha  occ. eigenvalues --   -0.49458  -0.49013  -0.48990  -0.45424  -0.44973
 Alpha  occ. eigenvalues --   -0.38239  -0.37718  -0.37313  -0.36700
 Alpha virt. eigenvalues --    0.04259   0.04801   0.10263   0.10929   0.15522
 Alpha virt. eigenvalues --    0.16247   0.18522   0.21941   0.25048   0.27012
 Alpha virt. eigenvalues --    0.27536   0.28900   0.30192   0.31316   0.31923

 Mulliken charges:
               1
     1  C   -0.174845
     2  C   -0.219289
     3  C   -0.169308
     4  C    0.159178
     5  C   -0.169740
     6  C   -0.218427
     7  H    0.221287
     8  H    0.219014
     9  H    0.277210
    10  H    0.277185
    11  H    0.225064
    12  N    0.488010
    13  O   -0.459147
    14  O   -0.459258
    15  C   -0.170543
    16  C   -0.218669
    17  C   -0.168770
    18  C    0.158849
    19  C   -0.170733
    20  C   -0.224678
    21  H    0.227972
    22  H    0.226836
    23  H    0.278902
    24  H    0.275773
    25  H    0.216492
    26  N    0.488011
    27  O   -0.458658
    28  O   -0.457717
 Sum of Mulliken charges =  -0.00000

 Dipole moment (field-independent basis, Debye):
    X=              4.3823    Y=             -6.8598    Z=             -0.3703  Tot=              8.1486
 Quadrupole moment (field-independent basis, Debye-Ang):
   XX=           -145.1549   YY=           -109.3723   ZZ=            -99.5646
   XY=            -14.1153   XZ=              0.9549   YZ=             -1.5806

 Normal termination of Gaussian 16 at Thu May  6 08:21:49 2021.
