 Gaussian 16, Revision A.03,
 Gaussian 16:  EM64L-G16RevA.03 25-Dec-2016

 -------------
 #p 6-31g* mp2
 -------------

 ------------------------------------------------------
 Input file generated by CHIRIPA (05-May-2021 14:57:27)
 ------------------------------------------------------
 Symbolic Z-matrix:
 Charge =  0 Multiplicity = 1

                         Standard orientation:
 ---------------------------------------------------------------------
 Center     Atomic      Atomic             Coordinates (Angstroms)
 Number     Number       Type             X           Y           Z
 ---------------------------------------------------------------------
      1          6           0        4.887913    1.046198   -1.128760
      2          6           0        4.550735    1.358002    0.192455
      3          6           0        3.586404    0.610091    0.874542
      4          6           0        2.976383   -0.447638    0.201954
      5          6           0        3.290694   -0.783013   -1.114110
      6          6           0        4.257927   -0.021432   -1.776684
      7          1           0        5.638155    1.632503   -1.651043
      8          1           0        5.038358    2.186585    0.698143
      9          1           0        3.306289    0.829670    1.897644
     10          1           0        2.787407   -1.614811   -1.591845
     11          1           0        4.517783   -0.265869   -2.802729
     12          7           0        1.953953   -1.246654    0.913720
     13          8           0        1.431046   -2.173595    0.298915
     14          8           0        1.694840   -0.930851    2.072929
     15          6           0       -4.053069   -2.002397   -0.492570
     16          6           0       -2.728330   -1.832666   -0.076905
     17          6           0       -2.214492   -0.552796    0.152117
     18          6           0       -3.057093    0.540080   -0.045210
     19          6           0       -4.381305    0.403524   -0.458860
     20          6           0       -4.873882   -0.885729   -0.681887
     21          1           0       -4.443974   -3.000276   -0.668151
     22          1           0       -2.088582   -2.698064    0.070927
     23          1           0       -1.192753   -0.392672    0.474341
     24          1           0       -4.994862    1.285385   -0.597741
     25          1           0       -5.903093   -1.014534   -1.004652
     26          7           0       -2.524369    1.899988    0.194072
     27          8           0       -3.287111    2.846612    0.013065
     28          8           0       -1.354166    1.993509    0.558099
 ---------------------------------------------------------------------

 SCF Done:  E(RHF) =  -868.340512929     A.U. after   16 cycles
 E2 =    -0.2598847426D+01 EUMP2 =    -0.87093936035498D+03

 The electronic state is 1-A.
 Alpha  occ. eigenvalues --  -20.61252 -20.61179 -20.60168 -20.60159 -15.86227
 Alpha  occ. eigenvalues --  -15.85208 -11.31221 -11.30355 -11.27799 -11.27718
 Alpha  occ. eigenvalues --  -11.27462 -11.26972 -11.26761 -11.26730 -11.26670
 Alpha  occ. eigenvalues --  -11.26636 -11.25976 -11.25718  -1.60290  -1.59244
 Alpha  occ. eigenvalues --   -1.39843  -1.38802  -1.19369  -1.18512  -1.08842
 Alpha  occ. eigenvalues --   -1.07963  -1.04722  -1.03851  -0.95735  -0.94827
 Alpha  occ. eigenvalues --   -0.86142  -0.85278  -0.82582  -0.81643  -0.77664
 Alpha  occ. eigenvalues --   -0.76709  -0.72454  -0.71619  -0.71420  -0.70561
 Alpha  occ. eigenvalues --   -0.70493  -0.69624  -0.65034  -0.64736  -0.64155
 Alpha  occ. eigenvalues --   -0.63837  -0.62079  -0.61174  -0.55259  -0.54415
 Alpha  occ. eigenvalues --   -0.53058  -0.52821  -0.52240  -0.51918  -0.49235
 Alpha  occ. eigenvalues --   -0.49186  -0.48197  -0.48175  -0.45320  -0.44254
 Alpha  occ. eigenvalues --   -0.37330  -0.36527  -0.36295  -0.35452
 Alpha virt. eigenvalues --    0.04820   0.05778   0.11363   0.12183   0.16376
 Alpha virt. eigenvalues --    0.17312   0.21454   0.22356   0.27409   0.28006
 Alpha virt. eigenvalues --    0.28553   0.29028   0.31079   0.31846   0.32586

 Mulliken charges:
               1
     1  C   -0.169028
     2  C   -0.217961
     3  C   -0.165792
     4  C    0.158815
     5  C   -0.170366
     6  C   -0.218442
     7  H    0.226563
     8  H    0.225516
     9  H    0.278493
    10  H    0.272851
    11  H    0.223187
    12  N    0.486548
    13  O   -0.471741
    14  O   -0.455170
    15  C   -0.171756
    16  C   -0.222224
    17  C   -0.171897
    18  C    0.157167
    19  C   -0.172500
    20  C   -0.219352
    21  H    0.223306
    22  H    0.236961
    23  H    0.283051
    24  H    0.272075
    25  H    0.219797
    26  N    0.488017
    27  O   -0.464082
    28  O   -0.462035
 Sum of Mulliken charges =  -0.00000

 Dipole moment (field-independent basis, Debye):
    X=              2.1348    Y=             -1.9750    Z=             -3.2334  Tot=              4.3489
 Quadrupole moment (field-independent basis, Debye-Ang):
   XX=            -69.0719   YY=           -111.3590   ZZ=           -103.0414
   XY=             19.9542   XZ=             -2.4319   YZ=              3.5476

 Normal termination of Gaussian 16 at Thu May  6 03:38:36 2021.
