 Gaussian 16, Revision A.03,
 Gaussian 16:  EM64L-G16RevA.03 25-Dec-2016

 -------------
 #p 6-31g* mp2
 -------------

 ------------------------------------------------------
 Input file generated by CHIRIPA (05-May-2021 14:53:17)
 ------------------------------------------------------
 Symbolic Z-matrix:
 Charge =  0 Multiplicity = 1

                         Standard orientation:
 ---------------------------------------------------------------------
 Center     Atomic      Atomic             Coordinates (Angstroms)
 Number     Number       Type             X           Y           Z
 ---------------------------------------------------------------------
      1          6           0        3.444068    0.884065   -0.247388
      2          6           0        3.533069    2.037524    0.752410
      3          6           0        3.044385    3.363958    0.169697
      4          1           0        4.034594    1.134045   -1.139427
      5          1           0        2.402794    0.777308   -0.581674
      6          1           0        4.573621    2.141183    1.085758
      7          1           0        2.942418    1.784688    1.642253
      8          1           0        1.999178    3.284178   -0.146183
      9          1           0        3.639650    3.642699   -0.705840
     10          1           0        3.116761    4.174778    0.901266
     11          6           0        3.929048   -0.448630    0.320456
     12          6           0        3.840047   -1.602089   -0.679342
     13          6           0        4.328731   -2.928523   -0.096629
     14          1           0        4.970322   -0.341872    0.654742
     15          1           0        3.338521   -0.698609    1.212495
     16          1           0        4.430698   -1.349252   -1.569185
     17          1           0        2.799494   -1.705748   -1.012691
     18          1           0        3.733465   -3.207263    0.778907
     19          1           0        5.373937   -2.848743    0.219251
     20          1           0        4.256354   -3.739342   -0.828198
     21          6           0       -0.399230   -0.623959   -0.099934
     22          6           0       -1.272243   -1.586130    0.418327
     23          6           0       -2.648700   -1.345431    0.462824
     24          6           0       -3.119967   -0.126214   -0.021640
     25          6           0       -2.275605    0.852316   -0.543965
     26          6           0       -0.902809    0.590053   -0.578582
     27          1           0        0.668612   -0.819315   -0.130664
     28          1           0       -0.883974   -2.529842    0.790753
     29          1           0       -3.347006   -2.072758    0.858780
     30          1           0       -2.692338    1.783633   -0.907833
     31          1           0       -0.227169    1.339128   -0.981623
     32          7           0       -4.575222    0.140017    0.020238
     33          8           0       -4.965346    1.222104   -0.412809
     34          8           0       -5.298171   -0.738438    0.485315
 ---------------------------------------------------------------------

 SCF Done:  E(RHF) =  -669.534866336     A.U. after   15 cycles
 E2 =    -0.2092797946D+01 EUMP2 =    -0.67162766428159D+03

 The electronic state is 1-A.
 Alpha  occ. eigenvalues --  -20.60742 -20.60737 -15.85796 -11.31162 -11.27734
 Alpha  occ. eigenvalues --  -11.27730 -11.27430 -11.26745 -11.26734 -11.22833
 Alpha  occ. eigenvalues --  -11.22687 -11.22594 -11.22567 -11.22085 -11.22015
 Alpha  occ. eigenvalues --   -1.59818  -1.39371  -1.19334  -1.09632  -1.08725
 Alpha  occ. eigenvalues --   -1.04740  -1.04616  -0.97063  -0.95566  -0.88070
 Alpha  occ. eigenvalues --   -0.86140  -0.82403  -0.80679  -0.79450  -0.77445
 Alpha  occ. eigenvalues --   -0.72014  -0.71141  -0.70526  -0.66292  -0.64984
 Alpha  occ. eigenvalues --   -0.64710  -0.62161  -0.61959  -0.60417  -0.58665
 Alpha  occ. eigenvalues --   -0.56408  -0.55196  -0.53701  -0.53471  -0.53065
 Alpha  occ. eigenvalues --   -0.52835  -0.51021  -0.48989  -0.48770  -0.48768
 Alpha  occ. eigenvalues --   -0.47734  -0.46942  -0.46895  -0.44895  -0.44777
 Alpha  occ. eigenvalues --   -0.37309  -0.36344
 Alpha virt. eigenvalues --    0.05080   0.11284   0.16528   0.18119   0.21493
 Alpha virt. eigenvalues --    0.23383   0.25158   0.25793   0.26212   0.27749
 Alpha virt. eigenvalues --    0.29428   0.30561   0.30830   0.31357   0.32202

 Mulliken charges:
               1
     1  C   -0.302156
     2  C   -0.300681
     3  C   -0.476259
     4  H    0.155230
     5  H    0.139196
     6  H    0.156423
     7  H    0.154253
     8  H    0.149854
     9  H    0.157822
    10  H    0.165648
    11  C   -0.302174
    12  C   -0.304019
    13  C   -0.475876
    14  H    0.156498
    15  H    0.148269
    16  H    0.157839
    17  H    0.144334
    18  H    0.153591
    19  H    0.159598
    20  H    0.163797
    21  C   -0.179817
    22  C   -0.220984
    23  C   -0.170518
    24  C    0.158262
    25  C   -0.170583
    26  C   -0.225027
    27  H    0.239407
    28  H    0.223472
    29  H    0.275498
    30  H    0.275688
    31  H    0.226364
    32  N    0.487956
    33  O   -0.460431
    34  O   -0.460471
 Sum of Mulliken charges =  -0.00000

 Dipole moment (field-independent basis, Debye):
    X=              5.4444    Y=             -0.8992    Z=             -0.1043  Tot=              5.5192
 Quadrupole moment (field-independent basis, Debye-Ang):
   XX=           -124.9666   YY=            -91.1493   ZZ=            -94.5723
   XY=              3.6875   XZ=             -0.3368   YZ=             -1.7955

 Normal termination of Gaussian 16 at Thu May  6 15:36:56 2021.
