 Gaussian 16, Revision A.03,
 Gaussian 16:  EM64L-G16RevA.03 25-Dec-2016

 -------------
 #p 6-31g* mp2
 -------------

 ------------------------------------------------------
 Input file generated by CHIRIPA (05-May-2021 14:51:09)
 ------------------------------------------------------
 Symbolic Z-matrix:
 Charge =  0 Multiplicity = 1

                         Standard orientation:
 ---------------------------------------------------------------------
 Center     Atomic      Atomic             Coordinates (Angstroms)
 Number     Number       Type             X           Y           Z
 ---------------------------------------------------------------------
      1          6           0       -3.925476   -0.397975    0.428737
      2          6           0       -3.247687   -1.640776   -0.149218
      3          6           0       -3.665057   -2.927304    0.563834
      4          1           0       -3.685122   -0.320801    1.497951
      5          1           0       -5.015572   -0.518558    0.361326
      6          1           0       -2.159180   -1.517288   -0.082001
      7          1           0       -3.489526   -1.714895   -1.217224
      8          1           0       -4.746647   -3.077705    0.485442
      9          1           0       -3.408742   -2.878975    1.627115
     10          1           0       -3.168737   -3.803295    0.134688
     11          6           0       -3.518307    0.896076   -0.273669
     12          6           0       -4.196096    2.138878    0.304286
     13          6           0       -3.778726    3.425406   -0.408766
     14          1           0       -2.428211    1.016660   -0.206258
     15          1           0       -3.758661    0.818903   -1.342884
     16          1           0       -3.954257    2.212996    1.372291
     17          1           0       -5.284603    2.015390    0.237068
     18          1           0       -4.035041    3.377077   -1.472048
     19          1           0       -2.697136    3.575806   -0.330374
     20          1           0       -4.275046    4.301397    0.020380
     21          6           0        4.065400    0.405261    0.115622
     22          6           0        5.591811    0.318269    0.093586
     23          6           0        6.264643    1.635089    0.482274
     24          1           0        3.739916    1.200889   -0.568469
     25          1           0        3.736559    0.703400    1.120795
     26          1           0        5.917602    0.019039   -0.910873
     27          1           0        5.913689   -0.477373    0.777665
     28          1           0        5.968225    1.935682    1.492413
     29          1           0        5.972161    2.434915   -0.205719
     30          1           0        7.355600    1.550412    0.459909
     31          6           0        3.378383   -0.903363   -0.270690
     32          6           0        1.851972   -0.816371   -0.248653
     33          6           0        1.179140   -2.133190   -0.637342
     34          1           0        3.707223   -1.201501   -1.275864
     35          1           0        3.703867   -1.698991    0.413401
     36          1           0        1.530094   -0.020729   -0.932732
     37          1           0        1.526181   -0.517140    0.755806
     38          1           0        1.471622   -2.933016    0.050650
     39          1           0        1.475557   -2.433784   -1.647482
     40          1           0        0.088183   -2.048513   -0.614977
 ---------------------------------------------------------------------

 SCF Done:  E(RHF) =  -470.733366420     A.U. after   11 cycles
 E2 =    -0.1582461953D+01 EUMP2 =    -0.47231582837232D+03

 The electronic state is 1-A.
 Alpha  occ. eigenvalues --  -11.21627 -11.21612 -11.21607 -11.21600 -11.21420
 Alpha  occ. eigenvalues --  -11.21406 -11.21361 -11.21347 -11.21080 -11.21070
 Alpha  occ. eigenvalues --  -11.21068 -11.21059  -1.08448  -1.08431  -1.03555
 Alpha  occ. eigenvalues --   -1.03521  -0.95999  -0.95970  -0.87020  -0.86983
 Alpha  occ. eigenvalues --   -0.79641  -0.79565  -0.78258  -0.78250  -0.65077
 Alpha  occ. eigenvalues --   -0.65069  -0.60964  -0.60932  -0.59467  -0.59249
 Alpha  occ. eigenvalues --   -0.57668  -0.57524  -0.55278  -0.55260  -0.52734
 Alpha  occ. eigenvalues --   -0.52647  -0.52441  -0.52379  -0.49929  -0.49916
 Alpha  occ. eigenvalues --   -0.48030  -0.47817  -0.46639  -0.46615  -0.45801
 Alpha  occ. eigenvalues --   -0.45782  -0.45725  -0.45707  -0.43809  -0.43737
 Alpha virt. eigenvalues --    0.21486   0.23072   0.23569   0.24689   0.26201
 Alpha virt. eigenvalues --    0.26640   0.27034   0.27457   0.28025   0.28845
 Alpha virt. eigenvalues --    0.30332   0.31404   0.31583   0.31831   0.32056

 Mulliken charges:
               1
     1  C   -0.297445
     2  C   -0.308384
     3  C   -0.475437
     4  H    0.149577
     5  H    0.149627
     6  H    0.159221
     7  H    0.152074
     8  H    0.155287
     9  H    0.155102
    10  H    0.160762
    11  C   -0.298600
    12  C   -0.299628
    13  C   -0.475755
    14  H    0.149800
    15  H    0.149612
    16  H    0.151956
    17  H    0.151927
    18  H    0.155124
    19  H    0.155313
    20  H    0.160244
    21  C   -0.298289
    22  C   -0.299673
    23  C   -0.475720
    24  H    0.149676
    25  H    0.149389
    26  H    0.151998
    27  H    0.151965
    28  H    0.155151
    29  H    0.155214
    30  H    0.160307
    31  C   -0.298265
    32  C   -0.299321
    33  C   -0.484238
    34  H    0.149727
    35  H    0.149729
    36  H    0.151965
    37  H    0.151236
    38  H    0.155201
    39  H    0.155506
    40  H    0.168068
 Sum of Mulliken charges =  -0.00000

 Dipole moment (field-independent basis, Debye):
    X=             -0.0054    Y=             -0.0046    Z=             -0.0038  Tot=              0.0080
 Quadrupole moment (field-independent basis, Debye-Ang):
   XX=            -84.6197   YY=            -86.4938   ZZ=            -83.5979
   XY=             -0.6496   XZ=              0.4312   YZ=             -0.0202

 Normal termination of Gaussian 16 at Thu May  6 03:45:22 2021.
