 Gaussian 16, Revision A.03,
 Gaussian 16:  EM64L-G16RevA.03 25-Dec-2016

 -------------
 #p 6-31g* mp2
 -------------

 ------------------------------------------------------
 Input file generated by CHIRIPA (05-May-2021 14:53:12)
 ------------------------------------------------------
 Symbolic Z-matrix:
 Charge =  0 Multiplicity = 1

                         Standard orientation:
 ---------------------------------------------------------------------
 Center     Atomic      Atomic             Coordinates (Angstroms)
 Number     Number       Type             X           Y           Z
 ---------------------------------------------------------------------
      1          6           0        3.703678    0.871838   -0.586710
      2          6           0        2.282895    1.091494   -0.066027
      3          6           0        1.462667    2.021495   -0.960521
      4          1           0        4.210614    1.842827   -0.671210
      5          1           0        3.654222    0.455613   -1.602439
      6          1           0        2.335012    1.505888    0.948950
      7          1           0        1.779346    0.119851    0.017426
      8          1           0        1.380982    1.610127   -1.971810
      9          1           0        1.939805    3.004039   -1.034993
     10          1           0        0.450424    2.164654   -0.569715
     11          6           0        4.536052   -0.055663    0.296820
     12          6           0        5.956835   -0.275319   -0.223863
     13          6           0        6.777063   -1.205320    0.670631
     14          1           0        4.585508    0.360562    1.312549
     15          1           0        4.029116   -1.026652    0.381320
     16          1           0        6.460384    0.696324   -0.307316
     17          1           0        5.904718   -0.689713   -1.238840
     18          1           0        6.299925   -2.187864    0.745103
     19          1           0        6.858748   -0.793952    1.681920
     20          1           0        7.789306   -1.348478    0.279825
     21          6           0       -5.649945    0.352739    0.052316
     22          6           0       -4.805037    0.871219    1.039145
     23          6           0       -3.456202    0.506103    1.082512
     24          6           0       -2.983596   -0.383742    0.119128
     25          6           0       -3.800319   -0.917458   -0.876563
     26          6           0       -5.145778   -0.538375   -0.900707
     27          1           0       -6.696442    0.641794    0.026095
     28          1           0       -5.193833    1.563454    1.780558
     29          1           0       -2.779974    0.892370    1.835461
     30          1           0       -3.383797   -1.605555   -1.602131
     31          1           0       -5.799625   -0.942618   -1.668247
     32          7           0       -1.557430   -0.777667    0.154864
     33          8           0       -1.165507   -1.563274   -0.705284
     34          8           0       -0.858531   -0.293360    1.042344
 ---------------------------------------------------------------------

 SCF Done:  E(RHF) =  -669.536528192     A.U. after   15 cycles
 E2 =    -0.2091666203D+01 EUMP2 =    -0.67162819439471D+03

 The electronic state is 1-A.
 Alpha  occ. eigenvalues --  -20.61048 -20.61027 -15.86039 -11.31335 -11.27890
 Alpha  occ. eigenvalues --  -11.27886 -11.27622 -11.26890 -11.26880 -11.20734
 Alpha  occ. eigenvalues --  -11.20330 -11.20288 -11.20133 -11.19900 -11.19825
 Alpha  occ. eigenvalues --   -1.60080  -1.39637  -1.19496  -1.08908  -1.07258
 Alpha  occ. eigenvalues --   -1.04887  -1.02368  -0.95755  -0.94890  -0.86289
 Alpha  occ. eigenvalues --   -0.85920  -0.82589  -0.78449  -0.77648  -0.77009
 Alpha  occ. eigenvalues --   -0.72254  -0.71386  -0.70605  -0.65152  -0.64892
 Alpha  occ. eigenvalues --   -0.63893  -0.62235  -0.59768  -0.58268  -0.56467
 Alpha  occ. eigenvalues --   -0.55393  -0.54203  -0.53218  -0.52979  -0.51620
 Alpha  occ. eigenvalues --   -0.51307  -0.49112  -0.49022  -0.48821  -0.46746
 Alpha  occ. eigenvalues --   -0.45469  -0.45047  -0.44573  -0.44364  -0.42640
 Alpha  occ. eigenvalues --   -0.37472  -0.36486
 Alpha virt. eigenvalues --    0.04864   0.11167   0.16355   0.21298   0.23970
 Alpha virt. eigenvalues --    0.25362   0.27223   0.27816   0.28126   0.28766
 Alpha virt. eigenvalues --    0.28980   0.30858   0.32206   0.32478   0.32907

 Mulliken charges:
               1
     1  C   -0.298318
     2  C   -0.302775
     3  C   -0.475335
     4  H    0.143083
     5  H    0.147334
     6  H    0.146904
     7  H    0.179399
     8  H    0.152468
     9  H    0.147305
    10  H    0.156867
    11  C   -0.297899
    12  C   -0.298707
    13  C   -0.475101
    14  H    0.147444
    15  H    0.154083
    16  H    0.149210
    17  H    0.150789
    18  H    0.155544
    19  H    0.153818
    20  H    0.157161
    21  C   -0.170446
    22  C   -0.218506
    23  C   -0.170896
    24  C    0.158665
    25  C   -0.170591
    26  C   -0.218567
    27  H    0.226169
    28  H    0.224020
    29  H    0.275983
    30  H    0.275886
    31  H    0.223972
    32  N    0.488668
    33  O   -0.459592
    34  O   -0.458040
 Sum of Mulliken charges =  -0.00000

 Dipole moment (field-independent basis, Debye):
    X=             -5.3935    Y=              1.1971    Z=             -0.0460  Tot=              5.5249
 Quadrupole moment (field-independent basis, Debye-Ang):
   XX=            -66.8732   YY=            -94.9775   ZZ=            -92.0319
   XY=             -1.5113   XZ=              0.3912   YZ=              3.9926

 Normal termination of Gaussian 16 at Thu May  6 08:54:00 2021.
