 Gaussian 16, Revision A.03,
 Gaussian 16:  EM64L-G16RevA.03 25-Dec-2016

 -------------
 #p 6-31g* mp2
 -------------

 ------------------------------------------------------
 Input file generated by CHIRIPA (05-May-2021 14:53:12)
 ------------------------------------------------------
 Symbolic Z-matrix:
 Charge =  0 Multiplicity = 1

                         Standard orientation:
 ---------------------------------------------------------------------
 Center     Atomic      Atomic             Coordinates (Angstroms)
 Number     Number       Type             X           Y           Z
 ---------------------------------------------------------------------
      1          6           0        4.362562   -0.588543   -0.126130
      2          6           0        5.487987    0.357312   -0.546557
      3          6           0        6.598041   -0.352604   -1.322182
      4          1           0        4.781949   -1.396913    0.488361
      5          1           0        3.939040   -1.064155   -1.021573
      6          1           0        5.908338    0.832042    0.349296
      7          1           0        5.065842    1.163630   -1.159959
      8          1           0        6.198979   -0.811882   -2.232354
      9          1           0        7.046261   -1.145353   -0.714524
     10          1           0        7.392212    0.342129   -1.612868
     11          6           0        3.245395    0.106441    0.650184
     12          6           0        2.119970   -0.839414    1.070612
     13          6           0        1.009915   -0.129498    1.846236
     14          1           0        3.668917    0.582053    1.545627
     15          1           0        2.826008    0.914810    0.035694
     16          1           0        2.542115   -1.645732    1.684013
     17          1           0        1.699619   -1.314144    0.174758
     18          1           0        0.561695    0.663251    1.238578
     19          1           0        1.408978    0.329779    2.756409
     20          1           0        0.215745   -0.824232    2.136923
     21          6           0       -1.966024    2.487865    0.052815
     22          6           0       -2.081806    1.646038    1.163869
     23          6           0       -2.637506    0.369875    1.032896
     24          6           0       -3.069099   -0.033990   -0.229605
     25          6           0       -2.967292    0.781603   -1.355541
     26          6           0       -2.408357    2.053726   -1.201134
     27          1           0       -1.533087    3.477651    0.163659
     28          1           0       -1.739128    1.980543    2.138919
     29          1           0       -2.739098   -0.302258    1.876304
     30          1           0       -3.317773    0.420203   -2.314693
     31          1           0       -2.319691    2.705360   -2.065748
     32          7           0       -3.659105   -1.382868   -0.380664
     33          8           0       -4.031840   -1.715078   -1.503760
     34          8           0       -3.737648   -2.082369    0.626891
 ---------------------------------------------------------------------

 SCF Done:  E(RHF) =  -669.534447034     A.U. after   15 cycles
 E2 =    -0.2092558229D+01 EUMP2 =    -0.67162700526268D+03

 The electronic state is 1-A.
 Alpha  occ. eigenvalues --  -20.60787 -20.60782 -15.85840 -11.31211 -11.27760
 Alpha  occ. eigenvalues --  -11.27744 -11.27508 -11.26802 -11.26756 -11.21795
 Alpha  occ. eigenvalues --  -11.21782 -11.21630 -11.21541 -11.21315 -11.21220
 Alpha  occ. eigenvalues --   -1.59862  -1.39415  -1.19384  -1.08783  -1.08632
 Alpha  occ. eigenvalues --   -1.04791  -1.03729  -0.96202  -0.95610  -0.87233
 Alpha  occ. eigenvalues --   -0.86181  -0.82441  -0.79809  -0.78449  -0.77482
 Alpha  occ. eigenvalues --   -0.72058  -0.71185  -0.70486  -0.65267  -0.65032
 Alpha  occ. eigenvalues --   -0.64788  -0.62134  -0.61140  -0.59564  -0.57807
 Alpha  occ. eigenvalues --   -0.55568  -0.55282  -0.53309  -0.52919  -0.52769
 Alpha  occ. eigenvalues --   -0.52515  -0.50099  -0.48817  -0.48813  -0.48118
 Alpha  occ. eigenvalues --   -0.46823  -0.45994  -0.45911  -0.44819  -0.44002
 Alpha  occ. eigenvalues --   -0.37358  -0.36276
 Alpha virt. eigenvalues --    0.05034   0.11175   0.16507   0.21133   0.22679
 Alpha virt. eigenvalues --    0.24088   0.26420   0.26493   0.27210   0.28035
 Alpha virt. eigenvalues --    0.28500   0.30297   0.31201   0.31463   0.31908

 Mulliken charges:
               1
     1  C   -0.298573
     2  C   -0.299537
     3  C   -0.475823
     4  H    0.150907
     5  H    0.150830
     6  H    0.151519
     7  H    0.150535
     8  H    0.155836
     9  H    0.155977
    10  H    0.160170
    11  C   -0.298233
    12  C   -0.298971
    13  C   -0.482159
    14  H    0.148412
    15  H    0.147066
    16  H    0.153539
    17  H    0.154995
    18  H    0.158802
    19  H    0.150689
    20  H    0.159758
    21  C   -0.173024
    22  C   -0.217241
    23  C   -0.167034
    24  C    0.158007
    25  C   -0.171746
    26  C   -0.218160
    27  H    0.225843
    28  H    0.225870
    29  H    0.275488
    30  H    0.275501
    31  H    0.223445
    32  N    0.488084
    33  O   -0.460351
    34  O   -0.460420
 Sum of Mulliken charges =  -0.00000

 Dipole moment (field-independent basis, Debye):
    X=              2.0659    Y=              4.7314    Z=              0.5109  Tot=              5.1880
 Quadrupole moment (field-independent basis, Debye-Ang):
   XX=           -108.7959   YY=            -95.6678   ZZ=            -89.9407
   XY=            -14.8309   XZ=             -0.5831   YZ=             -2.4276

 Normal termination of Gaussian 16 at Wed May  5 21:44:15 2021.
