 Gaussian 16, Revision A.03,
 Gaussian 16:  EM64L-G16RevA.03 25-Dec-2016

 -------------
 #p 6-31g* mp2
 -------------

 ------------------------------------------------------
 Input file generated by CHIRIPA (05-May-2021 14:55:22)
 ------------------------------------------------------
 Symbolic Z-matrix:
 Charge =  0 Multiplicity = 1

                         Standard orientation:
 ---------------------------------------------------------------------
 Center     Atomic      Atomic             Coordinates (Angstroms)
 Number     Number       Type             X           Y           Z
 ---------------------------------------------------------------------
      1          6           0        4.450581   -0.702272   -1.204642
      2          6           0        4.544420    0.362519   -0.302459
      3          6           0        3.460131    0.699771    0.513093
      4          6           0        2.291944   -0.052423    0.399811
      5          6           0        2.167579   -1.118856   -0.489314
      6          6           0        3.264551   -1.438264   -1.295031
      7          1           0        5.297809   -0.957327   -1.834363
      8          1           0        5.464259    0.935849   -0.230114
      9          1           0        3.505539    1.519196    1.220129
     10          1           0        1.237497   -1.671953   -0.538797
     11          1           0        3.188819   -2.265709   -1.994777
     12          7           0        1.137342    0.295165    1.257994
     13          8           0        0.119263   -0.383076    1.139083
     14          8           0        1.272307    1.239264    2.033299
     15          6           0       -3.213241    0.882137   -0.151812
     16          6           0       -2.524554    1.786634   -1.174348
     17          6           0       -2.605005    3.267542   -0.802555
     18          1           0       -4.266118    1.181298   -0.057491
     19          1           0       -2.754181    1.039077    0.834103
     20          1           0       -2.983852    1.627021   -2.158313
     21          1           0       -1.473241    1.485161   -1.266387
     22          1           0       -2.129418    3.447717    0.166958
     23          1           0       -3.648612    3.590383   -0.730034
     24          1           0       -2.106409    3.896035   -1.547040
     25          6           0       -3.141283   -0.601279   -0.509621
     26          6           0       -3.829970   -1.505776    0.512915
     27          6           0       -3.749520   -2.986685    0.141121
     28          1           0       -3.600343   -0.758220   -1.495536
     29          1           0       -2.088405   -0.900440   -0.603943
     30          1           0       -4.881284   -1.204303    0.604954
     31          1           0       -3.370673   -1.346164    1.496879
     32          1           0       -2.705912   -3.309526    0.068601
     33          1           0       -4.225106   -3.166860   -0.828392
     34          1           0       -4.248114   -3.615178    0.885607
 ---------------------------------------------------------------------

 SCF Done:  E(RHF) =  -669.536566014     A.U. after   15 cycles
 E2 =    -0.2092043325D+01 EUMP2 =    -0.67162860933885D+03

 The electronic state is 1-A.
 Alpha  occ. eigenvalues --  -20.61094 -20.61082 -15.86106 -11.31370 -11.27928
 Alpha  occ. eigenvalues --  -11.27920 -11.27650 -11.26919 -11.26909 -11.20653
 Alpha  occ. eigenvalues --  -11.20510 -11.20292 -11.20201 -11.20179 -11.20090
 Alpha  occ. eigenvalues --   -1.60140  -1.39699  -1.19532  -1.08947  -1.07294
 Alpha  occ. eigenvalues --   -1.04919  -1.02548  -0.95800  -0.94992  -0.86323
 Alpha  occ. eigenvalues --   -0.86026  -0.82637  -0.78612  -0.77706  -0.77106
 Alpha  occ. eigenvalues --   -0.72343  -0.71449  -0.70641  -0.65198  -0.64922
 Alpha  occ. eigenvalues --   -0.63852  -0.62268  -0.59932  -0.58385  -0.56626
 Alpha  occ. eigenvalues --   -0.55426  -0.54259  -0.53252  -0.53011  -0.51756
 Alpha  occ. eigenvalues --   -0.51450  -0.49147  -0.49076  -0.48889  -0.46949
 Alpha  occ. eigenvalues --   -0.45616  -0.45215  -0.44606  -0.44446  -0.42750
 Alpha  occ. eigenvalues --   -0.37506  -0.36516
 Alpha virt. eigenvalues --    0.04803   0.11131   0.16280   0.20996   0.23736
 Alpha virt. eigenvalues --    0.25069   0.26317   0.27458   0.28326   0.28810
 Alpha virt. eigenvalues --    0.29080   0.31079   0.31826   0.32553   0.32781

 Mulliken charges:
               1
     1  C   -0.170346
     2  C   -0.218550
     3  C   -0.170597
     4  C    0.157735
     5  C   -0.170845
     6  C   -0.218570
     7  H    0.226367
     8  H    0.224135
     9  H    0.275998
    10  H    0.276002
    11  H    0.224382
    12  N    0.491259
    13  O   -0.463585
    14  O   -0.458345
    15  C   -0.299732
    16  C   -0.297425
    17  C   -0.476751
    18  H    0.143036
    19  H    0.166841
    20  H    0.145889
    21  H    0.148687
    22  H    0.161503
    23  H    0.152654
    24  H    0.154627
    25  C   -0.298758
    26  C   -0.300375
    27  C   -0.474627
    28  H    0.140010
    29  H    0.158990
    30  H    0.147164
    31  H    0.162492
    32  H    0.152615
    33  H    0.150560
    34  H    0.157559
 Sum of Mulliken charges =  -0.00000

 Dipole moment (field-independent basis, Debye):
    X=              4.3884    Y=             -1.2013    Z=             -2.7943  Tot=              5.3394
 Quadrupole moment (field-independent basis, Debye-Ang):
   XX=            -75.1785   YY=            -94.0552   ZZ=            -96.8998
   XY=             -1.0693   XZ=             -4.5044   YZ=              1.5766

 Normal termination of Gaussian 16 at Thu May  6 04:40:42 2021.
