 Gaussian 16, Revision A.03,
 Gaussian 16:  EM64L-G16RevA.03 25-Dec-2016

 -------------
 #p 6-31g* mp2
 -------------

 ------------------------------------------------------
 Input file generated by CHIRIPA (05-May-2021 14:55:22)
 ------------------------------------------------------
 Symbolic Z-matrix:
 Charge =  0 Multiplicity = 1

                         Standard orientation:
 ---------------------------------------------------------------------
 Center     Atomic      Atomic             Coordinates (Angstroms)
 Number     Number       Type             X           Y           Z
 ---------------------------------------------------------------------
      1          6           0       -0.322599   -0.459375    1.907751
      2          6           0       -0.214600   -1.142930    0.692181
      3          6           0       -1.269322   -1.130720   -0.225403
      4          6           0       -2.422702   -0.421614    0.106521
      5          6           0       -2.560565    0.269232    1.309440
      6          6           0       -1.493173    0.243286    2.211964
      7          1           0        0.501655   -0.474195    2.614703
      8          1           0        0.693291   -1.689460    0.453259
      9          1           0       -1.212413   -1.651255   -1.173676
     10          1           0       -3.478159    0.805243    1.519515
     11          1           0       -1.579845    0.775050    3.155235
     12          7           0       -3.545995   -0.401417   -0.856913
     13          8           0       -4.551518    0.230733   -0.540769
     14          8           0       -3.399640   -1.018120   -1.909954
     15          6           0        2.558874    1.157374   -0.002014
     16          6           0        1.775685    2.051839   -0.963541
     17          6           0        1.171118    3.274936   -0.273379
     18          1           0        1.893730    0.831015    0.809169
     19          1           0        3.358339    1.747142    0.467478
     20          1           0        0.978803    1.460203   -1.432116
     21          1           0        2.442720    2.375951   -1.772634
     22          1           0        1.956229    3.889114    0.179374
     23          1           0        0.483995    2.968164    0.521827
     24          1           0        0.615664    3.900468   -0.979099
     25          6           0        3.169306   -0.069519   -0.677170
     26          6           0        3.952493   -0.963985    0.284357
     27          6           0        4.557060   -2.187083   -0.405805
     28          1           0        2.369840   -0.659288   -1.146661
     29          1           0        3.834448    0.256840   -1.488354
     30          1           0        3.285458   -1.288096    1.093450
     31          1           0        4.749375   -0.372348    0.752932
     32          1           0        5.244183   -1.880309   -1.201012
     33          1           0        3.771949   -2.801261   -0.858558
     34          1           0        5.112515   -2.812613    0.299916
 ---------------------------------------------------------------------

 SCF Done:  E(RHF) =  -669.534051612     A.U. after   15 cycles
 E2 =    -0.2095465228D+01 EUMP2 =    -0.67162951684006D+03

 The electronic state is 1-A.
 Alpha  occ. eigenvalues --  -20.60839 -20.60833 -15.85894 -11.31301 -11.27875
 Alpha  occ. eigenvalues --  -11.27869 -11.27613 -11.26905 -11.26865 -11.22587
 Alpha  occ. eigenvalues --  -11.22165 -11.21947 -11.21899 -11.21874 -11.21342
 Alpha  occ. eigenvalues --   -1.59914  -1.39466  -1.19488  -1.09162  -1.08839
 Alpha  occ. eigenvalues --   -1.04891  -1.04147  -0.96589  -0.95703  -0.87604
 Alpha  occ. eigenvalues --   -0.86294  -0.82533  -0.80246  -0.78906  -0.77571
 Alpha  occ. eigenvalues --   -0.72113  -0.71237  -0.70607  -0.66060  -0.65133
 Alpha  occ. eigenvalues --   -0.64685  -0.62229  -0.61538  -0.59967  -0.58191
 Alpha  occ. eigenvalues --   -0.55897  -0.55400  -0.53283  -0.53227  -0.52992
 Alpha  occ. eigenvalues --   -0.52952  -0.50531  -0.48874  -0.48864  -0.48537
 Alpha  occ. eigenvalues --   -0.47324  -0.46432  -0.46369  -0.44863  -0.44399
 Alpha  occ. eigenvalues --   -0.37361  -0.36457
 Alpha virt. eigenvalues --    0.04914   0.11074   0.16266   0.18837   0.23173
 Alpha virt. eigenvalues --    0.23471   0.25162   0.25720   0.27269   0.28574
 Alpha virt. eigenvalues --    0.29582   0.30278   0.31007   0.31402   0.31701

 Mulliken charges:
               1
     1  C   -0.174012
     2  C   -0.216868
     3  C   -0.173390
     4  C    0.159065
     5  C   -0.170704
     6  C   -0.219823
     7  H    0.227415
     8  H    0.230661
     9  H    0.276124
    10  H    0.276319
    11  H    0.224513
    12  N    0.488041
    13  O   -0.459983
    14  O   -0.460089
    15  C   -0.301686
    16  C   -0.299559
    17  C   -0.477398
    18  H    0.148976
    19  H    0.149587
    20  H    0.154805
    21  H    0.153036
    22  H    0.153818
    23  H    0.154842
    24  H    0.163553
    25  C   -0.301332
    26  C   -0.301354
    27  C   -0.475573
    28  H    0.143912
    29  H    0.155539
    30  H    0.139565
    31  H    0.156922
    32  H    0.160003
    33  H    0.152598
    34  H    0.162477
 Sum of Mulliken charges =  -0.00000

 Dipole moment (field-independent basis, Debye):
    X=              3.9570    Y=             -0.0353    Z=              3.3514  Tot=              5.1856
 Quadrupole moment (field-independent basis, Debye-Ang):
   XX=           -112.1175   YY=            -94.2008   ZZ=            -92.4727
   XY=             -2.3919   XZ=            -10.0247   YZ=              0.1609

 Normal termination of Gaussian 16 at Wed May  5 16:00:35 2021.
