 Gaussian 16, Revision A.03,
 Gaussian 16:  EM64L-G16RevA.03 25-Dec-2016

 -------------
 #p 6-31g* mp2
 -------------

 ------------------------------------------------------
 Input file generated by CHIRIPA (05-May-2021 14:53:14)
 ------------------------------------------------------
 Symbolic Z-matrix:
 Charge =  0 Multiplicity = 1

                         Standard orientation:
 ---------------------------------------------------------------------
 Center     Atomic      Atomic             Coordinates (Angstroms)
 Number     Number       Type             X           Y           Z
 ---------------------------------------------------------------------
      1          6           0        5.393600    0.052774   -0.131877
      2          6           0        5.917355    1.383128    0.410178
      3          6           0        7.329666    1.705773   -0.078772
      4          1           0        6.079096   -0.752506    0.165722
      5          1           0        5.404494    0.082564   -1.230234
      6          1           0        5.904176    1.351347    1.507189
      7          1           0        5.230431    2.185308    0.111417
      8          1           0        7.354894    1.764668   -1.171702
      9          1           0        8.032466    0.925969    0.232000
     10          1           0        7.684388    2.660984    0.320732
     11          6           0        3.982861   -0.283672    0.348069
     12          6           0        3.459106   -1.614026   -0.193986
     13          6           0        2.046795   -1.936671    0.294965
     14          1           0        3.971967   -0.313462    1.446427
     15          1           0        3.297365    0.521608    0.050471
     16          1           0        4.146031   -2.416206    0.104775
     17          1           0        3.472286   -1.582245   -1.290996
     18          1           0        1.343995   -1.156867   -0.015807
     19          1           0        2.021568   -1.995566    1.387895
     20          1           0        1.692074   -2.891882   -0.104539
     21          6           0       -5.535954    1.738958    0.287502
     22          6           0       -4.327040    2.167225   -0.270741
     23          6           0       -3.282258    1.262447   -0.481343
     24          6           0       -3.481579   -0.069202   -0.120410
     25          6           0       -4.674306   -0.526504    0.437773
     26          6           0       -5.705430    0.395829    0.639357
     27          1           0       -6.342260    2.448630    0.447600
     28          1           0       -4.192604    3.209712   -0.544955
     29          1           0       -2.335994    1.566989   -0.911759
     30          1           0       -4.778625   -1.572085    0.701014
     31          1           0       -6.643202    0.060400    1.073079
     32          7           0       -2.382745   -1.036342   -0.338590
     33          8           0       -2.583417   -2.204141   -0.012073
     34          8           0       -1.341614   -0.608275   -0.831988
 ---------------------------------------------------------------------

 SCF Done:  E(RHF) =  -669.536020266     A.U. after   15 cycles
 E2 =    -0.2090794807D+01 EUMP2 =    -0.67162681507307D+03

 The electronic state is 1-A.
 Alpha  occ. eigenvalues --  -20.60918 -20.60913 -15.85952 -11.31284 -11.27849
 Alpha  occ. eigenvalues --  -11.27843 -11.27586 -11.26857 -11.26847 -11.21087
 Alpha  occ. eigenvalues --  -11.20704 -11.20655 -11.20499 -11.20404 -11.19341
 Alpha  occ. eigenvalues --   -1.59974  -1.39532  -1.19452  -1.08854  -1.07616
 Alpha  occ. eigenvalues --   -1.04850  -1.02613  -0.95696  -0.95030  -0.86251
 Alpha  occ. eigenvalues --   -0.86041  -0.82529  -0.78716  -0.77581  -0.77388
 Alpha  occ. eigenvalues --   -0.72175  -0.71289  -0.70561  -0.65108  -0.64853
 Alpha  occ. eigenvalues --   -0.64255  -0.62198  -0.60009  -0.58483  -0.56640
 Alpha  occ. eigenvalues --   -0.55355  -0.54316  -0.53181  -0.52942  -0.51699
 Alpha  occ. eigenvalues --   -0.51465  -0.49183  -0.48924  -0.48720  -0.47002
 Alpha  occ. eigenvalues --   -0.45772  -0.45024  -0.44893  -0.44732  -0.42869
 Alpha  occ. eigenvalues --   -0.37431  -0.36452
 Alpha virt. eigenvalues --    0.04933   0.11203   0.16418   0.21335   0.23618
 Alpha virt. eigenvalues --    0.25305   0.27253   0.27425   0.28165   0.28283
 Alpha virt. eigenvalues --    0.29089   0.30895   0.32282   0.32448   0.32585

 Mulliken charges:
               1
     1  C   -0.297480
     2  C   -0.298817
     3  C   -0.475195
     4  H    0.148383
     5  H    0.148685
     6  H    0.150769
     7  H    0.150413
     8  H    0.154555
     9  H    0.154683
    10  H    0.158116
    11  C   -0.297308
    12  C   -0.299845
    13  C   -0.480815
    14  H    0.146960
    15  H    0.149123
    16  H    0.146697
    17  H    0.150575
    18  H    0.177145
    19  H    0.146455
    20  H    0.162797
    21  C   -0.170629
    22  C   -0.218519
    23  C   -0.170744
    24  C    0.158014
    25  C   -0.170630
    26  C   -0.218567
    27  H    0.225946
    28  H    0.223745
    29  H    0.275409
    30  H    0.275917
    31  H    0.223794
    32  N    0.489872
    33  O   -0.458430
    34  O   -0.461072
 Sum of Mulliken charges =  -0.00000

 Dipole moment (field-independent basis, Debye):
    X=             -4.2292    Y=              3.3918    Z=              0.7167  Tot=              5.4685
 Quadrupole moment (field-independent basis, Debye-Ang):
   XX=            -68.6897   YY=            -92.8580   ZZ=            -94.5601
   XY=             -9.9606   XZ=             -3.1330   YZ=             -2.2998

 Normal termination of Gaussian 16 at Wed May  5 18:37:52 2021.
