 Gaussian 16, Revision A.03,
 Gaussian 16:  EM64L-G16RevA.03 25-Dec-2016

 -------------
 #p 6-31g* mp2
 -------------

 ------------------------------------------------------
 Input file generated by CHIRIPA (05-May-2021 14:51:10)
 ------------------------------------------------------
 Symbolic Z-matrix:
 Charge =  0 Multiplicity = 1

                         Standard orientation:
 ---------------------------------------------------------------------
 Center     Atomic      Atomic             Coordinates (Angstroms)
 Number     Number       Type             X           Y           Z
 ---------------------------------------------------------------------
      1          6           0        2.928246   -0.748698    0.509397
      2          6           0        1.563556   -0.755942   -0.180206
      3          6           0        0.443566   -1.259533    0.730735
      4          1           0        3.163141   -1.765012    0.854179
      5          1           0        2.873902   -0.118554    1.407929
      6          1           0        1.620835   -1.384774   -1.077929
      7          1           0        1.331968    0.260470   -0.523557
      8          1           0        0.357491   -0.627810    1.620745
      9          1           0        0.648000   -2.282401    1.063223
     10          1           0       -0.523198   -1.256402    0.217689
     11          6           0        4.058092   -0.247767   -0.388515
     12          6           0        5.422782   -0.240524    0.301088
     13          6           0        6.542772    0.263067   -0.609853
     14          1           0        4.112435   -0.877911   -1.287047
     15          1           0        3.823197    0.768547   -0.733297
     16          1           0        5.654370   -1.256936    0.644438
     17          1           0        5.365502    0.388308    1.198811
     18          1           0        6.338338    1.285936   -0.942341
     19          1           0        6.628847   -0.368656   -1.499863
     20          1           0        7.509536    0.259936   -0.096807
     21          6           0       -2.760085    0.709885   -0.025466
     22          6           0       -2.570924    2.221710    0.103347
     23          6           0       -1.098946    2.629557    0.172165
     24          1           0       -2.279880    0.212616    0.828391
     25          1           0       -2.238526    0.357548   -0.926148
     26          1           0       -3.093846    2.571299    1.002767
     27          1           0       -3.051801    2.715450   -0.750815
     28          1           0       -0.567706    2.308633   -0.729717
     29          1           0       -0.609988    2.163664    1.033830
     30          1           0       -0.986806    3.714382    0.264031
     31          6           0       -4.226253    0.286580   -0.095416
     32          6           0       -4.415414   -1.225244   -0.224228
     33          6           0       -5.887391   -1.633091   -0.293047
     34          1           0       -4.747812    0.638917    0.805266
     35          1           0       -4.706458    0.783849   -0.949272
     36          1           0       -3.934536   -1.718984    0.629935
     37          1           0       -3.892492   -1.574834   -1.123649
     38          1           0       -6.376349   -1.167199   -1.154711
     39          1           0       -6.418632   -1.312168    0.608835
     40          1           0       -5.999532   -2.717917   -0.384913
 ---------------------------------------------------------------------

 SCF Done:  E(RHF) =  -470.732286079     A.U. after   11 cycles
 E2 =    -0.1583991961D+01 EUMP2 =    -0.47231627804065D+03

 The electronic state is 1-A.
 Alpha  occ. eigenvalues --  -11.21616 -11.21613 -11.21563 -11.21500 -11.21385
 Alpha  occ. eigenvalues --  -11.21347 -11.21312 -11.21286 -11.21107 -11.21077
 Alpha  occ. eigenvalues --  -11.21041 -11.20902  -1.08451  -1.08357  -1.03562
 Alpha  occ. eigenvalues --   -1.03444  -0.96003  -0.95908  -0.87047  -0.86906
 Alpha  occ. eigenvalues --   -0.79616  -0.79538  -0.78264  -0.78183  -0.65079
 Alpha  occ. eigenvalues --   -0.64992  -0.60962  -0.60859  -0.59450  -0.59218
 Alpha  occ. eigenvalues --   -0.57682  -0.57458  -0.55283  -0.55205  -0.52834
 Alpha  occ. eigenvalues --   -0.52654  -0.52420  -0.52190  -0.49939  -0.49867
 Alpha  occ. eigenvalues --   -0.47923  -0.47831  -0.46736  -0.46484  -0.45783
 Alpha  occ. eigenvalues --   -0.45747  -0.45684  -0.45576  -0.43801  -0.43614
 Alpha virt. eigenvalues --    0.21098   0.23055   0.23619   0.24882   0.25446
 Alpha virt. eigenvalues --    0.26259   0.26408   0.27495   0.28048   0.29487
 Alpha virt. eigenvalues --    0.30263   0.31037   0.31817   0.32164   0.32529

 Mulliken charges:
               1
     1  C   -0.297999
     2  C   -0.303164
     3  C   -0.480579
     4  H    0.149377
     5  H    0.149220
     6  H    0.150948
     7  H    0.155644
     8  H    0.152928
     9  H    0.153536
    10  H    0.168851
    11  C   -0.298291
    12  C   -0.299582
    13  C   -0.475676
    14  H    0.149251
    15  H    0.149722
    16  H    0.151813
    17  H    0.151890
    18  H    0.155172
    19  H    0.155064
    20  H    0.160109
    21  C   -0.303583
    22  C   -0.299349
    23  C   -0.478643
    24  H    0.156885
    25  H    0.149430
    26  H    0.151826
    27  H    0.151741
    28  H    0.156733
    29  H    0.156699
    30  H    0.160147
    31  C   -0.297561
    32  C   -0.300746
    33  C   -0.475537
    34  H    0.149393
    35  H    0.149326
    36  H    0.152606
    37  H    0.151565
    38  H    0.155215
    39  H    0.155279
    40  H    0.160338
 Sum of Mulliken charges =  -0.00000

 Dipole moment (field-independent basis, Debye):
    X=             -0.0516    Y=              0.0164    Z=              0.0019  Tot=              0.0541
 Quadrupole moment (field-independent basis, Debye-Ang):
   XX=            -86.7486   YY=            -84.2353   ZZ=            -83.9462
   XY=             -0.8676   XZ=              0.2884   YZ=              0.4049

 Normal termination of Gaussian 16 at Thu May  6 07:00:09 2021.
