 Gaussian 16, Revision A.03,
 Gaussian 16:  EM64L-G16RevA.03 25-Dec-2016

 -------------
 #p 6-31g* mp2
 -------------

 ------------------------------------------------------
 Input file generated by CHIRIPA (05-May-2021 14:53:17)
 ------------------------------------------------------
 Symbolic Z-matrix:
 Charge =  0 Multiplicity = 1

                         Standard orientation:
 ---------------------------------------------------------------------
 Center     Atomic      Atomic             Coordinates (Angstroms)
 Number     Number       Type             X           Y           Z
 ---------------------------------------------------------------------
      1          6           0        3.925468    0.055848   -0.038172
      2          6           0        3.621627   -1.297495    0.605357
      3          6           0        4.797921   -2.270478    0.519153
      4          1           0        4.198698   -0.098986   -1.090938
      5          1           0        4.804542    0.497607    0.451188
      6          1           0        2.742553   -1.735940    0.115857
      7          1           0        3.348903   -1.139403    1.656663
      8          1           0        5.677169   -1.857627    1.024205
      9          1           0        5.067375   -2.457554   -0.525356
     10          1           0        4.559005   -3.231490    0.985238
     11          6           0        2.759139    1.039356    0.040037
     12          6           0        3.062980    2.392699   -0.603492
     13          6           0        1.886686    3.365682   -0.517288
     14          1           0        1.880065    0.597597   -0.449323
     15          1           0        2.485909    1.194190    1.092803
     16          1           0        3.335704    2.234607   -1.654798
     17          1           0        3.942054    2.831144   -0.113992
     18          1           0        1.617232    3.552758    0.527221
     19          1           0        1.007438    2.952832   -1.022340
     20          1           0        2.125603    4.326694   -0.983372
     21          6           0       -4.737237    0.790586    0.600339
     22          6           0       -4.666362    0.048602   -0.583280
     23          6           0       -3.493485   -0.630499   -0.926399
     24          6           0       -2.405635   -0.545604   -0.058838
     25          6           0       -2.445244    0.185413    1.127474
     26          6           0       -3.628407    0.856508    1.450440
     27          1           0       -5.652351    1.315018    0.859055
     28          1           0       -5.525931   -0.004372   -1.245384
     29          1           0       -3.411259   -1.212190   -1.836506
     30          1           0       -1.571910    0.219492    1.767429
     31          1           0       -3.680582    1.431981    2.370306
     32          7           0       -1.158518   -1.260300   -0.411415
     33          8           0       -0.214029   -1.169698    0.369846
     34          8           0       -1.149132   -1.897548   -1.462350
 ---------------------------------------------------------------------

 SCF Done:  E(RHF) =  -669.536256677     A.U. after   15 cycles
 E2 =    -0.2091873082D+01 EUMP2 =    -0.67162812975923D+03

 The electronic state is 1-A.
 Alpha  occ. eigenvalues --  -20.61062 -20.61024 -15.86049 -11.31329 -11.27889
 Alpha  occ. eigenvalues --  -11.27880 -11.27618 -11.26884 -11.26873 -11.20815
 Alpha  occ. eigenvalues --  -11.20584 -11.20221 -11.20147 -11.20054 -11.19909
 Alpha  occ. eigenvalues --   -1.60098  -1.39653  -1.19493  -1.08908  -1.07304
 Alpha  occ. eigenvalues --   -1.04881  -1.02502  -0.95757  -0.94997  -0.86284
 Alpha  occ. eigenvalues --   -0.86027  -0.82592  -0.78555  -0.77662  -0.77035
 Alpha  occ. eigenvalues --   -0.72266  -0.71404  -0.70601  -0.65150  -0.64885
 Alpha  occ. eigenvalues --   -0.63937  -0.62228  -0.59907  -0.58386  -0.56579
 Alpha  occ. eigenvalues --   -0.55390  -0.54307  -0.53216  -0.52973  -0.51738
 Alpha  occ. eigenvalues --   -0.51425  -0.49086  -0.49037  -0.48963  -0.46884
 Alpha  occ. eigenvalues --   -0.45621  -0.45192  -0.44617  -0.44196  -0.42721
 Alpha  occ. eigenvalues --   -0.37470  -0.36479
 Alpha virt. eigenvalues --    0.04850   0.11175   0.16338   0.21288   0.23885
 Alpha virt. eigenvalues --    0.25230   0.27186   0.27772   0.27961   0.28676
 Alpha virt. eigenvalues --    0.29142   0.30982   0.32260   0.32436   0.32685

 Mulliken charges:
               1
     1  C   -0.297887
     2  C   -0.304554
     3  C   -0.475340
     4  H    0.147142
     5  H    0.142757
     6  H    0.177399
     7  H    0.147148
     8  H    0.149166
     9  H    0.152935
    10  H    0.158364
    11  C   -0.300338
    12  C   -0.298994
    13  C   -0.473970
    14  H    0.165483
    15  H    0.143860
    16  H    0.150855
    17  H    0.148475
    18  H    0.150889
    19  H    0.152985
    20  H    0.157179
    21  C   -0.170381
    22  C   -0.218621
    23  C   -0.170647
    24  C    0.157577
    25  C   -0.170354
    26  C   -0.218486
    27  H    0.226193
    28  H    0.223920
    29  H    0.275786
    30  H    0.276441
    31  H    0.224105
    32  N    0.488363
    33  O   -0.458223
    34  O   -0.459227
 Sum of Mulliken charges =  -0.00000

 Dipole moment (field-independent basis, Debye):
    X=             -4.7561    Y=              2.3313    Z=              1.2041  Tot=              5.4319
 Quadrupole moment (field-independent basis, Debye-Ang):
   XX=            -75.0073   YY=            -98.8682   ZZ=            -90.8932
   XY=             -2.5228   XZ=             -0.6506   YZ=              1.3253

 Normal termination of Gaussian 16 at Thu May  6 15:39:08 2021.
