 Gaussian 16, Revision A.03,
 Gaussian 16:  EM64L-G16RevA.03 25-Dec-2016

 -------------
 #p 6-31g* mp2
 -------------

 ------------------------------------------------------
 Input file generated by CHIRIPA (05-May-2021 14:53:18)
 ------------------------------------------------------
 Symbolic Z-matrix:
 Charge =  0 Multiplicity = 1

                         Standard orientation:
 ---------------------------------------------------------------------
 Center     Atomic      Atomic             Coordinates (Angstroms)
 Number     Number       Type             X           Y           Z
 ---------------------------------------------------------------------
      1          6           0        3.533326   -0.558073    0.304493
      2          6           0        4.106202   -1.322912   -0.889166
      3          6           0        4.456538   -2.772005   -0.549770
      4          1           0        4.260531   -0.577832    1.127735
      5          1           0        2.635904   -1.077842    0.667629
      6          1           0        5.001487   -0.801094   -1.250808
      7          1           0        3.377628   -1.301167   -1.709729
      8          1           0        3.567989   -3.313618   -0.209570
      9          1           0        5.201075   -2.810704    0.251958
     10          1           0        4.864359   -3.300188   -1.417275
     11          6           0        3.178200    0.892066   -0.019093
     12          6           0        2.605325    1.656905    1.174566
     13          6           0        2.254989    3.105998    0.835170
     14          1           0        4.075623    1.411835   -0.382229
     15          1           0        2.450995    0.911825   -0.842335
     16          1           0        3.333899    1.635160    1.995128
     17          1           0        1.710039    1.135087    1.536208
     18          1           0        1.510452    3.144697    0.033442
     19          1           0        3.143538    3.647611    0.494970
     20          1           0        1.847167    3.634181    1.702675
     21          6           0       -1.986015    2.172869   -0.921724
     22          6           0       -3.330469    1.853222   -0.705411
     23          6           0       -3.694262    0.580143   -0.256555
     24          6           0       -2.683144   -0.353144   -0.033154
     25          6           0       -1.334926   -0.064962   -0.239426
     26          6           0       -0.994284    1.214447   -0.688452
     27          1           0       -1.712404    3.164286   -1.270472
     28          1           0       -4.102792    2.595546   -0.885740
     29          1           0       -4.727411    0.305956   -0.080936
     30          1           0       -0.587481   -0.826010   -0.050881
     31          1           0        0.050642    1.459888   -0.855587
     32          7           0       -3.056022   -1.704246    0.442121
     33          8           0       -2.146278   -2.508690    0.631521
     34          8           0       -4.250967   -1.933213    0.616241
 ---------------------------------------------------------------------

 SCF Done:  E(RHF) =  -669.535024581     A.U. after   15 cycles
 E2 =    -0.2092687778D+01 EUMP2 =    -0.67162771235947D+03

 The electronic state is 1-A.
 Alpha  occ. eigenvalues --  -20.60774 -20.60769 -15.85827 -11.31190 -11.27759
 Alpha  occ. eigenvalues --  -11.27756 -11.27489 -11.26771 -11.26725 -11.22419
 Alpha  occ. eigenvalues --  -11.22269 -11.22039 -11.22029 -11.21962 -11.21285
 Alpha  occ. eigenvalues --   -1.59849  -1.39403  -1.19360  -1.09145  -1.08752
 Alpha  occ. eigenvalues --   -1.04769  -1.04160  -0.96623  -0.95590  -0.87633
 Alpha  occ. eigenvalues --   -0.86167  -0.82427  -0.80237  -0.78920  -0.77481
 Alpha  occ. eigenvalues --   -0.72046  -0.71172  -0.70470  -0.65952  -0.65011
 Alpha  occ. eigenvalues --   -0.64720  -0.62230  -0.61390  -0.59994  -0.58211
 Alpha  occ. eigenvalues --   -0.55949  -0.55256  -0.53283  -0.53103  -0.53022
 Alpha  occ. eigenvalues --   -0.52841  -0.50584  -0.48815  -0.48801  -0.48518
 Alpha  occ. eigenvalues --   -0.47281  -0.46445  -0.46364  -0.44809  -0.44429
 Alpha  occ. eigenvalues --   -0.37334  -0.36356
 Alpha virt. eigenvalues --    0.05046   0.11234   0.16472   0.18416   0.22574
 Alpha virt. eigenvalues --    0.23787   0.25040   0.25612   0.26917   0.28598
 Alpha virt. eigenvalues --    0.30042   0.30189   0.31086   0.31606   0.32258

 Mulliken charges:
               1
     1  C   -0.299897
     2  C   -0.300033
     3  C   -0.476863
     4  H    0.153772
     5  H    0.150467
     6  H    0.152632
     7  H    0.150734
     8  H    0.159533
     9  H    0.156122
    10  H    0.161955
    11  C   -0.302669
    12  C   -0.304680
    13  C   -0.474846
    14  H    0.154014
    15  H    0.140669
    16  H    0.158499
    17  H    0.153796
    18  H    0.142637
    19  H    0.158937
    20  H    0.165267
    21  C   -0.172924
    22  C   -0.218464
    23  C   -0.170956
    24  C    0.158970
    25  C   -0.175587
    26  C   -0.224550
    27  H    0.226164
    28  H    0.223494
    29  H    0.275628
    30  H    0.275826
    31  H    0.235386
    32  N    0.488033
    33  O   -0.460703
    34  O   -0.460363
 Sum of Mulliken charges =  -0.00000

 Dipole moment (field-independent basis, Debye):
    X=              1.4933    Y=              4.7157    Z=             -1.5735  Tot=              5.1907
 Quadrupole moment (field-independent basis, Debye-Ang):
   XX=            -95.4513   YY=            -99.1968   ZZ=            -95.3441
   XY=            -14.3876   XZ=              5.0726   YZ=              0.7398

 Normal termination of Gaussian 16 at Thu May  6 06:01:50 2021.
