 Gaussian 16, Revision A.03,
 Gaussian 16:  EM64L-G16RevA.03 25-Dec-2016

 -------------
 #p 6-31g* mp2
 -------------

 ------------------------------------------------------
 Input file generated by CHIRIPA (05-May-2021 14:53:14)
 ------------------------------------------------------
 Symbolic Z-matrix:
 Charge =  0 Multiplicity = 1

                         Standard orientation:
 ---------------------------------------------------------------------
 Center     Atomic      Atomic             Coordinates (Angstroms)
 Number     Number       Type             X           Y           Z
 ---------------------------------------------------------------------
      1          6           0        3.883176   -0.235677   -0.462930
      2          6           0        5.197742   -0.511467    0.267713
      3          6           0        5.787375   -1.880480   -0.072771
      4          1           0        3.158572   -1.021765   -0.210024
      5          1           0        4.052715   -0.303720   -1.546453
      6          1           0        5.026079   -0.441561    1.349499
      7          1           0        5.919239    0.275473    0.013189
      8          1           0        5.986917   -1.957754   -1.146463
      9          1           0        5.088682   -2.678863    0.197441
     10          1           0        6.726754   -2.056881    0.460436
     11          6           0        3.281382    1.129100   -0.132846
     12          6           0        1.966816    1.404890   -0.863490
     13          6           0        1.377183    2.773903   -0.523005
     14          1           0        3.111843    1.197142    0.950677
     15          1           0        4.005986    1.915187   -0.385752
     16          1           0        1.245319    0.617949   -0.608965
     17          1           0        2.138479    1.334984   -1.945276
     18          1           0        2.075876    3.572285   -0.793217
     19          1           0        1.177641    2.851177    0.550686
     20          1           0        0.437804    2.950303   -1.056212
     21          6           0       -0.504411   -0.462593    1.276498
     22          6           0       -1.374454    0.580532    1.610321
     23          6           0       -2.647974    0.653500    1.038159
     24          6           0       -3.020455   -0.338011    0.131817
     25          6           0       -2.176286   -1.389764   -0.221007
     26          6           0       -0.907393   -1.442683    0.363509
     27          1           0        0.483092   -0.511489    1.725766
     28          1           0       -1.064177    1.343073    2.319056
     29          1           0       -3.341542    1.450055    1.278744
     30          1           0       -2.513869   -2.135262   -0.930718
     31          1           0       -0.233804   -2.253940    0.102387
     32          7           0       -4.366224   -0.271376   -0.480445
     33          8           0       -4.670501   -1.157257   -1.276225
     34          8           0       -5.091280    0.665474   -0.152962
 ---------------------------------------------------------------------

 SCF Done:  E(RHF) =  -669.534864626     A.U. after   15 cycles
 E2 =    -0.2093303594D+01 EUMP2 =    -0.67162816821999D+03

 The electronic state is 1-A.
 Alpha  occ. eigenvalues --  -20.60810 -20.60805 -15.85865 -11.31254 -11.27837
 Alpha  occ. eigenvalues --  -11.27834 -11.27591 -11.26856 -11.26845 -11.22308
 Alpha  occ. eigenvalues --  -11.22199 -11.22128 -11.22056 -11.21704 -11.21616
 Alpha  occ. eigenvalues --   -1.59885  -1.39438  -1.19447  -1.09157  -1.08834
 Alpha  occ. eigenvalues --   -1.04846  -1.04161  -0.96628  -0.95669  -0.87640
 Alpha  occ. eigenvalues --   -0.86246  -0.82494  -0.80224  -0.78964  -0.77527
 Alpha  occ. eigenvalues --   -0.72084  -0.71209  -0.70581  -0.65813  -0.65098
 Alpha  occ. eigenvalues --   -0.64836  -0.62191  -0.61591  -0.59985  -0.58228
 Alpha  occ. eigenvalues --   -0.55964  -0.55353  -0.53316  -0.53144  -0.53038
 Alpha  occ. eigenvalues --   -0.52927  -0.50585  -0.48844  -0.48836  -0.48534
 Alpha  occ. eigenvalues --   -0.47277  -0.46494  -0.46456  -0.44838  -0.44440
 Alpha  occ. eigenvalues --   -0.37329  -0.36438
 Alpha virt. eigenvalues --    0.04984   0.11092   0.16400   0.19152   0.22914
 Alpha virt. eigenvalues --    0.23673   0.25311   0.25838   0.26944   0.28145
 Alpha virt. eigenvalues --    0.29506   0.30837   0.31055   0.31416   0.31848

 Mulliken charges:
               1
     1  C   -0.296801
     2  C   -0.299763
     3  C   -0.475697
     4  H    0.140000
     5  H    0.153497
     6  H    0.149925
     7  H    0.154903
     8  H    0.157185
     9  H    0.152957
    10  H    0.162494
    11  C   -0.298861
    12  C   -0.308013
    13  C   -0.473465
    14  H    0.142042
    15  H    0.153390
    16  H    0.157338
    17  H    0.154448
    18  H    0.156768
    19  H    0.146756
    20  H    0.164848
    21  C   -0.172426
    22  C   -0.216779
    23  C   -0.171037
    24  C    0.158400
    25  C   -0.170380
    26  C   -0.218612
    27  H    0.228463
    28  H    0.224098
    29  H    0.276158
    30  H    0.276121
    31  H    0.224371
    32  N    0.488075
    33  O   -0.460208
    34  O   -0.460195
 Sum of Mulliken charges =  -0.00000

 Dipole moment (field-independent basis, Debye):
    X=              4.7473    Y=             -0.2214    Z=              2.0867  Tot=              5.1903
 Quadrupole moment (field-independent basis, Debye-Ang):
   XX=           -123.4963   YY=            -92.0770   ZZ=            -92.8023
   XY=             -1.1018   XZ=             -7.0934   YZ=              1.1693

 Normal termination of Gaussian 16 at Thu May  6 10:31:59 2021.
