 Gaussian 16, Revision A.03,
 Gaussian 16:  EM64L-G16RevA.03 25-Dec-2016

 -------------
 #p 6-31g* mp2
 -------------

 ------------------------------------------------------
 Input file generated by CHIRIPA (05-May-2021 14:57:26)
 ------------------------------------------------------
 Symbolic Z-matrix:
 Charge =  0 Multiplicity = 1

                         Standard orientation:
 ---------------------------------------------------------------------
 Center     Atomic      Atomic             Coordinates (Angstroms)
 Number     Number       Type             X           Y           Z
 ---------------------------------------------------------------------
      1          6           0        1.964918    1.324894    1.104582
      2          6           0        2.139765   -0.046514    1.317162
      3          6           0        3.181929   -0.735141    0.689280
      4          6           0        4.034466   -0.017840   -0.148544
      5          6           0        3.886261    1.348748   -0.380411
      6          6           0        2.837186    2.016928    0.257967
      7          1           0        1.152655    1.851894    1.596413
      8          1           0        1.463878   -0.586529    1.974130
      9          1           0        3.340230   -1.796644    0.836145
     10          1           0        4.576123    1.859959   -1.040844
     11          1           0        2.703802    3.082002    0.091018
     12          7           0        5.141417   -0.736035   -0.818810
     13          8           0        5.878907   -0.081210   -1.552260
     14          8           0        5.250594   -1.940182   -0.598022
     15          6           0       -5.828952   -0.017646   -1.527434
     16          6           0       -5.521626   -1.202238   -0.850075
     17          6           0       -4.428630   -1.259671    0.019759
     18          6           0       -3.660905   -0.108540    0.189423
     19          6           0       -3.941553    1.086543   -0.471110
     20          6           0       -5.039328    1.120955   -1.336127
     21          1           0       -6.679873    0.018027   -2.201272
     22          1           0       -6.133102   -2.088037   -0.996710
     23          1           0       -4.168164   -2.163642    0.556799
     24          1           0       -3.313489    1.953263   -0.304529
     25          1           0       -5.275638    2.042297   -1.860847
     26          7           0       -2.501271   -0.157156    1.107728
     27          8           0       -1.840536    0.870743    1.239973
     28          8           0       -2.275043   -1.222241    1.677862
 ---------------------------------------------------------------------

 SCF Done:  E(RHF) =  -868.340863448     A.U. after   16 cycles
 E2 =    -0.2598294816D+01 EUMP2 =    -0.87093915826421D+03

 The electronic state is 1-A.
 Alpha  occ. eigenvalues --  -20.61838 -20.61815 -20.59992 -20.59983 -15.86845
 Alpha  occ. eigenvalues --  -15.85035 -11.31887 -11.30155 -11.28430 -11.28402
 Alpha  occ. eigenvalues --  -11.28094 -11.27362 -11.27342 -11.26754 -11.26651
 Alpha  occ. eigenvalues --  -11.26194 -11.25671 -11.25443  -1.60883  -1.59072
 Alpha  occ. eigenvalues --   -1.40446  -1.38633  -1.20027  -1.18284  -1.09482
 Alpha  occ. eigenvalues --   -1.07680  -1.05383  -1.03653  -0.96374  -0.94565
 Alpha  occ. eigenvalues --   -0.86796  -0.85030  -0.83222  -0.81417  -0.78301
 Alpha  occ. eigenvalues --   -0.76533  -0.73099  -0.72169  -0.71257  -0.71132
 Alpha  occ. eigenvalues --   -0.70395  -0.69277  -0.65685  -0.65383  -0.63908
 Alpha  occ. eigenvalues --   -0.63608  -0.62736  -0.61005  -0.55893  -0.54007
 Alpha  occ. eigenvalues --   -0.53725  -0.53470  -0.52002  -0.51708  -0.49854
 Alpha  occ. eigenvalues --   -0.49815  -0.48028  -0.47988  -0.45916  -0.44095
 Alpha  occ. eigenvalues --   -0.37983  -0.36969  -0.36186  -0.35280
 Alpha virt. eigenvalues --    0.04209   0.05996   0.10691   0.12393   0.15771
 Alpha virt. eigenvalues --    0.17581   0.20850   0.22734   0.26786   0.27695
 Alpha virt. eigenvalues --    0.28532   0.29599   0.30489   0.31839   0.32379

 Mulliken charges:
               1
     1  C   -0.170189
     2  C   -0.221885
     3  C   -0.173686
     4  C    0.156826
     5  C   -0.172973
     6  C   -0.221290
     7  H    0.240277
     8  H    0.236755
     9  H    0.272953
    10  H    0.271063
    11  H    0.218615
    12  N    0.488262
    13  O   -0.464192
    14  O   -0.462838
    15  C   -0.169517
    16  C   -0.218427
    17  C   -0.169969
    18  C    0.158144
    19  C   -0.169967
    20  C   -0.218372
    21  H    0.228199
    22  H    0.225955
    23  H    0.276571
    24  H    0.273821
    25  H    0.225204
    26  N    0.491494
    27  O   -0.470678
    28  O   -0.460156
 Sum of Mulliken charges =  -0.00000

 Dipole moment (field-independent basis, Debye):
    X=             -8.6095    Y=              2.6466    Z=             -0.7760  Tot=              9.0405
 Quadrupole moment (field-independent basis, Debye-Ang):
   XX=           -107.6371   YY=            -97.0204   ZZ=           -106.7792
   XY=             12.7550   XZ=             21.3010   YZ=             -3.2970

 Normal termination of Gaussian 16 at Thu May  6 05:11:15 2021.
