 Gaussian 16, Revision A.03,
 Gaussian 16:  EM64L-G16RevA.03 25-Dec-2016

 -------------
 #p 6-31g* mp2
 -------------

 ------------------------------------------------------
 Input file generated by CHIRIPA (05-May-2021 14:51:10)
 ------------------------------------------------------
 Symbolic Z-matrix:
 Charge =  0 Multiplicity = 1

                         Standard orientation:
 ---------------------------------------------------------------------
 Center     Atomic      Atomic             Coordinates (Angstroms)
 Number     Number       Type             X           Y           Z
 ---------------------------------------------------------------------
      1          6           0        2.459397   -1.317434    0.254542
      2          6           0        1.004797   -1.040673    0.636023
      3          6           0        0.215919   -2.318299    0.924360
      4          1           0        2.482305   -1.971265   -0.628025
      5          1           0        2.945114   -1.873610    1.068263
      6          1           0        0.522353   -0.483978   -0.177583
      7          1           0        0.985348   -0.387269    1.517670
      8          1           0        0.671190   -2.873986    1.750521
      9          1           0        0.205565   -2.971245    0.045635
     10          1           0       -0.821261   -2.097253    1.195017
     11          6           0        3.260986   -0.050008   -0.036684
     12          6           0        4.715586   -0.326768   -0.418165
     13          6           0        5.504463    0.950858   -0.706502
     14          1           0        2.775269    0.506169   -0.850405
     15          1           0        3.238078    0.603823    0.845883
     16          1           0        4.735035   -0.980172   -1.299812
     17          1           0        5.198029   -0.883463    0.395441
     18          1           0        5.514818    1.603803    0.172223
     19          1           0        5.049193    1.506545   -1.532663
     20          1           0        6.541644    0.729812   -0.977159
     21          6           0       -2.907371   -0.077452   -0.066242
     22          6           0       -4.187733   -0.641182   -0.683385
     23          6           0       -4.267552   -2.165241   -0.590286
     24          1           0       -2.038338   -0.522984   -0.569460
     25          1           0       -2.850157   -0.384880    0.987138
     26          1           0       -4.243202   -0.331625   -1.734914
     27          1           0       -5.053820   -0.194112   -0.178769
     28          1           0       -4.237443   -2.489447    0.454982
     29          1           0       -3.422220   -2.627742   -1.110006
     30          1           0       -5.190699   -2.546970   -1.037434
     31          6           0       -2.813012    1.444893   -0.151616
     32          6           0       -1.532650    2.008623    0.465527
     33          6           0       -1.452831    3.532682    0.372428
     34          1           0       -2.870225    1.752321   -1.204996
     35          1           0       -3.682045    1.890426    0.351602
     36          1           0       -0.666563    1.561553   -0.039089
     37          1           0       -1.477181    1.699066    1.517056
     38          1           0       -2.298162    3.995182    0.892147
     39          1           0       -1.482939    3.856889   -0.672840
     40          1           0       -0.529683    3.914412    0.819576
 ---------------------------------------------------------------------

 SCF Done:  E(RHF) =  -470.732070431     A.U. after   11 cycles
 E2 =    -0.1584701128D+01 EUMP2 =    -0.47231677155866D+03

 The electronic state is 1-A.
 Alpha  occ. eigenvalues --  -11.21602 -11.21600 -11.21521 -11.21515 -11.21392
 Alpha  occ. eigenvalues --  -11.21389 -11.21330 -11.21325 -11.21072 -11.21070
 Alpha  occ. eigenvalues --  -11.21031 -11.20951  -1.08467  -1.08367  -1.03517
 Alpha  occ. eigenvalues --   -1.03492  -0.95995  -0.95918  -0.87021  -0.86924
 Alpha  occ. eigenvalues --   -0.79722  -0.79444  -0.78424  -0.78046  -0.65196
 Alpha  occ. eigenvalues --   -0.64922  -0.60945  -0.60872  -0.59349  -0.59321
 Alpha  occ. eigenvalues --   -0.57710  -0.57435  -0.55294  -0.55202  -0.52724
 Alpha  occ. eigenvalues --   -0.52610  -0.52502  -0.52228  -0.49930  -0.49878
 Alpha  occ. eigenvalues --   -0.48222  -0.47611  -0.46813  -0.46524  -0.46069
 Alpha  occ. eigenvalues --   -0.45781  -0.45652  -0.45119  -0.43763  -0.43731
 Alpha virt. eigenvalues --    0.21314   0.23176   0.23546   0.24292   0.25084
 Alpha virt. eigenvalues --    0.26221   0.27113   0.27627   0.27836   0.29757
 Alpha virt. eigenvalues --    0.30589   0.31164   0.31640   0.31829   0.32202

 Mulliken charges:
               1
     1  C   -0.297682
     2  C   -0.304035
     3  C   -0.480150
     4  H    0.149064
     5  H    0.149424
     6  H    0.155732
     7  H    0.152890
     8  H    0.154376
     9  H    0.153579
    10  H    0.166474
    11  C   -0.298320
    12  C   -0.299528
    13  C   -0.475688
    14  H    0.148606
    15  H    0.149733
    16  H    0.151858
    17  H    0.152050
    18  H    0.155190
    19  H    0.155089
    20  H    0.160250
    21  C   -0.303844
    22  C   -0.299290
    23  C   -0.476316
    24  H    0.155961
    25  H    0.149760
    26  H    0.151690
    27  H    0.151876
    28  H    0.155084
    29  H    0.155810
    30  H    0.160361
    31  C   -0.298150
    32  C   -0.303738
    33  C   -0.475388
    34  H    0.148843
    35  H    0.149337
    36  H    0.158088
    37  H    0.151385
    38  H    0.154754
    39  H    0.154667
    40  H    0.160197
 Sum of Mulliken charges =  -0.00000

 Dipole moment (field-independent basis, Debye):
    X=             -0.0128    Y=             -0.0016    Z=              0.0025  Tot=              0.0132
 Quadrupole moment (field-independent basis, Debye-Ang):
   XX=            -85.1438   YY=            -86.8374   ZZ=            -83.0165
   XY=             -0.7272   XZ=              0.0144   YZ=              0.3306

 Normal termination of Gaussian 16 at Thu May  6 05:21:43 2021.
