 Gaussian 16, Revision A.03,
 Gaussian 16:  EM64L-G16RevA.03 25-Dec-2016

 -------------
 #p 6-31g* mp2
 -------------

 ------------------------------------------------------
 Input file generated by CHIRIPA (05-May-2021 14:57:26)
 ------------------------------------------------------
 Symbolic Z-matrix:
 Charge =  0 Multiplicity = 1

                         Standard orientation:
 ---------------------------------------------------------------------
 Center     Atomic      Atomic             Coordinates (Angstroms)
 Number     Number       Type             X           Y           Z
 ---------------------------------------------------------------------
      1          6           0        1.715489    1.876292    1.497181
      2          6           0        2.169825    2.090735    0.191764
      3          6           0        2.823649    1.072688   -0.508694
      4          6           0        3.007072   -0.152959    0.129613
      5          6           0        2.565943   -0.397349    1.429216
      6          6           0        1.914648    0.635123    2.110660
      7          1           0        1.208565    2.672738    2.033929
      8          1           0        2.016543    3.053630   -0.287176
      9          1           0        3.185559    1.211583   -1.520201
     10          1           0        2.733363   -1.367892    1.880253
     11          1           0        1.562872    0.465741    3.124370
     12          7           0        3.697908   -1.238355   -0.601866
     13          8           0        3.847161   -2.309132   -0.017232
     14          8           0        4.077052   -0.997759   -1.745981
     15          6           0       -1.430028    1.902730   -0.961005
     16          6           0       -2.783319    2.117313   -0.679796
     17          6           0       -3.603436    1.056100   -0.285099
     18          6           0       -3.034670   -0.212383   -0.181449
     19          6           0       -1.689969   -0.458090   -0.454757
     20          6           0       -0.888627    0.617979   -0.847789
     21          1           0       -0.800234    2.732876   -1.266968
     22          1           0       -3.206494    3.114000   -0.766875
     23          1           0       -4.654300    1.194063   -0.061336
     24          1           0       -1.296736   -1.462891   -0.359035
     25          1           0        0.162022    0.448380   -1.065545
     26          7           0       -3.892953   -1.343706    0.235517
     27          8           0       -3.367717   -2.451741    0.319305
     28          8           0       -5.074661   -1.100979    0.470652
 ---------------------------------------------------------------------

 SCF Done:  E(RHF) =  -868.335739743     A.U. after   16 cycles
 E2 =    -0.2603834983D+01 EUMP2 =    -0.87093957472625D+03

 The electronic state is 1-A.
 Alpha  occ. eigenvalues --  -20.61580 -20.61563 -20.60924 -20.60913 -15.86638
 Alpha  occ. eigenvalues --  -15.85970 -11.32222 -11.31378 -11.28796 -11.28725
 Alpha  occ. eigenvalues --  -11.28474 -11.27936 -11.27845 -11.27841 -11.27718
 Alpha  occ. eigenvalues --  -11.27709 -11.27035 -11.26792  -1.60653  -1.59996
 Alpha  occ. eigenvalues --   -1.40197  -1.39548  -1.20414  -1.19536  -1.09730
 Alpha  occ. eigenvalues --   -1.08946  -1.05824  -1.04922  -0.96528  -0.95778
 Alpha  occ. eigenvalues --   -0.87180  -0.86339  -0.83346  -0.82594  -0.78381
 Alpha  occ. eigenvalues --   -0.77630  -0.72834  -0.72189  -0.72001  -0.71416
 Alpha  occ. eigenvalues --   -0.71322  -0.70705  -0.66009  -0.65769  -0.65185
 Alpha  occ. eigenvalues --   -0.64992  -0.63124  -0.62320  -0.56229  -0.55535
 Alpha  occ. eigenvalues --   -0.54414  -0.53850  -0.53242  -0.52668  -0.49617
 Alpha  occ. eigenvalues --   -0.49586  -0.48945  -0.48942  -0.45552  -0.44944
 Alpha  occ. eigenvalues --   -0.38595  -0.37595  -0.37224  -0.36421
 Alpha virt. eigenvalues --    0.04104   0.04880   0.10023   0.11207   0.15557
 Alpha virt. eigenvalues --    0.16350   0.19745   0.21734   0.25445   0.27181
 Alpha virt. eigenvalues --    0.27555   0.28554   0.29917   0.31210   0.32423

 Mulliken charges:
               1
     1  C   -0.164397
     2  C   -0.222447
     3  C   -0.189655
     4  C    0.160037
     5  C   -0.171891
     6  C   -0.216090
     7  H    0.229285
     8  H    0.221665
     9  H    0.277680
    10  H    0.281013
    11  H    0.229982
    12  N    0.487578
    13  O   -0.455498
    14  O   -0.459091
    15  C   -0.177505
    16  C   -0.218856
    17  C   -0.172818
    18  C    0.158899
    19  C   -0.176168
    20  C   -0.214834
    21  H    0.216745
    22  H    0.221799
    23  H    0.275336
    24  H    0.277581
    25  H    0.233470
    26  N    0.487722
    27  O   -0.458847
    28  O   -0.460696
 Sum of Mulliken charges =  -0.00000

 Dipole moment (field-independent basis, Debye):
    X=              0.8296    Y=              7.6375    Z=              1.3584  Tot=              7.8016
 Quadrupole moment (field-independent basis, Debye-Ang):
   XX=           -135.5881   YY=           -104.9095   ZZ=           -101.1026
   XY=             -3.3618   XZ=             10.9427   YZ=             -2.5639

 Normal termination of Gaussian 16 at Fri May  7 00:28:59 2021.
