 Gaussian 16, Revision A.03,
 Gaussian 16:  EM64L-G16RevA.03 25-Dec-2016

 -------------
 #p 6-31g* mp2
 -------------

 ------------------------------------------------------
 Input file generated by CHIRIPA (05-May-2021 14:57:24)
 ------------------------------------------------------
 Symbolic Z-matrix:
 Charge =  0 Multiplicity = 1

                         Standard orientation:
 ---------------------------------------------------------------------
 Center     Atomic      Atomic             Coordinates (Angstroms)
 Number     Number       Type             X           Y           Z
 ---------------------------------------------------------------------
      1          6           0       -2.774620    2.391720    0.358586
      2          6           0       -2.165766    1.630809   -0.644825
      3          6           0       -2.508997    0.287462   -0.824155
      4          6           0       -3.469350   -0.265368    0.021653
      5          6           0       -4.093763    0.466653    1.030386
      6          6           0       -3.734982    1.808242    1.191520
      7          1           0       -2.501951    3.434581    0.490826
      8          1           0       -1.419611    2.081309   -1.293166
      9          1           0       -2.053345   -0.324634   -1.593010
     10          1           0       -4.834136   -0.010206    1.661156
     11          1           0       -4.209472    2.396762    1.971615
     12          7           0       -3.840944   -1.686579   -0.158565
     13          8           0       -4.689913   -2.150170    0.599704
     14          8           0       -3.276193   -2.310021   -1.054675
     15          6           0        1.976532    1.984004   -0.760453
     16          6           0        3.195709    2.208581   -0.112614
     17          6           0        3.997069    1.134119    0.284756
     18          6           0        3.546506   -0.157660    0.017198
     19          6           0        2.336773   -0.413826   -0.626397
     20          6           0        1.551704    0.675824   -1.014828
     21          1           0        1.360343    2.824571   -1.065667
     22          1           0        3.528159    3.223459    0.086242
     23          1           0        4.945293    1.279378    0.787933
     24          1           0        2.031971   -1.436804   -0.810870
     25          1           0        0.605334    0.498416   -1.517775
     26          7           0        4.386247   -1.303185    0.433145
     27          8           0        3.966842   -2.431707    0.185811
     28          8           0        5.447940   -1.050833    0.998622
 ---------------------------------------------------------------------

 SCF Done:  E(RHF) =  -868.335462857     A.U. after   16 cycles
 E2 =    -0.2601202651D+01 EUMP2 =    -0.87093666550738D+03

 The electronic state is 1-A.
 Alpha  occ. eigenvalues --  -20.61332 -20.61319 -20.60989 -20.60976 -15.86391
 Alpha  occ. eigenvalues --  -15.86045 -11.31936 -11.31570 -11.28631 -11.28466
 Alpha  occ. eigenvalues --  -11.28310 -11.28158 -11.28146 -11.28067 -11.27722
 Alpha  occ. eigenvalues --  -11.27505 -11.27309 -11.27246  -1.60399  -1.60058
 Alpha  occ. eigenvalues --   -1.39949  -1.39606  -1.20132  -1.19779  -1.09490
 Alpha  occ. eigenvalues --   -1.09174  -1.05598  -1.05199  -0.96295  -0.95972
 Alpha  occ. eigenvalues --   -0.86982  -0.86621  -0.83152  -0.82793  -0.78194
 Alpha  occ. eigenvalues --   -0.77769  -0.72606  -0.72263  -0.71724  -0.71383
 Alpha  occ. eigenvalues --   -0.71248  -0.70957  -0.65830  -0.65719  -0.65423
 Alpha  occ. eigenvalues --   -0.65207  -0.63027  -0.62428  -0.56063  -0.55805
 Alpha  occ. eigenvalues --   -0.53914  -0.53711  -0.53496  -0.53280  -0.49378
 Alpha  occ. eigenvalues --   -0.49350  -0.49037  -0.49003  -0.45316  -0.44975
 Alpha  occ. eigenvalues --   -0.38123  -0.37824  -0.37204  -0.36701
 Alpha virt. eigenvalues --    0.04379   0.04749   0.10360   0.10917   0.15739
 Alpha virt. eigenvalues --    0.16186   0.17855   0.22280   0.24573   0.25019
 Alpha virt. eigenvalues --    0.28219   0.28960   0.30487   0.30874   0.33140

 Mulliken charges:
               1
     1  C   -0.170145
     2  C   -0.216340
     3  C   -0.172458
     4  C    0.160043
     5  C   -0.169119
     6  C   -0.217666
     7  H    0.225430
     8  H    0.213312
     9  H    0.271639
    10  H    0.278848
    11  H    0.226582
    12  N    0.488353
    13  O   -0.456883
    14  O   -0.460126
    15  C   -0.172061
    16  C   -0.218089
    17  C   -0.170240
    18  C    0.159172
    19  C   -0.170820
    20  C   -0.214866
    21  H    0.216873
    22  H    0.223557
    23  H    0.277116
    24  H    0.280730
    25  H    0.216197
    26  N    0.487831
    27  O   -0.457061
    28  O   -0.459809
 Sum of Mulliken charges =  -0.00000

 Dipole moment (field-independent basis, Debye):
    X=             -1.7397    Y=              8.8729    Z=             -0.6051  Tot=              9.0620
 Quadrupole moment (field-independent basis, Debye-Ang):
   XX=           -129.7770   YY=           -107.7148   ZZ=           -102.4580
   XY=             -0.9297   XZ=             -9.2007   YZ=              2.2497

 Normal termination of Gaussian 16 at Thu May  6 22:49:56 2021.
