 Gaussian 16, Revision A.03,
 Gaussian 16:  EM64L-G16RevA.03 25-Dec-2016

 -------------
 #p 6-31g* mp2
 -------------

 ------------------------------------------------------
 Input file generated by CHIRIPA (05-May-2021 14:51:08)
 ------------------------------------------------------
 Symbolic Z-matrix:
 Charge =  0 Multiplicity = 1

                         Standard orientation:
 ---------------------------------------------------------------------
 Center     Atomic      Atomic             Coordinates (Angstroms)
 Number     Number       Type             X           Y           Z
 ---------------------------------------------------------------------
      1          6           0        2.407361    0.794382   -0.563924
      2          6           0        1.298039    1.281109   -1.496923
      3          6           0        1.174387    2.804848   -1.523809
      4          1           0        2.212974    1.165882    0.451530
      5          1           0        3.362816    1.235188   -0.880455
      6          1           0        0.345186    0.838420   -1.179565
      7          1           0        1.494987    0.908248   -2.510235
      8          1           0        2.110348    3.261403   -1.861646
      9          1           0        0.954015    3.191179   -0.523416
     10          1           0        0.375465    3.130984   -2.197024
     11          6           0        2.543313   -0.726745   -0.526273
     12          6           0        3.652635   -1.213472    0.406725
     13          6           0        3.776287   -2.737211    0.433611
     14          1           0        1.587858   -1.167551   -0.209743
     15          1           0        2.737700   -1.098244   -1.541727
     16          1           0        3.455687   -0.840611    1.420038
     17          1           0        4.605487   -0.770783    0.089368
     18          1           0        3.996659   -3.123541   -0.566782
     19          1           0        2.840326   -3.193766    0.771449
     20          1           0        4.575209   -3.063346    1.106827
     21          6           0       -2.202663    0.630319    0.805872
     22          6           0       -1.013016    0.467551    1.752566
     23          6           0       -0.478669    1.805018    2.265838
     24          1           0       -1.903093    1.257839   -0.044670
     25          1           0       -3.005057    1.171429    1.326217
     26          1           0       -0.213630   -0.074305    1.231039
     27          1           0       -1.315397   -0.159813    2.600856
     28          1           0       -1.258249    2.348125    2.809796
     29          1           0       -0.150222    2.434118    1.432197
     30          1           0        0.371432    1.665286    2.940866
     31          6           0       -2.748011   -0.697956    0.284326
     32          6           0       -3.937659   -0.535189   -0.662369
     33          6           0       -4.472005   -1.872656   -1.175641
     34          1           0       -1.945617   -1.239067   -0.236020
     35          1           0       -3.047581   -1.325477    1.134867
     36          1           0       -3.635277    0.092176   -1.510658
     37          1           0       -4.737044    0.006668   -0.140842
     38          1           0       -4.800452   -2.501755   -0.341999
     39          1           0       -3.692424   -2.415762   -1.719599
     40          1           0       -5.322106   -1.732924   -1.850669
 ---------------------------------------------------------------------

 SCF Done:  E(RHF) =  -470.732220493     A.U. after   11 cycles
 E2 =    -0.1585843338D+01 EUMP2 =    -0.47231806383098D+03

 The electronic state is 1-A.
 Alpha  occ. eigenvalues --  -11.21651 -11.21639 -11.21628 -11.21625 -11.21450
 Alpha  occ. eigenvalues --  -11.21434 -11.21390 -11.21366 -11.21128 -11.21128
 Alpha  occ. eigenvalues --  -11.21086 -11.21084  -1.08556  -1.08403  -1.03645
 Alpha  occ. eigenvalues --   -1.03507  -0.96031  -0.96023  -0.87069  -0.87017
 Alpha  occ. eigenvalues --   -0.79663  -0.79623  -0.78321  -0.78258  -0.65692
 Alpha  occ. eigenvalues --   -0.64669  -0.61343  -0.60528  -0.59399  -0.59393
 Alpha  occ. eigenvalues --   -0.57715  -0.57577  -0.55358  -0.55293  -0.52721
 Alpha  occ. eigenvalues --   -0.52712  -0.52524  -0.52381  -0.50170  -0.49820
 Alpha  occ. eigenvalues --   -0.48039  -0.47892  -0.46734  -0.46605  -0.46084
 Alpha  occ. eigenvalues --   -0.45774  -0.45698  -0.45427  -0.43831  -0.43818
 Alpha virt. eigenvalues --    0.18975   0.22771   0.22853   0.25091   0.25201
 Alpha virt. eigenvalues --    0.26144   0.26482   0.28365   0.29478   0.29830
 Alpha virt. eigenvalues --    0.30019   0.31588   0.31711   0.32167   0.32234

 Mulliken charges:
               1
     1  C   -0.302063
     2  C   -0.306230
     3  C   -0.480260
     4  H    0.154511
     5  H    0.150162
     6  H    0.157490
     7  H    0.152426
     8  H    0.156072
     9  H    0.158859
    10  H    0.160185
    11  C   -0.302239
    12  C   -0.299578
    13  C   -0.475844
    14  H    0.151501
    15  H    0.149980
    16  H    0.152119
    17  H    0.152167
    18  H    0.155157
    19  H    0.155426
    20  H    0.160385
    21  C   -0.301619
    22  C   -0.307375
    23  C   -0.482000
    24  H    0.152438
    25  H    0.150450
    26  H    0.158717
    27  H    0.152593
    28  H    0.155893
    29  H    0.161140
    30  H    0.159751
    31  C   -0.299578
    32  C   -0.299586
    33  C   -0.475808
    34  H    0.149541
    35  H    0.149989
    36  H    0.152152
    37  H    0.152092
    38  H    0.155169
    39  H    0.155435
    40  H    0.160383
 Sum of Mulliken charges =  -0.00000

 Dipole moment (field-independent basis, Debye):
    X=              0.0008    Y=              0.0094    Z=              0.0025  Tot=              0.0097
 Quadrupole moment (field-independent basis, Debye-Ang):
   XX=            -84.1340   YY=            -86.7137   ZZ=            -83.8032
   XY=             -0.1389   XZ=             -1.2711   YZ=             -0.3325

 Normal termination of Gaussian 16 at Thu May  6 00:32:01 2021.
