 Gaussian 16, Revision A.03,
 Gaussian 16:  EM64L-G16RevA.03 25-Dec-2016

 -------------
 #p 6-31g* mp2
 -------------

 ------------------------------------------------------
 Input file generated by CHIRIPA (05-May-2021 14:53:12)
 ------------------------------------------------------
 Symbolic Z-matrix:
 Charge =  0 Multiplicity = 1

                         Standard orientation:
 ---------------------------------------------------------------------
 Center     Atomic      Atomic             Coordinates (Angstroms)
 Number     Number       Type             X           Y           Z
 ---------------------------------------------------------------------
      1          6           0        4.067570   -0.578938   -0.436845
      2          6           0        5.347357   -0.982290    0.296256
      3          6           0        5.820529   -2.389114   -0.070823
      4          1           0        3.276176   -1.305277   -0.206474
      5          1           0        4.239986   -0.637713   -1.520456
      6          1           0        5.172999   -0.921438    1.378158
      7          1           0        6.135743   -0.254798    0.064264
      8          1           0        6.021961   -2.459872   -1.144610
      9          1           0        5.053747   -3.130299    0.176749
     10          1           0        6.736729   -2.656992    0.464601
     11          6           0        3.582010    0.824937   -0.080341
     12          6           0        2.302223    1.228289   -0.813443
     13          6           0        1.829051    2.635114   -0.446364
     14          1           0        3.409594    0.883713    1.003270
     15          1           0        4.373404    1.551277   -0.310713
     16          1           0        1.513837    0.500798   -0.581451
     17          1           0        2.476581    1.167437   -1.895345
     18          1           0        2.595833    3.376299   -0.693936
     19          1           0        1.627619    2.705872    0.627423
     20          1           0        0.912851    2.902991   -0.981788
     21          6           0       -1.255953    1.306157    1.384914
     22          6           0       -1.729162    0.130994    1.977863
     23          6           0       -2.688855   -0.653762    1.331569
     24          6           0       -3.155576   -0.231659    0.087668
     25          6           0       -2.703724    0.934066   -0.528940
     26          6           0       -1.743885    1.703243    0.135608
     27          1           0       -0.510385    1.909723    1.894061
     28          1           0       -1.352023   -0.179836    2.948015
     29          1           0       -3.072505   -1.568052    1.767809
     30          1           0       -3.098596    1.218113   -1.496831
     31          1           0       -1.378200    2.615415   -0.327274
     32          7           0       -4.171637   -1.054198   -0.606196
     33          8           0       -4.566845   -0.660537   -1.701403
     34          8           0       -4.553581   -2.076988   -0.041701
 ---------------------------------------------------------------------

 SCF Done:  E(RHF) =  -669.534871467     A.U. after   15 cycles
 E2 =    -0.2092405397D+01 EUMP2 =    -0.67162727686402D+03

 The electronic state is 1-A.
 Alpha  occ. eigenvalues --  -20.60767 -20.60762 -15.85820 -11.31191 -11.27762
 Alpha  occ. eigenvalues --  -11.27747 -11.27492 -11.26782 -11.26740 -11.22294
 Alpha  occ. eigenvalues --  -11.22159 -11.22013 -11.22003 -11.21835 -11.21384
 Alpha  occ. eigenvalues --   -1.59842  -1.39396  -1.19366  -1.09009  -1.08754
 Alpha  occ. eigenvalues --   -1.04773  -1.04139  -0.96630  -0.95587  -0.87654
 Alpha  occ. eigenvalues --   -0.86157  -0.82425  -0.80203  -0.78779  -0.77472
 Alpha  occ. eigenvalues --   -0.72039  -0.71166  -0.70484  -0.65646  -0.65014
 Alpha  occ. eigenvalues --   -0.64808  -0.62171  -0.61528  -0.59987  -0.58212
 Alpha  occ. eigenvalues --   -0.55978  -0.55220  -0.53442  -0.53084  -0.53056
 Alpha  occ. eigenvalues --   -0.52688  -0.50549  -0.48804  -0.48793  -0.48501
 Alpha  occ. eigenvalues --   -0.47213  -0.46330  -0.46235  -0.44800  -0.44384
 Alpha  occ. eigenvalues --   -0.37322  -0.36362
 Alpha virt. eigenvalues --    0.05047   0.11207   0.16474   0.19916   0.22635
 Alpha virt. eigenvalues --    0.24113   0.25163   0.26106   0.26494   0.27445
 Alpha virt. eigenvalues --    0.29170   0.29548   0.31286   0.31658   0.32426

 Mulliken charges:
               1
     1  C   -0.298949
     2  C   -0.299888
     3  C   -0.476044
     4  H    0.150931
     5  H    0.151537
     6  H    0.150885
     7  H    0.152498
     8  H    0.156402
     9  H    0.155930
    10  H    0.161159
    11  C   -0.298157
    12  C   -0.302706
    13  C   -0.476927
    14  H    0.146081
    15  H    0.150916
    16  H    0.157535
    17  H    0.155495
    18  H    0.160178
    19  H    0.146138
    20  H    0.154964
    21  C   -0.171611
    22  C   -0.219660
    23  C   -0.171019
    24  C    0.158595
    25  C   -0.172305
    26  C   -0.218050
    27  H    0.227766
    28  H    0.223292
    29  H    0.275525
    30  H    0.275624
    31  H    0.226636
    32  N    0.488075
    33  O   -0.460348
    34  O   -0.460497
 Sum of Mulliken charges =  -0.00000

 Dipole moment (field-independent basis, Debye):
    X=              3.6944    Y=              2.8378    Z=              2.3856  Tot=              5.2338
 Quadrupole moment (field-independent basis, Debye-Ang):
   XX=           -117.7149   YY=            -95.3815   ZZ=            -91.1606
   XY=             -9.5179   XZ=             -7.9640   YZ=             -3.6863

 Normal termination of Gaussian 16 at Thu May  6 08:53:27 2021.
