 Gaussian 16, Revision A.03,
 Gaussian 16:  EM64L-G16RevA.03 25-Dec-2016

 -------------
 #p 6-31g* mp2
 -------------

 ------------------------------------------------------
 Input file generated by CHIRIPA (05-May-2021 14:55:21)
 ------------------------------------------------------
 Symbolic Z-matrix:
 Charge =  0 Multiplicity = 1

                         Standard orientation:
 ---------------------------------------------------------------------
 Center     Atomic      Atomic             Coordinates (Angstroms)
 Number     Number       Type             X           Y           Z
 ---------------------------------------------------------------------
      1          6           0       -0.375668   -0.684523    1.241366
      2          6           0       -1.137648    0.396402    1.696896
      3          6           0       -2.376910    0.685562    1.117964
      4          6           0       -2.825697   -0.130653    0.080817
      5          6           0       -2.089757   -1.214695   -0.395139
      6          6           0       -0.853312   -1.485210    0.198640
      7          1           0        0.585927   -0.901908    1.696861
      8          1           0       -0.769209    1.019935    2.506529
      9          1           0       -2.987315    1.516122    1.451120
     10          1           0       -2.483448   -1.818263   -1.203923
     11          1           0       -0.263698   -2.325327   -0.157175
     12          7           0       -4.136158    0.165599   -0.539932
     13          8           0       -4.509240   -0.568685   -1.452222
     14          8           0       -4.765400    1.126475   -0.102430
     15          6           0        2.942125    0.866755   -0.096624
     16          6           0        3.643431    2.136774   -0.579540
     17          6           0        2.834194    3.402866   -0.296801
     18          1           0        1.959210    0.791320   -0.581527
     19          1           0        2.752762    0.948619    0.982651
     20          1           0        3.832657    2.051952   -1.657322
     21          1           0        4.624871    2.209095   -0.093575
     22          1           0        2.657047    3.514902    0.777754
     23          1           0        1.860332    3.356866   -0.794878
     24          1           0        3.354000    4.298848   -0.650180
     25          6           0        3.738751   -0.407289   -0.372174
     26          6           0        3.037446   -1.677309    0.110742
     27          6           0        3.846684   -2.943400   -0.171997
     28          1           0        3.928115   -0.489153   -1.451448
     29          1           0        4.721666   -0.331854    0.112731
     30          1           0        2.056007   -1.749630   -0.375222
     31          1           0        2.848220   -1.592486    1.188524
     32          1           0        4.820544   -2.897401    0.326080
     33          1           0        4.023829   -3.055437   -1.246551
     34          1           0        3.326876   -3.839382    0.181383
 ---------------------------------------------------------------------

 SCF Done:  E(RHF) =  -669.534252402     A.U. after   15 cycles
 E2 =    -0.2093689665D+01 EUMP2 =    -0.67162794206657D+03

 The electronic state is 1-A.
 Alpha  occ. eigenvalues --  -20.60717 -20.60712 -15.85772 -11.31113 -11.27702
 Alpha  occ. eigenvalues --  -11.27697 -11.27347 -11.26673 -11.26660 -11.22871
 Alpha  occ. eigenvalues --  -11.22319 -11.22243 -11.22172 -11.22085 -11.21604
 Alpha  occ. eigenvalues --   -1.59794  -1.39348  -1.19293  -1.09359  -1.08671
 Alpha  occ. eigenvalues --   -1.04703  -1.04407  -0.96811  -0.95521  -0.87837
 Alpha  occ. eigenvalues --   -0.86099  -0.82365  -0.80556  -0.79170  -0.77409
 Alpha  occ. eigenvalues --   -0.71990  -0.71119  -0.70370  -0.65996  -0.64937
 Alpha  occ. eigenvalues --   -0.64718  -0.62117  -0.61747  -0.60204  -0.58441
 Alpha  occ. eigenvalues --   -0.56077  -0.55211  -0.53517  -0.53248  -0.53013
 Alpha  occ. eigenvalues --   -0.52796  -0.50750  -0.48821  -0.48753  -0.48732
 Alpha  occ. eigenvalues --   -0.47552  -0.46641  -0.46564  -0.44760  -0.44648
 Alpha  occ. eigenvalues --   -0.37193  -0.36305
 Alpha virt. eigenvalues --    0.05117   0.11209   0.16569   0.20064   0.22563
 Alpha virt. eigenvalues --    0.23338   0.24345   0.26088   0.26963   0.28022
 Alpha virt. eigenvalues --    0.29525   0.29747   0.31053   0.31390   0.31677

 Mulliken charges:
               1
     1  C   -0.167737
     2  C   -0.220805
     3  C   -0.170661
     4  C    0.157638
     5  C   -0.171396
     6  C   -0.225479
     7  H    0.233405
     8  H    0.223230
     9  H    0.275336
    10  H    0.275245
    11  H    0.225150
    12  N    0.488110
    13  O   -0.460829
    14  O   -0.460676
    15  C   -0.301998
    16  C   -0.300268
    17  C   -0.476233
    18  H    0.156568
    19  H    0.141598
    20  H    0.154592
    21  H    0.152720
    22  H    0.152613
    23  H    0.158177
    24  H    0.163043
    25  C   -0.296904
    26  C   -0.310215
    27  C   -0.475400
    28  H    0.153719
    29  H    0.152410
    30  H    0.151651
    31  H    0.145286
    32  H    0.159367
    33  H    0.159362
    34  H    0.159382
 Sum of Mulliken charges =  -0.00000

 Dipole moment (field-independent basis, Debye):
    X=              4.8116    Y=             -0.9929    Z=              2.0871  Tot=              5.3379
 Quadrupole moment (field-independent basis, Debye-Ang):
   XX=           -121.0576   YY=            -92.5572   ZZ=            -92.1434
   XY=              2.2924   XZ=             -6.1410   YZ=              2.3382

 Normal termination of Gaussian 16 at Wed May  5 23:50:42 2021.
