 Gaussian 16, Revision A.03,
 Gaussian 16:  EM64L-G16RevA.03 25-Dec-2016

 -------------
 #p 6-31g* mp2
 -------------

 ------------------------------------------------------
 Input file generated by CHIRIPA (05-May-2021 14:55:25)
 ------------------------------------------------------
 Symbolic Z-matrix:
 Charge =  0 Multiplicity = 1

                         Standard orientation:
 ---------------------------------------------------------------------
 Center     Atomic      Atomic             Coordinates (Angstroms)
 Number     Number       Type             X           Y           Z
 ---------------------------------------------------------------------
      1          6           0        3.424080   -2.304339   -0.289124
      2          6           0        4.679686   -1.688643   -0.259250
      3          6           0        4.787238   -0.301712   -0.119959
      4          6           0        3.613265    0.442306   -0.012646
      5          6           0        2.347811   -0.141834   -0.039026
      6          6           0        2.264194   -1.530334   -0.179111
      7          1           0        3.349828   -3.382350   -0.397637
      8          1           0        5.582165   -2.287235   -0.344475
      9          1           0        5.746525    0.200787   -0.093844
     10          1           0        1.466058    0.481325    0.048169
     11          1           0        1.287736   -2.005782   -0.201999
     12          7           0        3.714456    1.911418    0.135235
     13          8           0        2.665086    2.544566    0.227889
     14          8           0        4.841223    2.401943    0.155691
     15          6           0       -4.220388   -0.810027    0.407749
     16          6           0       -2.819740   -1.045564   -0.158545
     17          6           0       -2.065522   -2.156462    0.572793
     18          1           0       -4.140395   -0.560035    1.474542
     19          1           0       -4.794472   -1.745043    0.348017
     20          1           0       -2.248923   -0.110020   -0.099035
     21          1           0       -2.903063   -1.294838   -1.224161
     22          1           0       -2.610783   -3.103213    0.502404
     23          1           0       -1.952926   -1.911664    1.633922
     24          1           0       -1.066721   -2.308084    0.151763
     25          6           0       -4.986877    0.297571   -0.312981
     26          6           0       -6.387525    0.533108    0.253313
     27          6           0       -7.141743    1.644006   -0.478025
     28          1           0       -4.412793    1.232587   -0.253249
     29          1           0       -5.066869    0.047578   -1.379775
     30          1           0       -6.304202    0.782382    1.318929
     31          1           0       -6.958342   -0.402436    0.193802
     32          1           0       -7.254338    1.399207   -1.539155
     33          1           0       -6.596481    2.590757   -0.407636
     34          1           0       -8.140544    1.795627   -0.056995
 ---------------------------------------------------------------------

 SCF Done:  E(RHF) =  -669.535501086     A.U. after   15 cycles
 E2 =    -0.2090797591D+01 EUMP2 =    -0.67162629867739D+03

 The electronic state is 1-A.
 Alpha  occ. eigenvalues --  -20.60743 -20.60738 -15.85796 -11.31153 -11.27723
 Alpha  occ. eigenvalues --  -11.27714 -11.27463 -11.26739 -11.26712 -11.22237
 Alpha  occ. eigenvalues --  -11.21989 -11.21812 -11.21790 -11.21635 -11.21185
 Alpha  occ. eigenvalues --   -1.59818  -1.39372  -1.19325  -1.08823  -1.08722
 Alpha  occ. eigenvalues --   -1.04727  -1.03970  -0.96432  -0.95558  -0.87453
 Alpha  occ. eigenvalues --   -0.86127  -0.82391  -0.80037  -0.78592  -0.77441
 Alpha  occ. eigenvalues --   -0.72015  -0.71141  -0.70434  -0.65444  -0.64977
 Alpha  occ. eigenvalues --   -0.64760  -0.62120  -0.61351  -0.59837  -0.58029
 Alpha  occ. eigenvalues --   -0.55696  -0.55232  -0.53288  -0.53056  -0.52923
 Alpha  occ. eigenvalues --   -0.52618  -0.50348  -0.48774  -0.48770  -0.48348
 Alpha  occ. eigenvalues --   -0.47050  -0.46144  -0.46037  -0.44779  -0.44216
 Alpha  occ. eigenvalues --   -0.37307  -0.36329
 Alpha virt. eigenvalues --    0.05096   0.11323   0.16590   0.19476   0.22714
 Alpha virt. eigenvalues --    0.23775   0.25831   0.26133   0.26968   0.28156
 Alpha virt. eigenvalues --    0.28820   0.29437   0.31062   0.31627   0.32201

 Mulliken charges:
               1
     1  C   -0.172757
     2  C   -0.218498
     3  C   -0.171147
     4  C    0.158699
     5  C   -0.174016
     6  C   -0.225356
     7  H    0.226255
     8  H    0.223254
     9  H    0.275454
    10  H    0.275683
    11  H    0.234507
    12  N    0.488159
    13  O   -0.460625
    14  O   -0.460611
    15  C   -0.299083
    16  C   -0.299903
    17  C   -0.480703
    18  H    0.151478
    19  H    0.150132
    20  H    0.152463
    21  H    0.153325
    22  H    0.159312
    23  H    0.159636
    24  H    0.149927
    25  C   -0.299167
    26  C   -0.300085
    27  C   -0.476109
    28  H    0.152168
    29  H    0.150005
    30  H    0.152841
    31  H    0.151688
    32  H    0.155300
    33  H    0.156791
    34  H    0.160984
 Sum of Mulliken charges =  -0.00000

 Dipole moment (field-independent basis, Debye):
    X=             -0.5438    Y=             -5.1536    Z=             -0.4999  Tot=              5.2062
 Quadrupole moment (field-independent basis, Debye-Ang):
   XX=            -91.8663   YY=           -100.1235   ZZ=            -95.3783
   XY=            -18.7085   XZ=             -2.1899   YZ=              0.6226

 Normal termination of Gaussian 16 at Thu May  6 16:02:36 2021.
