 Gaussian 16, Revision A.03,
 Gaussian 16:  EM64L-G16RevA.03 25-Dec-2016

 -------------
 #p 6-31g* mp2
 -------------

 ------------------------------------------------------
 Input file generated by CHIRIPA (05-May-2021 14:53:12)
 ------------------------------------------------------
 Symbolic Z-matrix:
 Charge =  0 Multiplicity = 1

                         Standard orientation:
 ---------------------------------------------------------------------
 Center     Atomic      Atomic             Coordinates (Angstroms)
 Number     Number       Type             X           Y           Z
 ---------------------------------------------------------------------
      1          6           0        3.139877   -0.204357   -0.582255
      2          6           0        2.591603   -1.619464   -0.768946
      3          6           0        1.104520   -1.635200   -1.124094
      4          1           0        2.567630    0.302613    0.206706
      5          1           0        2.976213    0.369466   -1.504934
      6          1           0        2.757497   -2.190865    0.153332
      7          1           0        3.165346   -2.123190   -1.557422
      8          1           0        0.925141   -1.088854   -2.055721
      9          1           0        0.514974   -1.156913   -0.335247
     10          1           0        0.733336   -2.656702   -1.252995
     11          6           0        4.625267   -0.172157   -0.226859
     12          6           0        5.173541    1.242950   -0.040169
     13          6           0        6.660624    1.258686    0.314979
     14          1           0        4.788931   -0.745980    0.695820
     15          1           0        5.197514   -0.679127   -1.015821
     16          1           0        4.599797    1.746676    0.748307
     17          1           0        5.007647    1.814351   -0.962447
     18          1           0        7.250170    0.780399   -0.473867
     19          1           0        6.840003    0.712339    1.246607
     20          1           0        7.031808    2.280188    0.443880
     21          6           0       -4.699480    1.179794   -1.272375
     22          6           0       -4.578945   -0.211406   -1.191414
     23          6           0       -3.659103   -0.794567   -0.314851
     24          6           0       -2.872175    0.047237    0.469624
     25          6           0       -2.968852    1.436694    0.411745
     26          6           0       -3.895466    1.997962   -0.471948
     27          1           0       -5.416665    1.624303   -1.956079
     28          1           0       -5.202046   -0.849271   -1.811833
     29          1           0       -3.545128   -1.868612   -0.232070
     30          1           0       -2.333942    2.046584    1.042888
     31          1           0       -3.986909    3.078698   -0.532715
     32          7           0       -1.894795   -0.558541    1.401377
     33          8           0       -1.213137    0.205010    2.081796
     34          8           0       -1.828889   -1.785428    1.433623
 ---------------------------------------------------------------------

 SCF Done:  E(RHF) =  -669.535883595     A.U. after   15 cycles
 E2 =    -0.2091200814D+01 EUMP2 =    -0.67162708440875D+03

 The electronic state is 1-A.
 Alpha  occ. eigenvalues --  -20.60868 -20.60855 -15.85894 -11.31220 -11.27790
 Alpha  occ. eigenvalues --  -11.27784 -11.27531 -11.26798 -11.26787 -11.21132
 Alpha  occ. eigenvalues --  -11.20873 -11.20821 -11.20692 -11.20672 -11.20309
 Alpha  occ. eigenvalues --   -1.59938  -1.39488  -1.19392  -1.08799  -1.07821
 Alpha  occ. eigenvalues --   -1.04790  -1.02928  -0.95641  -0.95383  -0.86406
 Alpha  occ. eigenvalues --   -0.86191  -0.82474  -0.79009  -0.77634  -0.77526
 Alpha  occ. eigenvalues --   -0.72120  -0.71277  -0.70505  -0.65048  -0.64796
 Alpha  occ. eigenvalues --   -0.64440  -0.62138  -0.60311  -0.58758  -0.56996
 Alpha  occ. eigenvalues --   -0.55299  -0.54660  -0.53119  -0.52884  -0.52084
 Alpha  occ. eigenvalues --   -0.51822  -0.49338  -0.48881  -0.48865  -0.47327
 Alpha  occ. eigenvalues --   -0.46034  -0.45181  -0.45085  -0.44873  -0.43180
 Alpha  occ. eigenvalues --   -0.37373  -0.36389
 Alpha virt. eigenvalues --    0.04992   0.11264   0.16475   0.21388   0.23482
 Alpha virt. eigenvalues --    0.24882   0.27209   0.27303   0.27989   0.28241
 Alpha virt. eigenvalues --    0.28575   0.30864   0.31884   0.32352   0.32375

 Mulliken charges:
               1
     1  C   -0.300178
     2  C   -0.298648
     3  C   -0.477081
     4  H    0.156716
     5  H    0.144983
     6  H    0.157041
     7  H    0.147771
     8  H    0.147299
     9  H    0.162320
    10  H    0.160799
    11  C   -0.298046
    12  C   -0.299507
    13  C   -0.475421
    14  H    0.151322
    15  H    0.147404
    16  H    0.153413
    17  H    0.149580
    18  H    0.153972
    19  H    0.155800
    20  H    0.158594
    21  C   -0.170547
    22  C   -0.218674
    23  C   -0.170085
    24  C    0.157659
    25  C   -0.170735
    26  C   -0.218641
    27  H    0.225728
    28  H    0.223605
    29  H    0.275953
    30  H    0.275580
    31  H    0.223552
    32  N    0.487355
    33  O   -0.460901
    34  O   -0.457981
 Sum of Mulliken charges =  -0.00000

 Dipole moment (field-independent basis, Debye):
    X=             -3.5874    Y=              2.0980    Z=             -3.1733  Tot=              5.2289
 Quadrupole moment (field-independent basis, Debye-Ang):
   XX=            -76.7387   YY=            -90.4763   ZZ=            -97.4414
   XY=             -5.2149   XZ=              8.3885   YZ=              2.1901

 Normal termination of Gaussian 16 at Wed May  5 20:09:04 2021.
