 Gaussian 16, Revision A.03,
 Gaussian 16:  EM64L-G16RevA.03 25-Dec-2016

 -------------
 #p 6-31g* mp2
 -------------

 ------------------------------------------------------
 Input file generated by CHIRIPA (05-May-2021 14:51:08)
 ------------------------------------------------------
 Symbolic Z-matrix:
 Charge =  0 Multiplicity = 1

                         Standard orientation:
 ---------------------------------------------------------------------
 Center     Atomic      Atomic             Coordinates (Angstroms)
 Number     Number       Type             X           Y           Z
 ---------------------------------------------------------------------
      1          6           0        2.516713   -0.577390   -0.162447
      2          6           0        2.686162   -1.581154   -1.303380
      3          6           0        1.728886   -2.768300   -1.193377
      4          1           0        2.675591   -1.090798    0.795736
      5          1           0        1.479788   -0.213915   -0.154136
      6          1           0        3.722818   -1.941587   -1.310399
      7          1           0        2.527051   -1.065255   -2.258968
      8          1           0        0.688708   -2.427147   -1.209006
      9          1           0        1.891269   -3.308458   -0.255048
     10          1           0        1.867130   -3.473347   -2.019003
     11          6           0        3.466790    0.615026   -0.258507
     12          6           0        3.297340    1.618790    0.882425
     13          6           0        4.254616    2.805936    0.772422
     14          1           0        4.503714    0.251551   -0.266819
     15          1           0        3.307912    1.128433   -1.216691
     16          1           0        3.456451    1.102891    1.838013
     17          1           0        2.260684    1.979223    0.889444
     18          1           0        4.092233    3.346094   -0.165907
     19          1           0        5.294795    2.464783    0.788051
     20          1           0        4.116372    3.510983    1.598048
     21          6           0       -2.782200   -0.444853    0.808821
     22          6           0       -2.188846   -1.797124    0.412234
     23          6           0       -1.774425   -2.637961    1.620141
     24          1           0       -2.047057    0.109335    1.408308
     25          1           0       -3.653395   -0.610645    1.457610
     26          1           0       -1.319859   -1.628864   -0.236739
     27          1           0       -2.925415   -2.348077   -0.186541
     28          1           0       -2.636048   -2.835101    2.266162
     29          1           0       -1.021369   -2.111801    2.215678
     30          1           0       -1.352880   -3.600393    1.313734
     31          6           0       -3.201302    0.407217   -0.387866
     32          6           0       -3.794656    1.759488    0.008721
     33          6           0       -4.209078    2.600325   -1.199187
     34          1           0       -2.330108    0.573009   -1.036656
     35          1           0       -3.936446   -0.146970   -0.987354
     36          1           0       -3.058086    2.310441    0.607496
     37          1           0       -4.663644    1.591228    0.657694
     38          1           0       -4.962133    2.074165   -1.794724
     39          1           0       -3.347454    2.797465   -1.845207
     40          1           0       -4.630622    3.562757   -0.892779
 ---------------------------------------------------------------------

 SCF Done:  E(RHF) =  -470.733311731     A.U. after   11 cycles
 E2 =    -0.1583022104D+01 EUMP2 =    -0.47231633383484D+03

 The electronic state is 1-A.
 Alpha  occ. eigenvalues --  -11.21645 -11.21631 -11.21621 -11.21582 -11.21453
 Alpha  occ. eigenvalues --  -11.21419 -11.21393 -11.21356 -11.21103 -11.21090
 Alpha  occ. eigenvalues --  -11.21063 -11.21029  -1.08475  -1.08435  -1.03576
 Alpha  occ. eigenvalues --   -1.03515  -0.96021  -0.95965  -0.87027  -0.86992
 Alpha  occ. eigenvalues --   -0.79666  -0.79560  -0.78311  -0.78229  -0.65173
 Alpha  occ. eigenvalues --   -0.65010  -0.61074  -0.60835  -0.59404  -0.59320
 Alpha  occ. eigenvalues --   -0.57694  -0.57514  -0.55344  -0.55222  -0.52701
 Alpha  occ. eigenvalues --   -0.52674  -0.52434  -0.52391  -0.50026  -0.49869
 Alpha  occ. eigenvalues --   -0.48052  -0.47835  -0.46829  -0.46482  -0.45944
 Alpha  occ. eigenvalues --   -0.45788  -0.45759  -0.45482  -0.43820  -0.43783
 Alpha virt. eigenvalues --    0.20426   0.23327   0.23435   0.25028   0.25607
 Alpha virt. eigenvalues --    0.26706   0.26801   0.27661   0.28497   0.29079
 Alpha virt. eigenvalues --    0.30384   0.31218   0.31542   0.31947   0.32046

 Mulliken charges:
               1
     1  C   -0.299235
     2  C   -0.299556
     3  C   -0.482518
     4  H    0.149996
     5  H    0.149194
     6  H    0.152157
     7  H    0.151769
     8  H    0.162012
     9  H    0.155650
    10  H    0.160401
    11  C   -0.298324
    12  C   -0.299610
    13  C   -0.475731
    14  H    0.149898
    15  H    0.149676
    16  H    0.152055
    17  H    0.151447
    18  H    0.155236
    19  H    0.155343
    20  H    0.160359
    21  C   -0.297869
    22  C   -0.306978
    23  C   -0.475602
    24  H    0.149731
    25  H    0.149676
    26  H    0.157962
    27  H    0.151906
    28  H    0.154839
    29  H    0.155542
    30  H    0.161189
    31  C   -0.298218
    32  C   -0.299640
    33  C   -0.475693
    34  H    0.148481
    35  H    0.149861
    36  H    0.151861
    37  H    0.152139
    38  H    0.155273
    39  H    0.154973
    40  H    0.160349
 Sum of Mulliken charges =  -0.00000

 Dipole moment (field-independent basis, Debye):
    X=              0.0100    Y=             -0.0139    Z=              0.0051  Tot=              0.0178
 Quadrupole moment (field-independent basis, Debye-Ang):
   XX=            -83.8770   YY=            -85.6917   ZZ=            -85.0849
   XY=             -0.2771   XZ=              0.0674   YZ=              0.2016

 Normal termination of Gaussian 16 at Thu May  6 06:52:36 2021.
