 Gaussian 16, Revision A.03,
 Gaussian 16:  EM64L-G16RevA.03 25-Dec-2016

 -------------
 #p 6-31g* mp2
 -------------

 ------------------------------------------------------
 Input file generated by CHIRIPA (05-May-2021 14:57:24)
 ------------------------------------------------------
 Symbolic Z-matrix:
 Charge =  0 Multiplicity = 1

                         Standard orientation:
 ---------------------------------------------------------------------
 Center     Atomic      Atomic             Coordinates (Angstroms)
 Number     Number       Type             X           Y           Z
 ---------------------------------------------------------------------
      1          6           0        0.167399   -1.742426    0.316742
      2          6           0        0.984997   -1.501938    1.425895
      3          6           0        2.223842   -0.872638    1.271648
      4          6           0        2.615502   -0.495409   -0.011937
      5          6           0        1.823367   -0.721183   -1.136588
      6          6           0        0.588452   -1.351969   -0.958711
      7          1           0       -0.793439   -2.231859    0.445743
      8          1           0        0.660578   -1.804081    2.417614
      9          1           0        2.876615   -0.674257    2.113046
     10          1           0        2.173901   -0.408499   -2.112688
     11          1           0       -0.044429   -1.537456   -1.821904
     12          7           0        3.924932    0.171589   -0.187740
     13          8           0        4.247075    0.494225   -1.329128
     14          8           0        4.604326    0.359117    0.819183
     15          6           0       -4.095106   -1.239915   -0.311213
     16          6           0       -3.816199   -0.742668    0.966081
     17          6           0       -2.878693    0.279613    1.140927
     18          6           0       -2.235787    0.783731    0.011403
     19          6           0       -2.491965    0.309303   -1.274125
     20          6           0       -3.433266   -0.713270   -1.425275
     21          1           0       -4.824857   -2.034160   -0.437833
     22          1           0       -4.328667   -1.149763    1.833085
     23          1           0       -2.643623    0.683085    2.118358
     24          1           0       -1.965030    0.735181   -2.119337
     25          1           0       -3.647861   -1.097497   -2.418433
     26          7           0       -1.241282    1.866128    0.183962
     27          8           0       -0.688457    2.293315   -0.827242
     28          8           0       -1.033445    2.266829    1.327151
 ---------------------------------------------------------------------

 SCF Done:  E(RHF) =  -868.335859056     A.U. after   16 cycles
 E2 =    -0.2605630914D+01 EUMP2 =    -0.87094148997044D+03

 The electronic state is 1-A.
 Alpha  occ. eigenvalues --  -20.61287 -20.61266 -20.60232 -20.60224 -15.86330
 Alpha  occ. eigenvalues --  -15.85293 -11.31964 -11.30736 -11.28609 -11.28601
 Alpha  occ. eigenvalues --  -11.28444 -11.27728 -11.27711 -11.27381 -11.27376
 Alpha  occ. eigenvalues --  -11.27169 -11.26428 -11.26417  -1.60332  -1.59299
 Alpha  occ. eigenvalues --   -1.39885  -1.38853  -1.20248  -1.18970  -1.09558
 Alpha  occ. eigenvalues --   -1.08361  -1.05700  -1.04403  -0.96339  -0.95166
 Alpha  occ. eigenvalues --   -0.87054  -0.85803  -0.83174  -0.82008  -0.78166
 Alpha  occ. eigenvalues --   -0.77022  -0.72559  -0.71671  -0.71521  -0.71316
 Alpha  occ. eigenvalues --   -0.70606  -0.70110  -0.65871  -0.65670  -0.64637
 Alpha  occ. eigenvalues --   -0.64462  -0.63014  -0.61762  -0.56149  -0.55100
 Alpha  occ. eigenvalues --   -0.54028  -0.53755  -0.52569  -0.52477  -0.49333
 Alpha  occ. eigenvalues --   -0.49297  -0.48286  -0.48260  -0.45250  -0.44243
 Alpha  occ. eigenvalues --   -0.38583  -0.37433  -0.36592  -0.35844
 Alpha virt. eigenvalues --    0.04332   0.05561   0.09899   0.12074   0.15712
 Alpha virt. eigenvalues --    0.16995   0.20327   0.21811   0.25932   0.27266
 Alpha virt. eigenvalues --    0.28131   0.28460   0.30117   0.31100   0.31864

 Mulliken charges:
               1
     1  C   -0.176083
     2  C   -0.219642
     3  C   -0.165796
     4  C    0.160015
     5  C   -0.162463
     6  C   -0.221757
     7  H    0.224753
     8  H    0.220139
     9  H    0.276293
    10  H    0.275901
    11  H    0.215149
    12  N    0.489133
    13  O   -0.460010
    14  O   -0.460701
    15  C   -0.174576
    16  C   -0.223173
    17  C   -0.174129
    18  C    0.168572
    19  C   -0.174890
    20  C   -0.224007
    21  H    0.228273
    22  H    0.225690
    23  H    0.277563
    24  H    0.276425
    25  H    0.225253
    26  N    0.490101
    27  O   -0.457590
    28  O   -0.458442
 Sum of Mulliken charges =  -0.00000

 Dipole moment (field-independent basis, Debye):
    X=             -8.0703    Y=             -5.8906    Z=              0.0513  Tot=              9.9916
 Quadrupole moment (field-independent basis, Debye-Ang):
   XX=           -114.1162   YY=           -110.1967   ZZ=            -95.1280
   XY=              1.9703   XZ=              2.9758   YZ=             -1.2557

 Normal termination of Gaussian 16 at Thu May  6 13:03:26 2021.
