 Gaussian 16, Revision A.03,
 Gaussian 16:  EM64L-G16RevA.03 25-Dec-2016

 -------------
 #p 6-31g* mp2
 -------------

 ------------------------------------------------------
 Input file generated by CHIRIPA (05-May-2021 14:57:23)
 ------------------------------------------------------
 Symbolic Z-matrix:
 Charge =  0 Multiplicity = 1

                         Standard orientation:
 ---------------------------------------------------------------------
 Center     Atomic      Atomic             Coordinates (Angstroms)
 Number     Number       Type             X           Y           Z
 ---------------------------------------------------------------------
      1          6           0       -2.351501    2.339887    0.939970
      2          6           0       -2.531553    1.138258    1.632929
      3          6           0       -2.472124   -0.085480    0.959519
      4          6           0       -2.229741   -0.070597   -0.413186
      5          6           0       -2.046236    1.109890   -1.131564
      6          6           0       -2.109843    2.321899   -0.437636
      7          1           0       -2.399289    3.285960    1.471061
      8          1           0       -2.719377    1.149194    2.702811
      9          1           0       -2.607883   -1.030498    1.471308
     10          1           0       -1.860576    1.067019   -2.197918
     11          1           0       -1.969632    3.253552   -0.978383
     12          7           0       -2.164615   -1.359905   -1.136956
     13          8           0       -1.949748   -1.319803   -2.346444
     14          8           0       -2.329670   -2.386154   -0.481055
     15          6           0        1.115655   -1.944836    1.654088
     16          6           0        2.002339   -2.291527    0.629335
     17          6           0        2.631279   -1.300936   -0.130739
     18          6           0        2.349218    0.032405    0.162403
     19          6           0        1.470660    0.409639    1.176857
     20          6           0        0.853108   -0.597734    1.924102
     21          1           0        0.631502   -2.720870    2.239548
     22          1           0        2.208130   -3.336889    0.417408
     23          1           0        3.322016   -1.541257   -0.929832
     24          1           0        1.285476    1.460293    1.364611
     25          1           0        0.164948   -0.325548    2.719335
     26          7           0        3.009021    1.089982   -0.635463
     27          8           0        2.743675    2.257410   -0.357360
     28          8           0        3.779027    0.731459   -1.523827
 ---------------------------------------------------------------------

 SCF Done:  E(RHF) =  -868.337739377     A.U. after   16 cycles
 E2 =    -0.2603337775D+01 EUMP2 =    -0.87094107715228D+03

 The electronic state is 1-A.
 Alpha  occ. eigenvalues --  -20.61151 -20.61122 -20.60773 -20.60740 -15.86190
 Alpha  occ. eigenvalues --  -15.85809 -11.31541 -11.31060 -11.28231 -11.28080
 Alpha  occ. eigenvalues --  -11.27899 -11.27650 -11.27558 -11.27309 -11.27237
 Alpha  occ. eigenvalues --  -11.27069 -11.26661 -11.26532  -1.60206  -1.59836
 Alpha  occ. eigenvalues --   -1.39763  -1.39393  -1.19758  -1.19220  -1.09137
 Alpha  occ. eigenvalues --   -1.08636  -1.05180  -1.04600  -0.95973  -0.95485
 Alpha  occ. eigenvalues --   -0.86556  -0.86014  -0.82815  -0.82321  -0.77859
 Alpha  occ. eigenvalues --   -0.77394  -0.72419  -0.72032  -0.71522  -0.71156
 Alpha  occ. eigenvalues --   -0.70862  -0.70309  -0.65413  -0.65163  -0.64871
 Alpha  occ. eigenvalues --   -0.64630  -0.62519  -0.61969  -0.55651  -0.55104
 Alpha  occ. eigenvalues --   -0.53816  -0.53251  -0.52728  -0.52589  -0.49181
 Alpha  occ. eigenvalues --   -0.49161  -0.48792  -0.48776  -0.45177  -0.44824
 Alpha  occ. eigenvalues --   -0.37814  -0.37421  -0.36742  -0.35827
 Alpha virt. eigenvalues --    0.04673   0.05141   0.10521   0.11790   0.16043
 Alpha virt. eigenvalues --    0.16710   0.20397   0.21966   0.26176   0.27667
 Alpha virt. eigenvalues --    0.27926   0.28932   0.30114   0.31632   0.32257

 Mulliken charges:
               1
     1  C   -0.173363
     2  C   -0.225819
     3  C   -0.169549
     4  C    0.163408
     5  C   -0.170031
     6  C   -0.216366
     7  H    0.228152
     8  H    0.220403
     9  H    0.270166
    10  H    0.279563
    11  H    0.229989
    12  N    0.488948
    13  O   -0.457273
    14  O   -0.465270
    15  C   -0.168592
    16  C   -0.215622
    17  C   -0.170105
    18  C    0.156470
    19  C   -0.169960
    20  C   -0.217167
    21  H    0.227403
    22  H    0.227305
    23  H    0.276694
    24  H    0.270987
    25  H    0.215199
    26  N    0.488273
    27  O   -0.465175
    28  O   -0.458668
 Sum of Mulliken charges =  -0.00000

 Dipole moment (field-independent basis, Debye):
    X=             -2.5703    Y=              0.7693    Z=              5.1021  Tot=              5.7645
 Quadrupole moment (field-independent basis, Debye-Ang):
   XX=           -115.0145   YY=           -102.3481   ZZ=           -101.8128
   XY=            -21.1582   XZ=             -1.4620   YZ=             -3.0505

 Normal termination of Gaussian 16 at Thu May  6 06:38:57 2021.
