 Gaussian 16, Revision A.03,
 Gaussian 16:  EM64L-G16RevA.03 25-Dec-2016

 -------------
 #p 6-31g* mp2
 -------------

 ------------------------------------------------------
 Input file generated by CHIRIPA (05-May-2021 14:51:11)
 ------------------------------------------------------
 Symbolic Z-matrix:
 Charge =  0 Multiplicity = 1

                         Standard orientation:
 ---------------------------------------------------------------------
 Center     Atomic      Atomic             Coordinates (Angstroms)
 Number     Number       Type             X           Y           Z
 ---------------------------------------------------------------------
      1          6           0        2.708918   -1.522465    0.081279
      2          6           0        1.231457   -1.650868   -0.291022
      3          6           0        0.683884   -3.059623   -0.060005
      4          1           0        3.292484   -2.245021   -0.505498
      5          1           0        2.839283   -1.799024    1.136701
      6          1           0        1.103709   -1.372818   -1.345054
      7          1           0        0.651364   -0.927790    0.296571
      8          1           0        0.782244   -3.343319    0.992821
      9          1           0        1.237160   -3.790876   -0.658132
     10          1           0       -0.373809   -3.128944   -0.332657
     11          6           0        3.270786   -0.119887   -0.144125
     12          6           0        4.748246    0.008517    0.228176
     13          6           0        5.295819    1.417271   -0.002841
     14          1           0        3.140420    0.156673   -1.199546
     15          1           0        2.687219    0.602669    0.442653
     16          1           0        5.328340   -0.714561   -0.359416
     17          1           0        4.875995   -0.269533    1.282209
     18          1           0        4.742544    2.148525    0.595286
     19          1           0        5.197459    1.700968   -1.055666
     20          1           0        6.353513    1.486593    0.269811
     21          6           0       -3.334789    0.216942    0.346623
     22          6           0       -4.594684   -0.220478   -0.401251
     23          6           0       -5.273524   -1.430424    0.241401
     24          1           0       -2.628643   -0.623768    0.385445
     25          1           0       -3.597706    0.452610    1.387167
     26          1           0       -4.329712   -0.453923   -1.440437
     27          1           0       -5.297835    0.621431   -0.438463
     28          1           0       -5.565906   -1.205684    1.272228
     29          1           0       -4.592283   -2.287148    0.264560
     30          1           0       -6.171946   -1.726169   -0.309265
     31          6           0       -2.644914    1.425410   -0.283778
     32          6           0       -1.385020    1.862829    0.464096
     33          6           0       -0.706179    3.072775   -0.178555
     34          1           0       -2.381997    1.189742   -1.324322
     35          1           0       -3.351061    2.266120   -0.322599
     36          1           0       -0.681870    1.020920    0.501308
     37          1           0       -1.649992    2.096274    1.503283
     38          1           0       -1.387420    3.929500   -0.201715
     39          1           0       -0.413797    2.848036   -1.209383
     40          1           0        0.192243    3.368520    0.372111
 ---------------------------------------------------------------------

 SCF Done:  E(RHF) =  -470.733388487     A.U. after   11 cycles
 E2 =    -0.1583206847D+01 EUMP2 =    -0.47231659533337D+03

 The electronic state is 1-A.
 Alpha  occ. eigenvalues --  -11.21662 -11.21621 -11.21597 -11.21566 -11.21442
 Alpha  occ. eigenvalues --  -11.21394 -11.21380 -11.21333 -11.21140 -11.21080
 Alpha  occ. eigenvalues --  -11.21067 -11.21051  -1.08476  -1.08413  -1.03576
 Alpha  occ. eigenvalues --   -1.03513  -0.96017  -0.95964  -0.87037  -0.86978
 Alpha  occ. eigenvalues --   -0.79685  -0.79544  -0.78333  -0.78183  -0.65180
 Alpha  occ. eigenvalues --   -0.64981  -0.61040  -0.60851  -0.59395  -0.59326
 Alpha  occ. eigenvalues --   -0.57635  -0.57573  -0.55303  -0.55249  -0.52717
 Alpha  occ. eigenvalues --   -0.52658  -0.52457  -0.52378  -0.49994  -0.49884
 Alpha  occ. eigenvalues --   -0.48098  -0.47817  -0.46877  -0.46496  -0.46009
 Alpha  occ. eigenvalues --   -0.45775  -0.45735  -0.45325  -0.43823  -0.43770
 Alpha virt. eigenvalues --    0.20488   0.22879   0.23751   0.24121   0.25689
 Alpha virt. eigenvalues --    0.26677   0.27178   0.27303   0.28136   0.29207
 Alpha virt. eigenvalues --    0.30576   0.31520   0.31719   0.31757   0.32403

 Mulliken charges:
               1
     1  C   -0.297651
     2  C   -0.308856
     3  C   -0.475515
     4  H    0.149890
     5  H    0.149635
     6  H    0.151606
     7  H    0.160296
     8  H    0.155631
     9  H    0.155621
    10  H    0.159790
    11  C   -0.299087
    12  C   -0.299723
    13  C   -0.475666
    14  H    0.149556
    15  H    0.150296
    16  H    0.152030
    17  H    0.151990
    18  H    0.155233
    19  H    0.155306
    20  H    0.160301
    21  C   -0.299752
    22  C   -0.299665
    23  C   -0.475650
    24  H    0.150538
    25  H    0.149425
    26  H    0.151924
    27  H    0.152011
    28  H    0.155192
    29  H    0.155062
    30  H    0.160256
    31  C   -0.297426
    32  C   -0.308952
    33  C   -0.474922
    34  H    0.149658
    35  H    0.149586
    36  H    0.160295
    37  H    0.151412
    38  H    0.155012
    39  H    0.155595
    40  H    0.159715
 Sum of Mulliken charges =  -0.00000

 Dipole moment (field-independent basis, Debye):
    X=              0.0240    Y=             -0.0096    Z=             -0.0027  Tot=              0.0260
 Quadrupole moment (field-independent basis, Debye-Ang):
   XX=            -85.0423   YY=            -86.0448   ZZ=            -83.6535
   XY=             -1.4877   XZ=             -0.3084   YZ=              1.0092

 Normal termination of Gaussian 16 at Wed May  5 15:13:00 2021.
