 Gaussian 16, Revision A.03,
 Gaussian 16:  EM64L-G16RevA.03 25-Dec-2016

 -------------
 #p 6-31g* mp2
 -------------

 ------------------------------------------------------
 Input file generated by CHIRIPA (05-May-2021 14:53:16)
 ------------------------------------------------------
 Symbolic Z-matrix:
 Charge =  0 Multiplicity = 1

                         Standard orientation:
 ---------------------------------------------------------------------
 Center     Atomic      Atomic             Coordinates (Angstroms)
 Number     Number       Type             X           Y           Z
 ---------------------------------------------------------------------
      1          6           0       -5.035339   -0.635626   -0.056674
      2          6           0       -6.546875   -0.409624   -0.103225
      3          6           0       -7.341813   -1.714312   -0.042730
      4          1           0       -4.742083   -1.284467   -0.893305
      5          1           0       -4.781003   -1.178683    0.864085
      6          1           0       -6.798123    0.134061   -1.022952
      7          1           0       -6.836540    0.238911    0.733502
      8          1           0       -7.120196   -2.257958    0.881356
      9          1           0       -7.081561   -2.363403   -0.885078
     10          1           0       -8.420003   -1.529466   -0.077346
     11          6           0       -4.227057    0.659308   -0.116295
     12          6           0       -2.715521    0.433306   -0.069744
     13          6           0       -1.920583    1.737993   -0.130239
     14          1           0       -4.481393    1.202365   -1.037053
     15          1           0       -4.520313    1.308149    0.720336
     16          1           0       -2.425856   -0.215229   -0.906471
     17          1           0       -2.464273   -0.110379    0.849983
     18          1           0       -2.180835    2.387085    0.712109
     19          1           0       -2.142200    2.281640   -1.054325
     20          1           0       -0.842393    1.553148   -0.095623
     21          6           0        1.914489    1.800952    0.499677
     22          6           0        2.559646    1.728210   -0.739274
     23          6           0        3.505313    0.729459   -0.989790
     24          6           0        3.782824   -0.184255    0.025791
     25          6           0        3.156890   -0.138009    1.270523
     26          6           0        2.214641    0.869253    1.498860
     27          1           0        1.181199    2.580111    0.685670
     28          1           0        2.328536    2.450432   -1.517109
     29          1           0        4.019641    0.650000   -1.939828
     30          1           0        3.408262   -0.872148    2.026347
     31          1           0        1.715163    0.923319    2.462003
     32          7           0        4.782151   -1.246092   -0.227679
     33          8           0        5.008917   -2.039094    0.683563
     34          8           0        5.319734   -1.265252   -1.332792
 ---------------------------------------------------------------------

 SCF Done:  E(RHF) =  -669.535097852     A.U. after   15 cycles
 E2 =    -0.2091618785D+01 EUMP2 =    -0.67162671663680D+03

 The electronic state is 1-A.
 Alpha  occ. eigenvalues --  -20.60781 -20.60776 -15.85835 -11.31215 -11.27783
 Alpha  occ. eigenvalues --  -11.27780 -11.27491 -11.26802 -11.26792 -11.22202
 Alpha  occ. eigenvalues --  -11.21919 -11.21870 -11.21862 -11.21741 -11.21323
 Alpha  occ. eigenvalues --   -1.59857  -1.39410  -1.19393  -1.08888  -1.08785
 Alpha  occ. eigenvalues --   -1.04792  -1.04015  -0.96492  -0.95614  -0.87514
 Alpha  occ. eigenvalues --   -0.86188  -0.82447  -0.80085  -0.78672  -0.77487
 Alpha  occ. eigenvalues --   -0.72053  -0.71180  -0.70521  -0.65512  -0.65040
 Alpha  occ. eigenvalues --   -0.64792  -0.62135  -0.61410  -0.59906  -0.58095
 Alpha  occ. eigenvalues --   -0.55775  -0.55324  -0.53409  -0.53005  -0.52880
 Alpha  occ. eigenvalues --   -0.52733  -0.50422  -0.48813  -0.48807  -0.48391
 Alpha  occ. eigenvalues --   -0.47104  -0.46222  -0.46132  -0.44812  -0.44271
 Alpha  occ. eigenvalues --   -0.37317  -0.36399
 Alpha virt. eigenvalues --    0.05000   0.11248   0.16394   0.21077   0.22510
 Alpha virt. eigenvalues --    0.24020   0.26202   0.26818   0.27182   0.27320
 Alpha virt. eigenvalues --    0.28700   0.30596   0.30970   0.31598   0.32193

 Mulliken charges:
               1
     1  C   -0.298685
     2  C   -0.299914
     3  C   -0.475957
     4  H    0.151038
     5  H    0.149912
     6  H    0.152257
     7  H    0.151816
     8  H    0.155579
     9  H    0.156018
    10  H    0.161039
    11  C   -0.298851
    12  C   -0.297691
    13  C   -0.485777
    14  H    0.150117
    15  H    0.149188
    16  H    0.155284
    17  H    0.151765
    18  H    0.152155
    19  H    0.156274
    20  H    0.160849
    21  C   -0.171153
    22  C   -0.219872
    23  C   -0.170752
    24  C    0.158790
    25  C   -0.170761
    26  C   -0.219997
    27  H    0.230102
    28  H    0.224313
    29  H    0.275760
    30  H    0.275741
    31  H    0.224008
    32  N    0.488059
    33  O   -0.460324
    34  O   -0.460330
 Sum of Mulliken charges =  -0.00000

 Dipole moment (field-independent basis, Debye):
    X=             -3.5752    Y=              3.6958    Z=              0.8758  Tot=              5.2162
 Quadrupole moment (field-independent basis, Debye-Ang):
   XX=           -122.2046   YY=            -96.9741   ZZ=            -89.4615
   XY=             14.7880   XZ=              2.6143   YZ=             -1.8934

 Normal termination of Gaussian 16 at Thu May  6 18:53:27 2021.
