 Gaussian 16, Revision A.03,
 Gaussian 16:  EM64L-G16RevA.03 25-Dec-2016

 -------------
 #p 6-31g* mp2
 -------------

 ------------------------------------------------------
 Input file generated by CHIRIPA (05-May-2021 14:57:21)
 ------------------------------------------------------
 Symbolic Z-matrix:
 Charge =  0 Multiplicity = 1

                         Standard orientation:
 ---------------------------------------------------------------------
 Center     Atomic      Atomic             Coordinates (Angstroms)
 Number     Number       Type             X           Y           Z
 ---------------------------------------------------------------------
      1          6           0       -2.175557    2.198089    1.165659
      2          6           0       -2.406328    1.078147    1.971262
      3          6           0       -2.952272   -0.087952    1.426554
      4          6           0       -3.256960   -0.099352    0.066287
      5          6           0       -3.038729    1.000189   -0.762371
      6          6           0       -2.491936    2.155610   -0.196185
      7          1           0       -1.751125    3.099795    1.597144
      8          1           0       -2.161597    1.108276    3.029205
      9          1           0       -3.141244   -0.969342    2.027268
     10          1           0       -3.292950    0.940019   -1.813642
     11          1           0       -2.313798    3.023866   -0.824233
     12          7           0       -3.835377   -1.328197   -0.521740
     13          8           0       -4.095144   -1.312799   -1.722956
     14          8           0       -4.018019   -2.283495    0.229715
     15          6           0        0.758245    0.420176   -0.725132
     16          6           0        1.790410    1.170768   -1.297643
     17          6           0        3.125711    0.889663   -0.993503
     18          6           0        3.393981   -0.153771   -0.108876
     19          6           0        2.387725   -0.919671    0.477757
     20          6           0        1.059666   -0.620812    0.159181
     21          1           0       -0.276236    0.645441   -0.967002
     22          1           0        1.559287    1.979793   -1.984741
     23          1           0        3.944292    1.454805   -1.422404
     24          1           0        2.649347   -1.720034    1.159219
     25          1           0        0.260118   -1.205402    0.605302
     26          7           0        4.803771   -0.460763    0.220745
     27          8           0        5.013753   -1.385190    1.003035
     28          8           0        5.672087    0.228859   -0.309431
 ---------------------------------------------------------------------

 SCF Done:  E(RHF) =  -868.336689611     A.U. after   16 cycles
 E2 =    -0.2602972535D+01 EUMP2 =    -0.87093966214562D+03

 The electronic state is 1-A.
 Alpha  occ. eigenvalues --  -20.61864 -20.61859 -20.60819 -20.60813 -15.86928
 Alpha  occ. eigenvalues --  -15.85875 -11.32549 -11.31213 -11.29071 -11.29066
 Alpha  occ. eigenvalues --  -11.28745 -11.28099 -11.28052 -11.27827 -11.27785
 Alpha  occ. eigenvalues --  -11.27350 -11.26812 -11.26723  -1.60941  -1.59897
 Alpha  occ. eigenvalues --   -1.40485  -1.39451  -1.20727  -1.19388  -1.10023
 Alpha  occ. eigenvalues --   -1.08769  -1.06134  -1.04800  -0.96822  -0.95612
 Alpha  occ. eigenvalues --   -0.87470  -0.86190  -0.83638  -0.82457  -0.78675
 Alpha  occ. eigenvalues --   -0.77519  -0.73121  -0.72297  -0.72089  -0.71697
 Alpha  occ. eigenvalues --   -0.71223  -0.70513  -0.66309  -0.66045  -0.65031
 Alpha  occ. eigenvalues --   -0.64825  -0.63422  -0.62161  -0.56501  -0.55838
 Alpha  occ. eigenvalues --   -0.54142  -0.53899  -0.53090  -0.52876  -0.49904
 Alpha  occ. eigenvalues --   -0.49874  -0.48850  -0.48848  -0.45833  -0.44863
 Alpha  occ. eigenvalues --   -0.38755  -0.37738  -0.37240  -0.36415
 Alpha virt. eigenvalues --    0.03798   0.05032   0.09801   0.11241   0.15247
 Alpha virt. eigenvalues --    0.16552   0.20213   0.21638   0.25952   0.26984
 Alpha virt. eigenvalues --    0.27358   0.28774   0.29948   0.31149   0.31967

 Mulliken charges:
               1
     1  C   -0.166431
     2  C   -0.216569
     3  C   -0.176959
     4  C    0.162094
     5  C   -0.188154
     6  C   -0.225843
     7  H    0.232138
     8  H    0.230081
     9  H    0.279717
    10  H    0.279429
    11  H    0.227301
    12  N    0.487783
    13  O   -0.456970
    14  O   -0.456973
    15  C   -0.172684
    16  C   -0.224836
    17  C   -0.170562
    18  C    0.157383
    19  C   -0.171178
    20  C   -0.224414
    21  H    0.236190
    22  H    0.219056
    23  H    0.274701
    24  H    0.275551
    25  H    0.223621
    26  N    0.488033
    27  O   -0.460408
    28  O   -0.461097
 Sum of Mulliken charges =  -0.00000

 Dipole moment (field-independent basis, Debye):
    X=             -3.2974    Y=              5.4512    Z=              1.0942  Tot=              6.4642
 Quadrupole moment (field-independent basis, Debye-Ang):
   XX=           -152.3864   YY=           -102.8008   ZZ=            -98.7686
   XY=             -8.9048   XZ=            -11.1511   YZ=             -4.4236

 Normal termination of Gaussian 16 at Thu May  6 12:49:16 2021.
