 Gaussian 16, Revision A.03,
 Gaussian 16:  EM64L-G16RevA.03 25-Dec-2016

 -------------
 #p 6-31g* mp2
 -------------

 ------------------------------------------------------
 Input file generated by CHIRIPA (05-May-2021 14:51:07)
 ------------------------------------------------------
 Symbolic Z-matrix:
 Charge =  0 Multiplicity = 1

                         Standard orientation:
 ---------------------------------------------------------------------
 Center     Atomic      Atomic             Coordinates (Angstroms)
 Number     Number       Type             X           Y           Z
 ---------------------------------------------------------------------
      1          6           0       -3.848273   -0.064048   -0.322226
      2          6           0       -5.127991   -0.882853   -0.149411
      3          6           0       -5.939376   -0.991215   -1.440808
      4          1           0       -4.109462    0.941889   -0.678339
      5          1           0       -3.230853   -0.522874   -1.106870
      6          1           0       -5.742178   -0.423408    0.635637
      7          1           0       -4.863739   -1.886897    0.206515
      8          1           0       -5.348142   -1.469752   -2.228237
      9          1           0       -6.231572    0.002052   -1.796677
     10          1           0       -6.849911   -1.580626   -1.294586
     11          6           0       -3.026343    0.053300    0.960111
     12          6           0       -1.746625    0.872105    0.787296
     13          6           0       -0.935240    0.980467    2.078693
     14          1           0       -3.643764    0.512125    1.744755
     15          1           0       -2.765154   -0.952637    1.316224
     16          1           0       -2.010877    1.876149    0.431370
     17          1           0       -1.132438    0.412660    0.002248
     18          1           0       -0.643044   -0.012800    2.434563
     19          1           0       -1.526474    1.459004    2.866122
     20          1           0       -0.024705    1.569878    1.932471
     21          6           0        3.582945    0.742159   -0.458117
     22          6           0        2.321385    1.598505   -0.572679
     23          6           0        2.629090    3.070081   -0.851207
     24          1           0        4.219149    1.143161    0.342749
     25          1           0        4.161082    0.827074   -1.388678
     26          1           0        1.745107    1.510909    0.357293
     27          1           0        1.688022    1.195304   -1.373238
     28          1           0        3.183755    3.176859   -1.789048
     29          1           0        3.241164    3.494257   -0.048685
     30          1           0        1.713085    3.663963   -0.929299
     31          6           0        3.291671   -0.731411   -0.179768
     32          6           0        4.553231   -1.587757   -0.065207
     33          6           0        4.245527   -3.059333    0.213321
     34          1           0        2.713535   -0.816325    0.750793
     35          1           0        2.655469   -1.132413   -0.980635
     36          1           0        5.186595   -1.184556    0.735352
     37          1           0        5.129509   -1.500160   -0.995178
     38          1           0        3.633452   -3.483509   -0.589200
     39          1           0        3.690861   -3.166110    1.151162
     40          1           0        5.161532   -3.653214    0.291414
 ---------------------------------------------------------------------

 SCF Done:  E(RHF) =  -470.733247380     A.U. after   11 cycles
 E2 =    -0.1582862057D+01 EUMP2 =    -0.47231610943765D+03

 The electronic state is 1-A.
 Alpha  occ. eigenvalues --  -11.21606 -11.21596 -11.21572 -11.21572 -11.21405
 Alpha  occ. eigenvalues --  -11.21395 -11.21345 -11.21335 -11.21080 -11.21072
 Alpha  occ. eigenvalues --  -11.21068 -11.21068  -1.08440  -1.08409  -1.03557
 Alpha  occ. eigenvalues --   -1.03495  -0.95994  -0.95964  -0.87014  -0.86978
 Alpha  occ. eigenvalues --   -0.79597  -0.79581  -0.78272  -0.78202  -0.65081
 Alpha  occ. eigenvalues --   -0.65037  -0.60975  -0.60904  -0.59487  -0.59219
 Alpha  occ. eigenvalues --   -0.57690  -0.57479  -0.55267  -0.55263  -0.52727
 Alpha  occ. eigenvalues --   -0.52647  -0.52438  -0.52370  -0.49928  -0.49905
 Alpha  occ. eigenvalues --   -0.47948  -0.47873  -0.46625  -0.46590  -0.45840
 Alpha  occ. eigenvalues --   -0.45752  -0.45691  -0.45642  -0.43792  -0.43747
 Alpha virt. eigenvalues --    0.21234   0.23151   0.23585   0.24753   0.25969
 Alpha virt. eigenvalues --    0.26427   0.26945   0.27834   0.27935   0.29278
 Alpha virt. eigenvalues --    0.30221   0.31066   0.31528   0.31914   0.32127

 Mulliken charges:
               1
     1  C   -0.298230
     2  C   -0.299650
     3  C   -0.475697
     4  H    0.149593
     5  H    0.149472
     6  H    0.151914
     7  H    0.151962
     8  H    0.155139
     9  H    0.155155
    10  H    0.160241
    11  C   -0.298354
    12  C   -0.300605
    13  C   -0.479916
    14  H    0.149404
    15  H    0.149655
    16  H    0.151597
    17  H    0.154412
    18  H    0.154844
    19  H    0.155281
    20  H    0.163520
    21  C   -0.297696
    22  C   -0.308168
    23  C   -0.475587
    24  H    0.149527
    25  H    0.149459
    26  H    0.160328
    27  H    0.152213
    28  H    0.155255
    29  H    0.154903
    30  H    0.160361
    31  C   -0.298656
    32  C   -0.299610
    33  C   -0.475711
    34  H    0.149989
    35  H    0.149161
    36  H    0.152058
    37  H    0.151960
    38  H    0.155010
    39  H    0.155154
    40  H    0.160312
 Sum of Mulliken charges =  -0.00000

 Dipole moment (field-independent basis, Debye):
    X=              0.0022    Y=              0.0026    Z=              0.0007  Tot=              0.0035
 Quadrupole moment (field-independent basis, Debye-Ang):
   XX=            -85.0757   YY=            -85.2675   ZZ=            -84.4970
   XY=             -0.6245   XZ=             -0.6424   YZ=              0.4873

 Normal termination of Gaussian 16 at Thu May  6 00:29:05 2021.
