 Gaussian 16, Revision A.03,
 Gaussian 16:  EM64L-G16RevA.03 25-Dec-2016

 -------------
 #p 6-31g* mp2
 -------------

 ------------------------------------------------------
 Input file generated by CHIRIPA (05-May-2021 14:57:23)
 ------------------------------------------------------
 Symbolic Z-matrix:
 Charge =  0 Multiplicity = 1

                         Standard orientation:
 ---------------------------------------------------------------------
 Center     Atomic      Atomic             Coordinates (Angstroms)
 Number     Number       Type             X           Y           Z
 ---------------------------------------------------------------------
      1          6           0        2.062663   -1.323403    1.704910
      2          6           0        3.341894   -0.947404    2.127658
      3          6           0        4.226896   -0.323091    1.243604
      4          6           0        3.797830   -0.088976   -0.061916
      5          6           0        2.529713   -0.451777   -0.513076
      6          6           0        1.661363   -1.074827    0.388214
      7          1           0        1.381640   -1.807894    2.398360
      8          1           0        3.656253   -1.139198    3.149635
      9          1           0        5.222891   -0.021578    1.544439
     10          1           0        2.244841   -0.247384   -1.538010
     11          1           0        0.668489   -1.365740    0.057132
     12          7           0        4.725928    0.571288   -1.006949
     13          8           0        4.323860    0.766396   -2.151899
     14          8           0        5.837864    0.881193   -0.584820
     15          6           0       -4.225214   -2.142614   -0.836538
     16          6           0       -2.889669   -1.727756   -0.809420
     17          6           0       -2.556469   -0.433293   -0.399673
     18          6           0       -3.588762    0.424058   -0.022034
     19          6           0       -4.928815    0.040280   -0.038254
     20          6           0       -5.238737   -1.258830   -0.451547
     21          1           0       -4.475010   -3.149988   -1.156216
     22          1           0       -2.100473   -2.411970   -1.107860
     23          1           0       -1.530845   -0.086046   -0.369151
     24          1           0       -5.693602    0.744932    0.265032
     25          1           0       -6.276809   -1.578281   -0.471608
     26          7           0       -3.248340    1.796907    0.413622
     27          8           0       -4.176299    2.533159    0.741438
     28          8           0       -2.060005    2.110700    0.419027
 ---------------------------------------------------------------------

 SCF Done:  E(RHF) =  -868.336614403     A.U. after   16 cycles
 E2 =    -0.2599853058D+01 EUMP2 =    -0.87093646746127D+03

 The electronic state is 1-A.
 Alpha  occ. eigenvalues --  -20.61263 -20.61258 -20.60770 -20.60765 -15.86322
 Alpha  occ. eigenvalues --  -15.85831 -11.31828 -11.31271 -11.28489 -11.28361
 Alpha  occ. eigenvalues --  -11.28145 -11.27932 -11.27858 -11.27670 -11.27518
 Alpha  occ. eigenvalues --  -11.27386 -11.27046 -11.26860  -1.60337  -1.59843
 Alpha  occ. eigenvalues --   -1.39887  -1.39395  -1.20009  -1.19476  -1.09365
 Alpha  occ. eigenvalues --   -1.08857  -1.05452  -1.04916  -0.96183  -0.95672
 Alpha  occ. eigenvalues --   -0.86828  -0.86315  -0.83027  -0.82522  -0.78068
 Alpha  occ. eigenvalues --   -0.77547  -0.72534  -0.72051  -0.71665  -0.71164
 Alpha  occ. eigenvalues --   -0.71112  -0.70587  -0.65669  -0.65466  -0.65145
 Alpha  occ. eigenvalues --   -0.64974  -0.62852  -0.62217  -0.55909  -0.55408
 Alpha  occ. eigenvalues --   -0.53748  -0.53568  -0.53192  -0.53015  -0.49304
 Alpha  occ. eigenvalues --   -0.49285  -0.48816  -0.48797  -0.45262  -0.44785
 Alpha  occ. eigenvalues --   -0.37967  -0.37443  -0.37056  -0.36503
 Alpha virt. eigenvalues --    0.04489   0.05018   0.10595   0.11104   0.15930
 Alpha virt. eigenvalues --    0.16403   0.18409   0.22033   0.24615   0.27377
 Alpha virt. eigenvalues --    0.28145   0.29065   0.30026   0.31400   0.32232

 Mulliken charges:
               1
     1  C   -0.168878
     2  C   -0.218156
     3  C   -0.168982
     4  C    0.159052
     5  C   -0.168224
     6  C   -0.217690
     7  H    0.225988
     8  H    0.224669
     9  H    0.276892
    10  H    0.275161
    11  H    0.212085
    12  N    0.488341
    13  O   -0.459922
    14  O   -0.459653
    15  C   -0.170384
    16  C   -0.220026
    17  C   -0.176863
    18  C    0.160183
    19  C   -0.169790
    20  C   -0.218231
    21  H    0.227636
    22  H    0.219527
    23  H    0.272953
    24  H    0.277907
    25  H    0.226037
    26  N    0.487788
    27  O   -0.458053
    28  O   -0.459368
 Sum of Mulliken charges =  -0.00000

 Dipole moment (field-independent basis, Debye):
    X=             -4.5248    Y=             -7.0679    Z=              1.8734  Tot=              8.5987
 Quadrupole moment (field-independent basis, Debye-Ang):
   XX=           -112.5448   YY=           -109.7393   ZZ=           -103.4506
   XY=              7.6698   XZ=             20.7950   YZ=             -0.3268

 Normal termination of Gaussian 16 at Thu May  6 22:41:43 2021.
