 Gaussian 16, Revision A.03,
 Gaussian 16:  EM64L-G16RevA.03 25-Dec-2016

 -------------
 #p 6-31g* mp2
 -------------

 ------------------------------------------------------
 Input file generated by CHIRIPA (05-May-2021 14:53:12)
 ------------------------------------------------------
 Symbolic Z-matrix:
 Charge =  0 Multiplicity = 1

                         Standard orientation:
 ---------------------------------------------------------------------
 Center     Atomic      Atomic             Coordinates (Angstroms)
 Number     Number       Type             X           Y           Z
 ---------------------------------------------------------------------
      1          6           0       -4.108327    0.719856    0.204189
      2          6           0       -3.565735    1.605886   -0.917653
      3          6           0       -2.747748    2.787125   -0.394810
      4          1           0       -4.728817    1.328624    0.876007
      5          1           0       -3.268238    0.347295    0.806554
      6          1           0       -4.406498    1.975548   -1.518556
      7          1           0       -2.946620    0.994897   -1.586985
      8          1           0       -1.890492    2.434331    0.187641
      9          1           0       -3.358664    3.420553    0.256460
     10          1           0       -2.369557    3.407261   -1.213506
     11          6           0       -4.928201   -0.465308   -0.302684
     12          6           0       -5.470793   -1.351338    0.819158
     13          6           0       -6.288780   -2.532577    0.296315
     14          1           0       -5.768290   -0.092746   -0.905049
     15          1           0       -4.307711   -1.074075   -0.974502
     16          1           0       -6.089908   -0.740349    1.488490
     17          1           0       -4.630030   -1.720999    1.420061
     18          1           0       -5.677864   -3.166005   -0.354955
     19          1           0       -7.146036   -2.179783   -0.286136
     20          1           0       -6.666971   -3.152713    1.115011
     21          6           0        1.189517    0.828310    0.205356
     22          6           0        1.528429   -0.031592   -0.844514
     23          6           0        2.822121   -0.551611   -0.946925
     24          6           0        3.756153   -0.189124    0.022341
     25          6           0        3.449072    0.665350    1.080105
     26          6           0        2.149228    1.173429    1.162628
     27          1           0        0.182156    1.227636    0.277186
     28          1           0        0.785153   -0.301339   -1.589378
     29          1           0        3.111483   -1.219320   -1.749330
     30          1           0        4.211595    0.916084    1.807504
     31          1           0        1.888853    1.841030    1.979057
     32          7           0        5.128984   -0.733324   -0.075549
     33          8           0        5.933640   -0.398637    0.791140
     34          8           0        5.374356   -1.484250   -1.017111
 ---------------------------------------------------------------------

 SCF Done:  E(RHF) =  -669.535446904     A.U. after   15 cycles
 E2 =    -0.2090904248D+01 EUMP2 =    -0.67162635115239D+03

 The electronic state is 1-A.
 Alpha  occ. eigenvalues --  -20.60746 -20.60741 -15.85800 -11.31164 -11.27737
 Alpha  occ. eigenvalues --  -11.27733 -11.27459 -11.26751 -11.26739 -11.22655
 Alpha  occ. eigenvalues --  -11.22311 -11.22298 -11.22206 -11.22102 -11.21563
 Alpha  occ. eigenvalues --   -1.59822  -1.39376  -1.19338  -1.09274  -1.08732
 Alpha  occ. eigenvalues --   -1.04742  -1.04374  -0.96828  -0.95568  -0.87843
 Alpha  occ. eigenvalues --   -0.86139  -0.82403  -0.80443  -0.79048  -0.77448
 Alpha  occ. eigenvalues --   -0.72018  -0.71145  -0.70471  -0.65913  -0.64990
 Alpha  occ. eigenvalues --   -0.64748  -0.62092  -0.61787  -0.60202  -0.58420
 Alpha  occ. eigenvalues --   -0.56230  -0.55175  -0.53509  -0.53230  -0.53070
 Alpha  occ. eigenvalues --   -0.52835  -0.50772  -0.48788  -0.48773  -0.48737
 Alpha  occ. eigenvalues --   -0.47484  -0.46594  -0.46504  -0.44782  -0.44608
 Alpha  occ. eigenvalues --   -0.37315  -0.36349
 Alpha virt. eigenvalues --    0.05088   0.11306   0.16575   0.18764   0.22604
 Alpha virt. eigenvalues --    0.23725   0.25328   0.25898   0.27027   0.27525
 Alpha virt. eigenvalues --    0.28786   0.30233   0.30856   0.31347   0.32142

 Mulliken charges:
               1
     1  C   -0.298373
     2  C   -0.300354
     3  C   -0.479664
     4  H    0.152621
     5  H    0.145357
     6  H    0.157341
     7  H    0.147856
     8  H    0.145080
     9  H    0.161392
    10  H    0.164625
    11  C   -0.298496
    12  C   -0.300268
    13  C   -0.476136
    14  H    0.151717
    15  H    0.148933
    16  H    0.153110
    17  H    0.152165
    18  H    0.155658
    19  H    0.156162
    20  H    0.162240
    21  C   -0.177349
    22  C   -0.221842
    23  C   -0.170651
    24  C    0.158263
    25  C   -0.170669
    26  C   -0.221651
    27  H    0.237540
    28  H    0.223517
    29  H    0.275477
    30  H    0.275574
    31  H    0.223832
    32  N    0.487975
    33  O   -0.460463
    34  O   -0.460520
 Sum of Mulliken charges =  -0.00000

 Dipole moment (field-independent basis, Debye):
    X=             -5.0865    Y=              1.9404    Z=              0.3322  Tot=              5.4541
 Quadrupole moment (field-independent basis, Debye-Ang):
   XX=           -129.9932   YY=            -95.0721   ZZ=            -91.6014
   XY=              7.7023   XZ=              2.3190   YZ=              2.1612

 Normal termination of Gaussian 16 at Thu May  6 16:59:41 2021.
