 Gaussian 16, Revision A.03,
 Gaussian 16:  EM64L-G16RevA.03 25-Dec-2016

 -------------
 #p 6-31g* mp2
 -------------

 ------------------------------------------------------
 Input file generated by CHIRIPA (05-May-2021 14:55:24)
 ------------------------------------------------------
 Symbolic Z-matrix:
 Charge =  0 Multiplicity = 1

                         Standard orientation:
 ---------------------------------------------------------------------
 Center     Atomic      Atomic             Coordinates (Angstroms)
 Number     Number       Type             X           Y           Z
 ---------------------------------------------------------------------
      1          6           0        2.005879    2.252751   -0.313565
      2          6           0        1.159113    1.258854   -0.815238
      3          6           0        1.505248   -0.091142   -0.704552
      4          6           0        2.711076   -0.412969   -0.083506
      5          6           0        3.575901    0.554230    0.426293
      6          6           0        3.209449    1.897892    0.304510
      7          1           0        1.729101    3.299000   -0.403858
      8          1           0        0.223787    1.531507   -1.295728
      9          1           0        0.868391   -0.880919   -1.084134
     10          1           0        4.501769    0.251515    0.900160
     11          1           0        3.869016    2.667634    0.695039
     12          7           0        3.088268   -1.838796    0.039546
     13          8           0        4.156101   -2.096221    0.591001
     14          8           0        2.308937   -2.671936   -0.417790
     15          6           0       -3.837833   -0.276273   -0.226765
     16          6           0       -4.070284   -1.558970    0.572385
     17          6           0       -4.966907   -2.557574   -0.160178
     18          1           0       -4.807069    0.191813   -0.446809
     19          1           0       -3.387431   -0.532732   -1.195663
     20          1           0       -4.518839   -1.300048    1.540049
     21          1           0       -3.100370   -2.023956    0.790716
     22          1           0       -4.521404   -2.844669   -1.118148
     23          1           0       -5.947934   -2.116647   -0.364558
     24          1           0       -5.119859   -3.467151    0.429004
     25          6           0       -2.943378    0.731890    0.492459
     26          6           0       -2.710926    2.014586   -0.306691
     27          6           0       -1.814302    3.013190    0.425873
     28          1           0       -3.393778    0.988349    1.461358
     29          1           0       -1.974140    0.263803    0.712504
     30          1           0       -3.680841    2.479573   -0.525022
     31          1           0       -2.262371    1.755664   -1.274355
     32          1           0       -0.833276    2.572263    0.630252
     33          1           0       -2.259805    3.300285    1.383843
     34          1           0       -1.661350    3.922767   -0.163309
 ---------------------------------------------------------------------

 SCF Done:  E(RHF) =  -669.534394535     A.U. after   15 cycles
 E2 =    -0.2093450148D+01 EUMP2 =    -0.67162784468306D+03

 The electronic state is 1-A.
 Alpha  occ. eigenvalues --  -20.60806 -20.60800 -15.85859 -11.31239 -11.27801
 Alpha  occ. eigenvalues --  -11.27797 -11.27516 -11.26815 -11.26764 -11.22511
 Alpha  occ. eigenvalues --  -11.21993 -11.21917 -11.21864 -11.21805 -11.21217
 Alpha  occ. eigenvalues --   -1.59880  -1.39434  -1.19413  -1.09013  -1.08794
 Alpha  occ. eigenvalues --   -1.04826  -1.04083  -0.96537  -0.95629  -0.87558
 Alpha  occ. eigenvalues --   -0.86209  -0.82463  -0.80178  -0.78753  -0.77520
 Alpha  occ. eigenvalues --   -0.72078  -0.71204  -0.70506  -0.65830  -0.65063
 Alpha  occ. eigenvalues --   -0.64754  -0.62304  -0.61284  -0.59930  -0.58118
 Alpha  occ. eigenvalues --   -0.55843  -0.55292  -0.53256  -0.53192  -0.52921
 Alpha  occ. eigenvalues --   -0.52798  -0.50476  -0.48838  -0.48831  -0.48453
 Alpha  occ. eigenvalues --   -0.47236  -0.46294  -0.46206  -0.44836  -0.44329
 Alpha  occ. eigenvalues --   -0.37343  -0.36385
 Alpha virt. eigenvalues --    0.04985   0.11114   0.16402   0.19550   0.22966
 Alpha virt. eigenvalues --    0.24027   0.25508   0.26603   0.26817   0.28825
 Alpha virt. eigenvalues --    0.29177   0.29808   0.31063   0.31546   0.32146

 Mulliken charges:
               1
     1  C   -0.172501
     2  C   -0.223061
     3  C   -0.174655
     4  C    0.158699
     5  C   -0.170931
     6  C   -0.218575
     7  H    0.228128
     8  H    0.234606
     9  H    0.275472
    10  H    0.275838
    11  H    0.223879
    12  N    0.488125
    13  O   -0.460188
    14  O   -0.460481
    15  C   -0.298406
    16  C   -0.300836
    17  C   -0.476054
    18  H    0.150829
    19  H    0.147157
    20  H    0.152769
    21  H    0.155437
    22  H    0.156124
    23  H    0.154725
    24  H    0.162913
    25  C   -0.300572
    26  C   -0.302878
    27  C   -0.487979
    28  H    0.153144
    29  H    0.150867
    30  H    0.157639
    31  H    0.142928
    32  H    0.160455
    33  H    0.161266
    34  H    0.156117
 Sum of Mulliken charges =  -0.00000

 Dipole moment (field-independent basis, Debye):
    X=             -1.3967    Y=              4.9597    Z=             -0.3426  Tot=              5.1640
 Quadrupole moment (field-independent basis, Debye-Ang):
   XX=            -97.6953   YY=            -99.6777   ZZ=            -94.2822
   XY=             14.9920   XZ=              0.3483   YZ=              0.4153

 Normal termination of Gaussian 16 at Wed May  5 22:25:47 2021.
