 Gaussian 16, Revision A.03,
 Gaussian 16:  EM64L-G16RevA.03 25-Dec-2016

 -------------
 #p 6-31g* mp2
 -------------

 ------------------------------------------------------
 Input file generated by CHIRIPA (05-May-2021 14:51:14)
 ------------------------------------------------------
 Symbolic Z-matrix:
 Charge =  0 Multiplicity = 1

                         Standard orientation:
 ---------------------------------------------------------------------
 Center     Atomic      Atomic             Coordinates (Angstroms)
 Number     Number       Type             X           Y           Z
 ---------------------------------------------------------------------
      1          6           0        2.021747   -1.141637    0.500745
      2          6           0        0.901407   -1.889337   -0.222973
      3          6           0       -0.167589   -2.421017    0.732201
      4          1           0        2.486204   -1.812629    1.236268
      5          1           0        1.588524   -0.306872    1.068971
      6          1           0        1.336773   -2.721608   -0.790774
      7          1           0        0.439689   -1.216546   -0.956993
      8          1           0       -0.628961   -1.599529    1.289780
      9          1           0        0.273221   -3.113142    1.456943
     10          1           0       -0.958769   -2.952058    0.193788
     11          6           0        3.098019   -0.604110   -0.440759
     12          6           0        4.218359    0.143590    0.282959
     13          6           0        5.287355    0.675270   -0.672215
     14          1           0        3.531242   -1.438875   -1.008985
     15          1           0        2.633562    0.066883   -1.176282
     16          1           0        4.680077   -0.529201    1.016978
     17          1           0        3.782992    0.975861    0.850760
     18          1           0        4.846545    1.367395   -1.396957
     19          1           0        5.748726   -0.146218   -1.229794
     20          1           0        6.078535    1.206312   -0.133802
     21          6           0       -1.922670    1.196639   -0.299377
     22          6           0       -1.167697    2.013940    0.749441
     23          6           0        0.104835    2.655409    0.195386
     24          1           0       -1.258537    0.415575   -0.694107
     25          1           0       -2.178146    1.847453   -1.147062
     26          1           0       -0.914932    1.362104    1.595511
     27          1           0       -1.833765    2.793028    1.141857
     28          1           0       -0.132920    3.327968   -0.635119
     29          1           0        0.791133    1.888913   -0.178887
     30          1           0        0.628827    3.234881    0.961874
     31          6           0       -3.197095    0.549107    0.239392
     32          6           0       -3.952069   -0.268193   -0.809426
     33          6           0       -5.224600   -0.909662   -0.255372
     34          1           0       -2.941620   -0.101706    1.087075
     35          1           0       -3.861228    1.330172    0.634121
     36          1           0       -3.286002   -1.047281   -1.201843
     37          1           0       -4.204834    0.383643   -1.655497
     38          1           0       -5.910899   -0.143166    0.118901
     39          1           0       -4.986845   -1.582221    0.575133
     40          1           0       -5.748592   -1.489135   -1.021860
 ---------------------------------------------------------------------

 SCF Done:  E(RHF) =  -470.732688514     A.U. after   11 cycles
 E2 =    -0.1585578925D+01 EUMP2 =    -0.47231826743979D+03

 The electronic state is 1-A.
 Alpha  occ. eigenvalues --  -11.21677 -11.21670 -11.21610 -11.21594 -11.21452
 Alpha  occ. eigenvalues --  -11.21402 -11.21392 -11.21342 -11.21168 -11.21143
 Alpha  occ. eigenvalues --  -11.21068 -11.21057  -1.08537  -1.08404  -1.03597
 Alpha  occ. eigenvalues --   -1.03545  -0.96089  -0.95952  -0.87055  -0.87018
 Alpha  occ. eigenvalues --   -0.79662  -0.79614  -0.78361  -0.78202  -0.65609
 Alpha  occ. eigenvalues --   -0.64705  -0.61102  -0.60794  -0.59396  -0.59372
 Alpha  occ. eigenvalues --   -0.57675  -0.57588  -0.55720  -0.54910  -0.52735
 Alpha  occ. eigenvalues --   -0.52692  -0.52497  -0.52376  -0.50046  -0.49890
 Alpha  occ. eigenvalues --   -0.48021  -0.47890  -0.46857  -0.46625  -0.46040
 Alpha  occ. eigenvalues --   -0.45885  -0.45622  -0.45346  -0.43831  -0.43805
 Alpha virt. eigenvalues --    0.18485   0.21649   0.23861   0.24518   0.25561
 Alpha virt. eigenvalues --    0.25909   0.26866   0.28104   0.28897   0.29990
 Alpha virt. eigenvalues --    0.30754   0.31163   0.31465   0.31867   0.32327

 Mulliken charges:
               1
     1  C   -0.302822
     2  C   -0.304552
     3  C   -0.480261
     4  H    0.150475
     5  H    0.153340
     6  H    0.153132
     7  H    0.154968
     8  H    0.158628
     9  H    0.155981
    10  H    0.160619
    11  C   -0.300288
    12  C   -0.300371
    13  C   -0.475784
    14  H    0.150078
    15  H    0.150692
    16  H    0.151922
    17  H    0.153131
    18  H    0.155616
    19  H    0.155040
    20  H    0.160358
    21  C   -0.306825
    22  C   -0.301219
    23  C   -0.481732
    24  H    0.158302
    25  H    0.149732
    26  H    0.152068
    27  H    0.152760
    28  H    0.155718
    29  H    0.160213
    30  H    0.160403
    31  C   -0.299374
    32  C   -0.300298
    33  C   -0.475894
    34  H    0.151507
    35  H    0.149518
    36  H    0.152591
    37  H    0.151752
    38  H    0.155100
    39  H    0.155639
    40  H    0.160139
 Sum of Mulliken charges =  -0.00000

 Dipole moment (field-independent basis, Debye):
    X=              0.0152    Y=             -0.0107    Z=              0.0022  Tot=              0.0187
 Quadrupole moment (field-independent basis, Debye-Ang):
   XX=            -85.8161   YY=            -83.7843   ZZ=            -85.0848
   XY=             -1.7730   XZ=              0.9076   YZ=              0.0587

 Normal termination of Gaussian 16 at Wed May  5 21:38:12 2021.
