 Gaussian 16, Revision A.03,
 Gaussian 16:  EM64L-G16RevA.03 25-Dec-2016

 -------------
 #p 6-31g* mp2
 -------------

 ------------------------------------------------------
 Input file generated by CHIRIPA (05-May-2021 14:53:14)
 ------------------------------------------------------
 Symbolic Z-matrix:
 Charge =  0 Multiplicity = 1

                         Standard orientation:
 ---------------------------------------------------------------------
 Center     Atomic      Atomic             Coordinates (Angstroms)
 Number     Number       Type             X           Y           Z
 ---------------------------------------------------------------------
      1          6           0        3.738229   -0.382155    0.106804
      2          6           0        3.059779   -1.713406   -0.217943
      3          6           0        4.003074   -2.908139   -0.074408
      4          1           0        4.604856   -0.248499   -0.555041
      5          1           0        4.130947   -0.419305    1.132370
      6          1           0        2.667244   -1.673254   -1.242112
      7          1           0        2.194554   -1.843820    0.444622
      8          1           0        4.385283   -2.976400    0.949242
      9          1           0        4.860659   -2.804866   -0.747076
     10          1           0        3.497544   -3.849518   -0.311271
     11          6           0        2.808010    0.821636   -0.032152
     12          6           0        3.486459    2.152887    0.292595
     13          6           0        2.543164    3.347620    0.149059
     14          1           0        2.415291    0.858786   -1.057718
     15          1           0        1.941383    0.687980    0.629693
     16          1           0        4.351685    2.283300   -0.369970
     17          1           0        3.878994    2.112735    1.316763
     18          1           0        1.685579    3.244347    0.821728
     19          1           0        2.160955    3.415881   -0.874590
     20          1           0        3.048695    4.288999    0.385923
     21          6           0       -2.125791   -2.653087    0.120690
     22          6           0       -1.071720   -1.774483   -0.150439
     23          6           0       -1.299085   -0.397683   -0.235742
     24          6           0       -2.598825    0.068222   -0.043648
     25          6           0       -3.669825   -0.781778    0.227914
     26          6           0       -3.419199   -2.154810    0.308669
     27          1           0       -1.940133   -3.721154    0.185190
     28          1           0       -0.066217   -2.158627   -0.296869
     29          1           0       -0.501416    0.304893   -0.444379
     30          1           0       -4.661358   -0.369080    0.369199
     31          1           0       -4.239728   -2.834798    0.519363
     32          7           0       -2.851837    1.523783   -0.131548
     33          8           0       -4.006030    1.909117    0.041643
     34          8           0       -1.891166    2.251756   -0.371971
 ---------------------------------------------------------------------

 SCF Done:  E(RHF) =  -669.535677326     A.U. after   15 cycles
 E2 =    -0.2092386425D+01 EUMP2 =    -0.67162806375113D+03

 The electronic state is 1-A.
 Alpha  occ. eigenvalues --  -20.60702 -20.60697 -15.85752 -11.31088 -11.27670
 Alpha  occ. eigenvalues --  -11.27607 -11.27396 -11.26684 -11.26591 -11.22530
 Alpha  occ. eigenvalues --  -11.21970 -11.21851 -11.21826 -11.21688 -11.20764
 Alpha  occ. eigenvalues --   -1.59777  -1.39331  -1.19259  -1.08946  -1.08661
 Alpha  occ. eigenvalues --   -1.04653  -1.03935  -0.96334  -0.95500  -0.87356
 Alpha  occ. eigenvalues --   -0.86054  -0.82337  -0.80081  -0.78761  -0.77354
 Alpha  occ. eigenvalues --   -0.71970  -0.71101  -0.70371  -0.65577  -0.64907
 Alpha  occ. eigenvalues --   -0.64670  -0.62011  -0.61313  -0.59785  -0.57954
 Alpha  occ. eigenvalues --   -0.55590  -0.55169  -0.53062  -0.52994  -0.52921
 Alpha  occ. eigenvalues --   -0.52550  -0.50272  -0.48743  -0.48725  -0.48295
 Alpha  occ. eigenvalues --   -0.47105  -0.46233  -0.46141  -0.44742  -0.44203
 Alpha  occ. eigenvalues --   -0.37249  -0.36253
 Alpha virt. eigenvalues --    0.05122   0.11351   0.16572   0.20243   0.22814
 Alpha virt. eigenvalues --    0.23399   0.25031   0.26167   0.27331   0.28203
 Alpha virt. eigenvalues --    0.29519   0.30662   0.31082   0.31524   0.32159

 Mulliken charges:
               1
     1  C   -0.296700
     2  C   -0.308697
     3  C   -0.474950
     4  H    0.153195
     5  H    0.152447
     6  H    0.150841
     7  H    0.147605
     8  H    0.158333
     9  H    0.159374
    10  H    0.157726
    11  C   -0.304714
    12  C   -0.300112
    13  C   -0.477456
    14  H    0.149644
    15  H    0.149094
    16  H    0.152104
    17  H    0.152145
    18  H    0.163224
    19  H    0.159374
    20  H    0.160536
    21  C   -0.171899
    22  C   -0.227229
    23  C   -0.179206
    24  C    0.158650
    25  C   -0.170878
    26  C   -0.218649
    27  H    0.225393
    28  H    0.233955
    29  H    0.282421
    30  H    0.275142
    31  H    0.222898
    32  N    0.487786
    33  O   -0.460813
    34  O   -0.460584
 Sum of Mulliken charges =  -0.00000

 Dipole moment (field-independent basis, Debye):
    X=              1.0849    Y=             -4.9917    Z=              0.3233  Tot=              5.1185
 Quadrupole moment (field-independent basis, Debye-Ang):
   XX=            -94.3979   YY=            -96.5046   ZZ=            -94.5040
   XY=             15.0282   XZ=             -2.1916   YZ=              0.0262

 Normal termination of Gaussian 16 at Thu May  6 13:48:00 2021.
