 Gaussian 16, Revision A.03,
 Gaussian 16:  EM64L-G16RevA.03 25-Dec-2016

 -------------
 #p 6-31g* mp2
 -------------

 ------------------------------------------------------
 Input file generated by CHIRIPA (05-May-2021 14:53:13)
 ------------------------------------------------------
 Symbolic Z-matrix:
 Charge =  0 Multiplicity = 1

                         Standard orientation:
 ---------------------------------------------------------------------
 Center     Atomic      Atomic             Coordinates (Angstroms)
 Number     Number       Type             X           Y           Z
 ---------------------------------------------------------------------
      1          6           0        2.610682    0.025157   -0.097413
      2          6           0        2.946839   -1.003732   -1.177400
      3          6           0        3.609074   -2.260187   -0.611219
      4          1           0        3.530747    0.302172    0.435211
      5          1           0        1.946483   -0.437351    0.645769
      6          1           0        3.609096   -0.539008   -1.919063
      7          1           0        2.025898   -1.278188   -1.707643
      8          1           0        2.950479   -2.749455    0.113675
      9          1           0        4.542672   -2.006076   -0.098947
     10          1           0        3.840797   -2.982224   -1.400413
     11          6           0        1.948126    1.286796   -0.647878
     12          6           0        1.611969    2.315685    0.432108
     13          6           0        0.949734    3.572140   -0.134073
     14          1           0        2.612326    1.749304   -1.391060
     15          1           0        1.028062    1.009781   -1.180503
     16          1           0        2.532910    2.590141    0.962351
     17          1           0        0.949713    1.850961    1.173771
     18          1           0        0.016136    3.318028   -0.646345
     19          1           0        1.608329    4.061408   -0.858966
     20          1           0        0.718012    4.294177    0.655122
     21          6           0       -0.335051   -1.052855    2.287068
     22          6           0       -0.459341   -1.974889    1.242595
     23          6           0       -1.257657   -1.686098    0.131811
     24          6           0       -1.920552   -0.460240    0.098169
     25          6           0       -1.816769    0.479055    1.122983
     26          6           0       -1.012966    0.169020    2.224041
     27          1           0        0.287232   -1.285447    3.146174
     28          1           0        0.065979   -2.924597    1.288846
     29          1           0       -1.371569   -2.381685   -0.690746
     30          1           0       -2.352643    1.417513    1.048465
     31          1           0       -0.918296    0.886994    3.033730
     32          7           0       -2.768599   -0.143265   -1.072619
     33          8           0       -3.342302    0.943689   -1.078269
     34          8           0       -2.843536   -0.987776   -1.962463
 ---------------------------------------------------------------------

 SCF Done:  E(RHF) =  -669.533806167     A.U. after   15 cycles
 E2 =    -0.2097005642D+01 EUMP2 =    -0.67163081180824D+03

 The electronic state is 1-A.
 Alpha  occ. eigenvalues --  -20.60941 -20.60935 -15.85997 -11.31428 -11.27984
 Alpha  occ. eigenvalues --  -11.27981 -11.27697 -11.26996 -11.26978 -11.21806
 Alpha  occ. eigenvalues --  -11.21615 -11.21510 -11.21434 -11.21375 -11.21115
 Alpha  occ. eigenvalues --   -1.60016  -1.39567  -1.19611  -1.09002  -1.08530
 Alpha  occ. eigenvalues --   -1.05021  -1.03697  -0.96156  -0.95804  -0.87173
 Alpha  occ. eigenvalues --   -0.86399  -0.82633  -0.79765  -0.78372  -0.77667
 Alpha  occ. eigenvalues --   -0.72209  -0.71345  -0.70681  -0.65296  -0.65222
 Alpha  occ. eigenvalues --   -0.64973  -0.62363  -0.61118  -0.59529  -0.57771
 Alpha  occ. eigenvalues --   -0.55539  -0.55438  -0.53353  -0.53084  -0.52843
 Alpha  occ. eigenvalues --   -0.52578  -0.50119  -0.48975  -0.48962  -0.48108
 Alpha  occ. eigenvalues --   -0.46832  -0.45871  -0.45831  -0.44956  -0.43918
 Alpha  occ. eigenvalues --   -0.37430  -0.36494
 Alpha virt. eigenvalues --    0.04819   0.10861   0.16204   0.20376   0.23067
 Alpha virt. eigenvalues --    0.23290   0.26413   0.26816   0.27256   0.27689
 Alpha virt. eigenvalues --    0.28622   0.30313   0.30929   0.31542   0.32256

 Mulliken charges:
               1
     1  C   -0.305325
     2  C   -0.299774
     3  C   -0.474556
     4  H    0.146103
     5  H    0.155038
     6  H    0.154081
     7  H    0.152468
     8  H    0.144833
     9  H    0.156043
    10  H    0.162052
    11  C   -0.297056
    12  C   -0.305689
    13  C   -0.478059
    14  H    0.150179
    15  H    0.151118
    16  H    0.148729
    17  H    0.152660
    18  H    0.159930
    19  H    0.157283
    20  H    0.156430
    21  C   -0.172125
    22  C   -0.218111
    23  C   -0.170839
    24  C    0.159712
    25  C   -0.168890
    26  C   -0.218941
    27  H    0.227936
    28  H    0.226096
    29  H    0.276850
    30  H    0.277467
    31  H    0.226019
    32  N    0.487591
    33  O   -0.459778
    34  O   -0.459475
 Sum of Mulliken charges =  -0.00000

 Dipole moment (field-independent basis, Debye):
    X=              2.7945    Y=             -1.1651    Z=              4.1325  Tot=              5.1229
 Quadrupole moment (field-independent basis, Debye-Ang):
   XX=           -106.4035   YY=            -90.9971   ZZ=            -93.4868
   XY=              0.4489   XZ=             -8.6433   YZ=              0.0575

 Normal termination of Gaussian 16 at Thu May  6 05:48:13 2021.
