 Gaussian 16, Revision A.03,
 Gaussian 16:  EM64L-G16RevA.03 25-Dec-2016

 -------------
 #p 6-31g* mp2
 -------------

 ------------------------------------------------------
 Input file generated by CHIRIPA (05-May-2021 14:53:13)
 ------------------------------------------------------
 Symbolic Z-matrix:
 Charge =  0 Multiplicity = 1

                         Standard orientation:
 ---------------------------------------------------------------------
 Center     Atomic      Atomic             Coordinates (Angstroms)
 Number     Number       Type             X           Y           Z
 ---------------------------------------------------------------------
      1          6           0       -3.601743    0.399314   -0.294760
      2          6           0       -5.059380    0.581585   -0.719088
      3          6           0       -5.211351    1.497849   -1.933649
      4          1           0       -3.165984    1.382636   -0.070846
      5          1           0       -3.030055   -0.011082   -1.138645
      6          1           0       -5.628437    0.990220    0.125784
      7          1           0       -5.491776   -0.402302   -0.941833
      8          1           0       -4.668357    1.091512   -2.793096
      9          1           0       -4.805795    2.491946   -1.719413
     10          1           0       -6.261300    1.614243   -2.219864
     11          6           0       -3.433553   -0.514088    0.918145
     12          6           0       -1.975915   -0.696359    1.342473
     13          6           0       -1.823945   -1.612623    2.557034
     14          1           0       -4.005241   -0.103692    1.762030
     15          1           0       -3.869312   -1.497410    0.694231
     16          1           0       -1.543520    0.287528    1.565218
     17          1           0       -1.406859   -1.104994    0.497601
     18          1           0       -2.229501   -2.606720    2.342798
     19          1           0       -2.366939   -1.206286    3.416481
     20          1           0       -0.773996   -1.729017    2.843249
     21          6           0        3.527277    2.171680    0.867990
     22          6           0        2.210981    1.732037    1.042926
     23          6           0        1.768384    0.555073    0.431850
     24          6           0        2.672841   -0.160782   -0.350965
     25          6           0        3.990464    0.251239   -0.544347
     26          6           0        4.411258    1.431183    0.076307
     27          1           0        3.862627    3.087131    1.346408
     28          1           0        1.522275    2.305089    1.657206
     29          1           0        0.754794    0.191769    0.550436
     30          1           0        4.653881   -0.341370   -1.162499
     31          1           0        5.434081    1.770210   -0.061316
     32          7           0        2.215824   -1.408358   -1.002955
     33          8           0        3.032170   -2.020993   -1.687714
     34          8           0        1.049922   -1.749951   -0.816879
 ---------------------------------------------------------------------

 SCF Done:  E(RHF) =  -669.535803161     A.U. after   15 cycles
 E2 =    -0.2092352631D+01 EUMP2 =    -0.67162815579182D+03

 The electronic state is 1-A.
 Alpha  occ. eigenvalues --  -20.60847 -20.60835 -15.85887 -11.31160 -11.27747
 Alpha  occ. eigenvalues --  -11.27658 -11.27486 -11.26749 -11.26725 -11.21488
 Alpha  occ. eigenvalues --  -11.21477 -11.21277 -11.21217 -11.20959 -11.20931
 Alpha  occ. eigenvalues --   -1.59912  -1.39469  -1.19339  -1.08756  -1.08312
 Alpha  occ. eigenvalues --   -1.04732  -1.03419  -0.95857  -0.95599  -0.86872
 Alpha  occ. eigenvalues --   -0.86138  -0.82439  -0.79535  -0.78195  -0.77436
 Alpha  occ. eigenvalues --   -0.72115  -0.71226  -0.70455  -0.65034  -0.64892
 Alpha  occ. eigenvalues --   -0.64745  -0.62106  -0.60797  -0.59218  -0.57476
 Alpha  occ. eigenvalues --   -0.55245  -0.55125  -0.53070  -0.52841  -0.52542
 Alpha  occ. eigenvalues --   -0.52281  -0.49795  -0.48900  -0.48856  -0.47784
 Alpha  occ. eigenvalues --   -0.46483  -0.45692  -0.45527  -0.44891  -0.43665
 Alpha  occ. eigenvalues --   -0.37330  -0.36332
 Alpha virt. eigenvalues --    0.05033   0.11308   0.16541   0.20755   0.23108
 Alpha virt. eigenvalues --    0.24200   0.25985   0.26732   0.27837   0.28069
 Alpha virt. eigenvalues --    0.29333   0.30482   0.31597   0.31745   0.32161

 Mulliken charges:
               1
     1  C   -0.299879
     2  C   -0.299570
     3  C   -0.475791
     4  H    0.144080
     5  H    0.156034
     6  H    0.150527
     7  H    0.153664
     8  H    0.157116
     9  H    0.153193
    10  H    0.160012
    11  C   -0.295202
    12  C   -0.320747
    13  C   -0.473888
    14  H    0.147086
    15  H    0.153483
    16  H    0.135172
    17  H    0.182346
    18  H    0.160497
    19  H    0.151846
    20  H    0.159391
    21  C   -0.170105
    22  C   -0.224025
    23  C   -0.178446
    24  C    0.154776
    25  C   -0.169686
    26  C   -0.219472
    27  H    0.225505
    28  H    0.223582
    29  H    0.294906
    30  H    0.275358
    31  H    0.223306
    32  N    0.491640
    33  O   -0.459737
    34  O   -0.466971
 Sum of Mulliken charges =  -0.00000

 Dipole moment (field-independent basis, Debye):
    X=              1.5998    Y=              4.2219    Z=              2.1838  Tot=              5.0152
 Quadrupole moment (field-independent basis, Debye-Ang):
   XX=            -82.2042   YY=            -96.3806   ZZ=            -96.9093
   XY=             11.5855   XZ=              3.4907   YZ=             -0.5505

 Normal termination of Gaussian 16 at Wed May  5 15:31:36 2021.
