 Gaussian 16, Revision A.03,
 Gaussian 16:  EM64L-G16RevA.03 25-Dec-2016

 -------------
 #p 6-31g* mp2
 -------------

 ------------------------------------------------------
 Input file generated by CHIRIPA (05-May-2021 14:57:27)
 ------------------------------------------------------
 Symbolic Z-matrix:
 Charge =  0 Multiplicity = 1

                         Standard orientation:
 ---------------------------------------------------------------------
 Center     Atomic      Atomic             Coordinates (Angstroms)
 Number     Number       Type             X           Y           Z
 ---------------------------------------------------------------------
      1          6           0       -0.951027    1.075730    1.918361
      2          6           0       -2.121674    1.758185    1.571429
      3          6           0       -3.084321    1.149847    0.760391
      4          6           0       -2.842778   -0.147783    0.311942
      5          6           0       -1.686467   -0.853775    0.640288
      6          6           0       -0.737536   -0.225777    1.452505
      7          1           0       -0.208547    1.555938    2.548853
      8          1           0       -2.290140    2.769036    1.931768
      9          1           0       -3.999450    1.655198    0.476532
     10          1           0       -1.546635   -1.860559    0.265787
     11          1           0        0.170676   -0.758189    1.720336
     12          7           0       -3.854629   -0.802209   -0.547291
     13          8           0       -3.618104   -1.946167   -0.929460
     14          8           0       -4.865085   -0.158799   -0.822320
     15          6           0        1.246883    1.645236   -1.775103
     16          6           0        0.926875    0.283882   -1.746280
     17          6           0        1.711636   -0.614673   -1.017378
     18          6           0        2.814176   -0.115271   -0.325792
     19          6           0        3.158842    1.235437   -0.335030
     20          6           0        2.359883    2.115839   -1.070627
     21          1           0        0.631747    2.336205   -2.343931
     22          1           0        0.063094   -0.084419   -2.292432
     23          1           0        1.486692   -1.673569   -0.977877
     24          1           0        4.026109    1.572823    0.219440
     25          1           0        2.610795    3.172562   -1.091209
     26          7           0        3.652483   -1.056922    0.449408
     27          8           0        4.618582   -0.591827    1.050220
     28          8           0        3.327573   -2.242253    0.441519
 ---------------------------------------------------------------------

 SCF Done:  E(RHF) =  -868.336927093     A.U. after   16 cycles
 E2 =    -0.2603447153D+01 EUMP2 =    -0.87094037424630D+03

 The electronic state is 1-A.
 Alpha  occ. eigenvalues --  -20.61484 -20.61477 -20.61246 -20.61236 -15.86526
 Alpha  occ. eigenvalues --  -15.86292 -11.31810 -11.31613 -11.28350 -11.28326
 Alpha  occ. eigenvalues --  -11.28126 -11.28111 -11.27987 -11.27781 -11.27344
 Alpha  occ. eigenvalues --  -11.27239 -11.27155 -11.27051  -1.60565  -1.60325
 Alpha  occ. eigenvalues --   -1.40117  -1.39878  -1.19975  -1.19736  -1.09353
 Alpha  occ. eigenvalues --   -1.09141  -1.05390  -1.05085  -0.96208  -0.95991
 Alpha  occ. eigenvalues --   -0.86745  -0.86519  -0.83039  -0.82815  -0.78123
 Alpha  occ. eigenvalues --   -0.77885  -0.72729  -0.72501  -0.71912  -0.71662
 Alpha  occ. eigenvalues --   -0.71040  -0.70819  -0.65597  -0.65394  -0.65304
 Alpha  occ. eigenvalues --   -0.65114  -0.62732  -0.62439  -0.55797  -0.55594
 Alpha  occ. eigenvalues --   -0.54238  -0.53419  -0.53233  -0.52906  -0.49503
 Alpha  occ. eigenvalues --   -0.49482  -0.49268  -0.49256  -0.45530  -0.45292
 Alpha  occ. eigenvalues --   -0.37927  -0.37758  -0.37609  -0.35906
 Alpha virt. eigenvalues --    0.04181   0.04827   0.10394   0.11108   0.15756
 Alpha virt. eigenvalues --    0.16356   0.20386   0.21383   0.25674   0.27157
 Alpha virt. eigenvalues --    0.27604   0.28645   0.30281   0.30958   0.31889

 Mulliken charges:
               1
     1  C   -0.171052
     2  C   -0.219321
     3  C   -0.174088
     4  C    0.156733
     5  C   -0.178281
     6  C   -0.211367
     7  H    0.227657
     8  H    0.223322
     9  H    0.275123
    10  H    0.274105
    11  H    0.229376
    12  N    0.487193
    13  O   -0.461101
    14  O   -0.459626
    15  C   -0.170304
    16  C   -0.210521
    17  C   -0.177927
    18  C    0.155398
    19  C   -0.174723
    20  C   -0.219557
    21  H    0.228613
    22  H    0.229687
    23  H    0.274324
    24  H    0.275579
    25  H    0.224179
    26  N    0.486536
    27  O   -0.458709
    28  O   -0.461245
 Sum of Mulliken charges =  -0.00000

 Dipole moment (field-independent basis, Debye):
    X=              0.6472    Y=              5.7168    Z=              0.2570  Tot=              5.7590
 Quadrupole moment (field-independent basis, Debye-Ang):
   XX=           -139.8418   YY=           -100.5305   ZZ=           -101.8288
   XY=              2.5457   XZ=            -13.5813   YZ=              0.8600

 Normal termination of Gaussian 16 at Wed May  5 19:40:50 2021.
