 Gaussian 16, Revision A.03,
 Gaussian 16:  EM64L-G16RevA.03 25-Dec-2016

 -------------
 #p 6-31g* mp2
 -------------

 ------------------------------------------------------
 Input file generated by CHIRIPA (05-May-2021 14:57:25)
 ------------------------------------------------------
 Symbolic Z-matrix:
 Charge =  0 Multiplicity = 1

                         Standard orientation:
 ---------------------------------------------------------------------
 Center     Atomic      Atomic             Coordinates (Angstroms)
 Number     Number       Type             X           Y           Z
 ---------------------------------------------------------------------
      1          6           0        3.974510    1.648480    0.826402
      2          6           0        4.504878    0.395456    0.502115
      3          6           0        3.723855   -0.556296   -0.160243
      4          6           0        2.410502   -0.219978   -0.484719
      5          6           0        1.853435    1.019845   -0.175194
      6          6           0        2.652811    1.956133    0.487310
      7          1           0        4.588356    2.381817    1.340995
      8          1           0        5.531004    0.153773    0.764222
      9          1           0        4.109171   -1.533930   -0.423269
     10          1           0        0.827142    1.231728   -0.449505
     11          1           0        2.238270    2.928452    0.737901
     12          7           0        1.573954   -1.219369   -1.186005
     13          8           0        0.419759   -0.898556   -1.460868
     14          8           0        2.088302   -2.304582   -1.447530
     15          6           0       -1.602828   -1.775028    1.825809
     16          6           0       -2.658777   -2.051668    0.951186
     17          6           0       -3.190555   -1.045302    0.139405
     18          6           0       -2.639787    0.232212    0.228313
     19          6           0       -1.587592    0.539112    1.089699
     20          6           0       -1.071542   -0.482799    1.892156
     21          1           0       -1.195839   -2.562835    2.452798
     22          1           0       -3.073363   -3.054308    0.897551
     23          1           0       -4.007922   -1.231868   -0.546540
     24          1           0       -1.195202    1.548305    1.120942
     25          1           0       -0.251467   -0.265065    2.570473
     26          7           0       -3.194432    1.305835   -0.626148
     27          8           0       -2.691569    2.423126   -0.529058
     28          8           0       -4.121523    1.009720   -1.376786
 ---------------------------------------------------------------------

 SCF Done:  E(RHF) =  -868.337354043     A.U. after   16 cycles
 E2 =    -0.2602971179D+01 EUMP2 =    -0.87094032522207D+03

 The electronic state is 1-A.
 Alpha  occ. eigenvalues --  -20.61056 -20.61003 -20.60462 -20.60414 -15.86073
 Alpha  occ. eigenvalues --  -15.85483 -11.31492 -11.30694 -11.28080 -11.28021
 Alpha  occ. eigenvalues --  -11.27814 -11.27382 -11.27190 -11.27090 -11.27071
 Alpha  occ. eigenvalues --  -11.26982 -11.26339 -11.26200  -1.60100  -1.59503
 Alpha  occ. eigenvalues --   -1.39652  -1.39071  -1.19678  -1.18843  -1.09055
 Alpha  occ. eigenvalues --   -1.08277  -1.05092  -1.04274  -0.95886  -0.95152
 Alpha  occ. eigenvalues --   -0.86474  -0.85699  -0.82715  -0.82015  -0.77765
 Alpha  occ. eigenvalues --   -0.77080  -0.72312  -0.71725  -0.71433  -0.70812
 Alpha  occ. eigenvalues --   -0.70770  -0.70024  -0.65321  -0.65086  -0.64548
 Alpha  occ. eigenvalues --   -0.64326  -0.62465  -0.61627  -0.55572  -0.54800
 Alpha  occ. eigenvalues --   -0.53427  -0.53208  -0.52488  -0.52389  -0.49069
 Alpha  occ. eigenvalues --   -0.49043  -0.48490  -0.48450  -0.45014  -0.44512
 Alpha  occ. eigenvalues --   -0.37684  -0.36799  -0.36755  -0.35683
 Alpha virt. eigenvalues --    0.04678   0.05538   0.10946   0.11685   0.16218
 Alpha virt. eigenvalues --    0.17043   0.20693   0.22011   0.26014   0.27700
 Alpha virt. eigenvalues --    0.28083   0.29308   0.30748   0.31316   0.32209

 Mulliken charges:
               1
     1  C   -0.170921
     2  C   -0.219179
     3  C   -0.171797
     4  C    0.156585
     5  C   -0.176408
     6  C   -0.223500
     7  H    0.226813
     8  H    0.224096
     9  H    0.275618
    10  H    0.282723
    11  H    0.226277
    12  N    0.488512
    13  O   -0.457390
    14  O   -0.462507
    15  C   -0.168130
    16  C   -0.212126
    17  C   -0.164386
    18  C    0.171084
    19  C   -0.174282
    20  C   -0.218359
    21  H    0.224269
    22  H    0.223734
    23  H    0.275569
    24  H    0.263072
    25  H    0.218897
    26  N    0.489246
    27  O   -0.469883
    28  O   -0.457628
 Sum of Mulliken charges =  -0.00000

 Dipole moment (field-independent basis, Debye):
    X=              4.7973    Y=             -0.4905    Z=              5.3157  Tot=              7.1771
 Quadrupole moment (field-independent basis, Debye-Ang):
   XX=            -96.0703   YY=           -104.7775   ZZ=           -106.7656
   XY=             18.7505   XZ=             -1.1733   YZ=             -1.1023

 Normal termination of Gaussian 16 at Thu May  6 18:05:09 2021.
