 Gaussian 16, Revision A.03,
 Gaussian 16:  EM64L-G16RevA.03 25-Dec-2016

 -------------
 #p 6-31g* mp2
 -------------

 ------------------------------------------------------
 Input file generated by CHIRIPA (05-May-2021 14:55:25)
 ------------------------------------------------------
 Symbolic Z-matrix:
 Charge =  0 Multiplicity = 1

                         Standard orientation:
 ---------------------------------------------------------------------
 Center     Atomic      Atomic             Coordinates (Angstroms)
 Number     Number       Type             X           Y           Z
 ---------------------------------------------------------------------
      1          6           0       -0.769684   -1.388797   -0.322315
      2          6           0       -2.008168   -2.031941   -0.417424
      3          6           0       -3.196091   -1.311966   -0.259237
      4          6           0       -3.108201    0.055999   -0.005788
      5          6           0       -1.889507    0.725324    0.094604
      6          6           0       -0.714404   -0.014640   -0.067055
      7          1           0        0.148144   -1.955855   -0.446546
      8          1           0       -2.054134   -3.099024   -0.615582
      9          1           0       -4.168329   -1.784679   -0.327898
     10          1           0       -1.875664    1.790157    0.292987
     11          1           0        0.246010    0.487473    0.007329
     12          7           0       -4.359017    0.828784    0.163515
     13          8           0       -4.254588    2.033024    0.386087
     14          8           0       -5.420150    0.215621    0.070437
     15          6           0        4.148907    0.716635    0.105162
     16          6           0        3.422182    2.001605   -0.293215
     17          6           0        4.304049    3.243922   -0.163776
     18          1           0        4.503997    0.809711    1.140629
     19          1           0        5.043126    0.599690   -0.522606
     20          1           0        2.528849    2.115376    0.334182
     21          1           0        3.068614    1.905386   -1.327791
     22          1           0        5.188871    3.156512   -0.802562
     23          1           0        4.646039    3.367696    0.868854
     24          1           0        3.764681    4.151095   -0.453569
     25          6           0        3.280346   -0.533938   -0.018914
     26          6           0        4.007071   -1.818909    0.379464
     27          6           0        3.125204   -3.061226    0.250023
     28          1           0        2.386128   -0.416993    0.608855
     29          1           0        2.925256   -0.627015   -1.054382
     30          1           0        4.360639   -1.722689    1.414040
     31          1           0        4.900404   -1.932680   -0.247934
     32          1           0        2.783215   -3.185000   -0.782606
     33          1           0        2.240382   -2.973816    0.888810
     34          1           0        3.664572   -3.968399    0.539817
 ---------------------------------------------------------------------

 SCF Done:  E(RHF) =  -669.535432373     A.U. after   15 cycles
 E2 =    -0.2092730270D+01 EUMP2 =    -0.67162816264352D+03

 The electronic state is 1-A.
 Alpha  occ. eigenvalues --  -20.60669 -20.60664 -15.85720 -11.31054 -11.27623
 Alpha  occ. eigenvalues --  -11.27606 -11.27285 -11.26621 -11.26546 -11.22766
 Alpha  occ. eigenvalues --  -11.22700 -11.22637 -11.22415 -11.22362 -11.21823
 Alpha  occ. eigenvalues --   -1.59745  -1.39300  -1.19215  -1.09587  -1.08607
 Alpha  occ. eigenvalues --   -1.04617  -1.04609  -0.97068  -0.95453  -0.88081
 Alpha  occ. eigenvalues --   -0.86016  -0.82290  -0.80697  -0.79455  -0.77339
 Alpha  occ. eigenvalues --   -0.71939  -0.71068  -0.70309  -0.66225  -0.64861
 Alpha  occ. eigenvalues --   -0.64604  -0.61991  -0.61974  -0.60443  -0.58694
 Alpha  occ. eigenvalues --   -0.56361  -0.55094  -0.53720  -0.53485  -0.52948
 Alpha  occ. eigenvalues --   -0.52705  -0.50996  -0.48993  -0.48699  -0.48695
 Alpha  occ. eigenvalues --   -0.47721  -0.46897  -0.46840  -0.44874  -0.44713
 Alpha  occ. eigenvalues --   -0.37184  -0.36223
 Alpha virt. eigenvalues --    0.05173   0.11369   0.16643   0.19586   0.21896
 Alpha virt. eigenvalues --    0.22624   0.24838   0.25668   0.26136   0.28675
 Alpha virt. eigenvalues --    0.29932   0.30139   0.30479   0.31465   0.31928

 Mulliken charges:
               1
     1  C   -0.179445
     2  C   -0.219913
     3  C   -0.171155
     4  C    0.158538
     5  C   -0.172301
     6  C   -0.228158
     7  H    0.235368
     8  H    0.223118
     9  H    0.274966
    10  H    0.275080
    11  H    0.233805
    12  N    0.488023
    13  O   -0.460834
    14  O   -0.460874
    15  C   -0.298139
    16  C   -0.303818
    17  C   -0.476234
    18  H    0.153493
    19  H    0.153943
    20  H    0.147631
    21  H    0.153503
    22  H    0.157910
    23  H    0.157655
    24  H    0.163658
    25  C   -0.308100
    26  C   -0.298515
    27  C   -0.482882
    28  H    0.146310
    29  H    0.149293
    30  H    0.156782
    31  H    0.156844
    32  H    0.153059
    33  H    0.153670
    34  H    0.167719
 Sum of Mulliken charges =  -0.00000

 Dipole moment (field-independent basis, Debye):
    X=              4.8051    Y=             -2.6989    Z=             -0.5813  Tot=              5.5418
 Quadrupole moment (field-independent basis, Debye-Ang):
   XX=           -119.9493   YY=            -92.2262   ZZ=            -94.5572
   XY=             10.8396   XZ=              2.0672   YZ=              0.6723

 Normal termination of Gaussian 16 at Wed May  5 19:14:28 2021.
