 Gaussian 16, Revision A.03,
 Gaussian 16:  EM64L-G16RevA.03 25-Dec-2016

 -------------
 #p 6-31g* mp2
 -------------

 ------------------------------------------------------
 Input file generated by CHIRIPA (05-May-2021 14:57:22)
 ------------------------------------------------------
 Symbolic Z-matrix:
 Charge =  0 Multiplicity = 1

                         Standard orientation:
 ---------------------------------------------------------------------
 Center     Atomic      Atomic             Coordinates (Angstroms)
 Number     Number       Type             X           Y           Z
 ---------------------------------------------------------------------
      1          6           0       -4.823450    1.946978    0.076745
      2          6           0       -4.205465    1.533471   -1.108003
      3          6           0       -3.386427    0.400563   -1.123630
      4          6           0       -3.206463   -0.298369    0.069013
      5          6           0       -3.808402    0.088450    1.265395
      6          6           0       -4.623300    1.224421    1.257581
      7          1           0       -5.458090    2.828237    0.079780
      8          1           0       -4.359106    2.092678   -2.026549
      9          1           0       -2.895850    0.058233   -2.026714
     10          1           0       -3.636290   -0.489431    2.165311
     11          1           0       -5.101961    1.543228    2.179151
     12          7           0       -2.341576   -1.499349    0.064878
     13          8           0       -2.199031   -2.097856    1.128883
     14          8           0       -1.822600   -1.819430   -1.002291
     15          6           0        5.533520    1.249668    0.452881
     16          6           0        4.406767    2.007376    0.116978
     17          6           0        3.191202    1.381269   -0.174466
     18          6           0        3.137816   -0.010671   -0.120216
     19          6           0        4.242887   -0.793166    0.211158
     20          6           0        5.448134   -0.145724    0.498818
     21          1           0        6.473792    1.744329    0.677811
     22          1           0        4.470149    3.091211    0.080518
     23          1           0        2.303432    1.943531   -0.437416
     24          1           0        4.148826   -1.871954    0.239238
     25          1           0        6.321562   -0.736720    0.759379
     26          7           0        1.856413   -0.684795   -0.426751
     27          8           0        1.835451   -1.912475   -0.371978
     28          8           0        0.897276    0.027271   -0.715981
 ---------------------------------------------------------------------

 SCF Done:  E(RHF) =  -868.335522676     A.U. after   16 cycles
 E2 =    -0.2600928869D+01 EUMP2 =    -0.87093645154523D+03

 The electronic state is 1-A.
 Alpha  occ. eigenvalues --  -20.60028 -20.59942 -20.59223 -20.59062 -15.85067
 Alpha  occ. eigenvalues --  -15.84208 -11.30719 -11.30029 -11.27349 -11.27296
 Alpha  occ. eigenvalues --  -11.27122 -11.26697 -11.26625 -11.26541 -11.26421
 Alpha  occ. eigenvalues --  -11.26384 -11.25829 -11.25792  -1.59044  -1.58184
 Alpha  occ. eigenvalues --   -1.38602  -1.37737  -1.18918  -1.18256  -1.08255
 Alpha  occ. eigenvalues --   -1.07572  -1.04367  -1.03739  -0.95042  -0.94330
 Alpha  occ. eigenvalues --   -0.85751  -0.85115  -0.81881  -0.81178  -0.76877
 Alpha  occ. eigenvalues --   -0.76129  -0.71287  -0.70455  -0.70403  -0.70028
 Alpha  occ. eigenvalues --   -0.69474  -0.69387  -0.64567  -0.64372  -0.63911
 Alpha  occ. eigenvalues --   -0.63766  -0.61713  -0.61084  -0.54857  -0.54255
 Alpha  occ. eigenvalues --   -0.52678  -0.52465  -0.52035  -0.51850  -0.48066
 Alpha  occ. eigenvalues --   -0.47984  -0.47203  -0.47150  -0.43959  -0.42978
 Alpha  occ. eigenvalues --   -0.36916  -0.36267  -0.35984  -0.35362
 Alpha virt. eigenvalues --    0.05661   0.06455   0.11666   0.12288   0.17105
 Alpha virt. eigenvalues --    0.17838   0.21759   0.22293   0.27644   0.28166
 Alpha virt. eigenvalues --    0.28676   0.29244   0.31283   0.31787   0.32922

 Mulliken charges:
               1
     1  C   -0.172884
     2  C   -0.219735
     3  C   -0.166829
     4  C    0.163051
     5  C   -0.172501
     6  C   -0.219173
     7  H    0.220569
     8  H    0.219280
     9  H    0.278038
    10  H    0.273028
    11  H    0.218725
    12  N    0.490612
    13  O   -0.468379
    14  O   -0.444295
    15  C   -0.171786
    16  C   -0.218470
    17  C   -0.171724
    18  C    0.159483
    19  C   -0.170935
    20  C   -0.218499
    21  H    0.223702
    22  H    0.220867
    23  H    0.272747
    24  H    0.277232
    25  H    0.222510
    26  N    0.487906
    27  O   -0.447207
    28  O   -0.465335
 Sum of Mulliken charges =  -0.00000

 Dipole moment (field-independent basis, Debye):
    X=              1.7007    Y=              6.2508    Z=              0.9131  Tot=              6.5421
 Quadrupole moment (field-independent basis, Debye-Ang):
   XX=            -59.4040   YY=           -104.3685   ZZ=           -101.2278
   XY=             -7.3502   XZ=              2.4525   YZ=             -1.3061

 Normal termination of Gaussian 16 at Wed May  5 16:17:34 2021.
