 Gaussian 16, Revision A.03,
 Gaussian 16:  EM64L-G16RevA.03 25-Dec-2016

 -------------
 #p 6-31g* mp2
 -------------

 ------------------------------------------------------
 Input file generated by CHIRIPA (05-May-2021 14:53:11)
 ------------------------------------------------------
 Symbolic Z-matrix:
 Charge =  0 Multiplicity = 1

                         Standard orientation:
 ---------------------------------------------------------------------
 Center     Atomic      Atomic             Coordinates (Angstroms)
 Number     Number       Type             X           Y           Z
 ---------------------------------------------------------------------
      1          6           0       -3.687635    1.294554   -0.050926
      2          6           0       -2.256858    1.833771   -0.040538
      3          6           0       -2.198780    3.358013   -0.145936
      4          1           0       -4.188319    1.619080   -0.973392
      5          1           0       -4.246823    1.742212    0.782324
      6          1           0       -1.700144    1.384173   -0.872732
      7          1           0       -1.759461    1.507764    0.881921
      8          1           0       -2.729998    3.822567    0.691082
      9          1           0       -2.670344    3.698274   -1.073541
     10          1           0       -1.166667    3.722040   -0.136685
     11          6           0       -3.762130   -0.227686    0.053776
     12          6           0       -5.192906   -0.766904    0.043388
     13          6           0       -5.250984   -2.291145    0.148786
     14          1           0       -3.202941   -0.675345   -0.779474
     15          1           0       -3.261445   -0.552212    0.976242
     16          1           0       -5.690304   -0.440896   -0.879071
     17          1           0       -5.749621   -0.317305    0.875582
     18          1           0       -4.779420   -2.631406    1.076391
     19          1           0       -4.719766   -2.755699   -0.688231
     20          1           0       -6.283098   -2.655173    0.139536
     21          6           0        1.014510   -2.077342   -0.124457
     22          6           0        0.741225   -0.708413   -0.035738
     23          6           0        1.783604    0.220699    0.033144
     24          6           0        3.093319   -0.256205    0.010810
     25          6           0        3.397814   -1.613730   -0.076932
     26          6           0        2.339595   -2.524842   -0.144735
     27          1           0        0.198612   -2.792106   -0.177547
     28          1           0       -0.286884   -0.358007   -0.019793
     29          1           0        1.600461    1.286100    0.102401
     30          1           0        4.432916   -1.932775   -0.090751
     31          1           0        2.554812   -3.587381   -0.213575
     32          7           0        4.205224    0.717877    0.083163
     33          8           0        5.350445    0.272179    0.061734
     34          8           0        3.910459    1.908614    0.159930
 ---------------------------------------------------------------------

 SCF Done:  E(RHF) =  -669.535410416     A.U. after   15 cycles
 E2 =    -0.2092118388D+01 EUMP2 =    -0.67162752880423D+03

 The electronic state is 1-A.
 Alpha  occ. eigenvalues --  -20.60683 -20.60678 -15.85734 -11.31070 -11.27638
 Alpha  occ. eigenvalues --  -11.27608 -11.27345 -11.26652 -11.26511 -11.22692
 Alpha  occ. eigenvalues --  -11.22455 -11.22395 -11.22288 -11.21849 -11.21795
 Alpha  occ. eigenvalues --   -1.59759  -1.39314  -1.19229  -1.09393  -1.08628
 Alpha  occ. eigenvalues --   -1.04633  -1.04406  -0.96828  -0.95473  -0.87845
 Alpha  occ. eigenvalues --   -0.86026  -0.82319  -0.80524  -0.79273  -0.77334
 Alpha  occ. eigenvalues --   -0.71953  -0.71082  -0.70342  -0.66004  -0.64876
 Alpha  occ. eigenvalues --   -0.64628  -0.62012  -0.61795  -0.60179  -0.58463
 Alpha  occ. eigenvalues --   -0.56096  -0.55129  -0.53526  -0.53266  -0.52963
 Alpha  occ. eigenvalues --   -0.52704  -0.50759  -0.48822  -0.48711  -0.48672
 Alpha  occ. eigenvalues --   -0.47541  -0.46701  -0.46681  -0.44726  -0.44675
 Alpha  occ. eigenvalues --   -0.37213  -0.36223
 Alpha virt. eigenvalues --    0.05158   0.11396   0.16613   0.20083   0.22464
 Alpha virt. eigenvalues --    0.23196   0.25032   0.25666   0.26119   0.28482
 Alpha virt. eigenvalues --    0.29238   0.30512   0.30678   0.31350   0.32806

 Mulliken charges:
               1
     1  C   -0.296969
     2  C   -0.311587
     3  C   -0.475225
     4  H    0.153744
     5  H    0.153970
     6  H    0.149933
     7  H    0.150748
     8  H    0.159117
     9  H    0.158905
    10  H    0.163834
    11  C   -0.302742
    12  C   -0.299820
    13  C   -0.476590
    14  H    0.145370
    15  H    0.148015
    16  H    0.154900
    17  H    0.155222
    18  H    0.154804
    19  H    0.153628
    20  H    0.163901
    21  C   -0.173272
    22  C   -0.228372
    23  C   -0.175294
    24  C    0.159004
    25  C   -0.171581
    26  C   -0.218392
    27  H    0.225760
    28  H    0.239534
    29  H    0.275296
    30  H    0.275052
    31  H    0.222733
    32  N    0.488113
    33  O   -0.460882
    34  O   -0.460856
 Sum of Mulliken charges =  -0.00000

 Dipole moment (field-independent basis, Debye):
    X=             -4.2315    Y=             -3.2937    Z=             -0.2516  Tot=              5.3682
 Quadrupole moment (field-independent basis, Debye-Ang):
   XX=           -116.2146   YY=            -91.1139   ZZ=            -94.6179
   XY=            -13.0452   XZ=             -1.0432   YZ=              0.3518

 Normal termination of Gaussian 16 at Wed May  5 15:26:59 2021.
