 Gaussian 16, Revision A.03,
 Gaussian 16:  EM64L-G16RevA.03 25-Dec-2016

 -------------
 #p 6-31g* mp2
 -------------

 ------------------------------------------------------
 Input file generated by CHIRIPA (05-May-2021 14:53:16)
 ------------------------------------------------------
 Symbolic Z-matrix:
 Charge =  0 Multiplicity = 1

                         Standard orientation:
 ---------------------------------------------------------------------
 Center     Atomic      Atomic             Coordinates (Angstroms)
 Number     Number       Type             X           Y           Z
 ---------------------------------------------------------------------
      1          6           0       -4.037406   -0.874674    0.193605
      2          6           0       -2.591378   -0.467048   -0.090703
      3          6           0       -1.593287   -1.588705    0.198251
      4          1           0       -4.124784   -1.183519    1.244283
      5          1           0       -4.288717   -1.755673   -0.413091
      6          1           0       -2.343308    0.413756    0.515319
      7          1           0       -2.507474   -0.158956   -1.140777
      8          1           0       -1.812801   -2.467561   -0.416589
      9          1           0       -1.647703   -1.891595    1.248916
     10          1           0       -0.565770   -1.275759   -0.011828
     11          6           0       -5.046968    0.236102   -0.090449
     12          6           0       -6.492996   -0.171524    0.193858
     13          6           0       -7.491087    0.950133   -0.095095
     14          1           0       -4.795657    1.117101    0.516246
     15          1           0       -4.959590    0.544947   -1.141127
     16          1           0       -6.576900   -0.479616    1.243932
     17          1           0       -6.741066   -1.052328   -0.412163
     18          1           0       -7.436671    1.253023   -1.145760
     19          1           0       -7.271573    1.828989    0.519744
     20          1           0       -8.518604    0.637187    0.114984
     21          6           0        2.545020    2.564336   -0.047308
     22          6           0        3.899523    2.389509    0.254814
     23          6           0        4.466246    1.111493    0.261674
     24          6           0        3.645604    0.025647   -0.039617
     25          6           0        2.292769    0.167400   -0.344627
     26          6           0        1.747372    1.454679   -0.345539
     27          1           0        2.113059    3.560728   -0.050327
     28          1           0        4.521385    3.249458    0.486808
     29          1           0        5.511935    0.947531    0.492039
     30          1           0        1.698131   -0.709071   -0.571840
     31          1           0        0.695141    1.587453   -0.580540
     32          7           0        4.234280   -1.332236   -0.035503
     33          8           0        3.489963   -2.272631   -0.304361
     34          8           0        5.428854   -1.430435    0.236501
 ---------------------------------------------------------------------

 SCF Done:  E(RHF) =  -669.535419965     A.U. after   15 cycles
 E2 =    -0.2091174711D+01 EUMP2 =    -0.67162659467591D+03

 The electronic state is 1-A.
 Alpha  occ. eigenvalues --  -20.60738 -20.60731 -15.85790 -11.31161 -11.27734
 Alpha  occ. eigenvalues --  -11.27720 -11.27478 -11.26755 -11.26737 -11.22238
 Alpha  occ. eigenvalues --  -11.21922 -11.21845 -11.21770 -11.21641 -11.21359
 Alpha  occ. eigenvalues --   -1.59812  -1.39365  -1.19337  -1.08879  -1.08730
 Alpha  occ. eigenvalues --   -1.04744  -1.03983  -0.96418  -0.95565  -0.87431
 Alpha  occ. eigenvalues --   -0.86138  -0.82396  -0.80053  -0.78684  -0.77445
 Alpha  occ. eigenvalues --   -0.72009  -0.71135  -0.70459  -0.65501  -0.64992
 Alpha  occ. eigenvalues --   -0.64748  -0.62159  -0.61366  -0.59784  -0.58035
 Alpha  occ. eigenvalues --   -0.55675  -0.55247  -0.53217  -0.53052  -0.52889
 Alpha  occ. eigenvalues --   -0.52699  -0.50333  -0.48768  -0.48763  -0.48365
 Alpha  occ. eigenvalues --   -0.47079  -0.46224  -0.46139  -0.44769  -0.44237
 Alpha  occ. eigenvalues --   -0.37318  -0.36340
 Alpha virt. eigenvalues --    0.05077   0.11298   0.16549   0.19693   0.22622
 Alpha virt. eigenvalues --    0.23742   0.25875   0.26188   0.26635   0.27925
 Alpha virt. eigenvalues --    0.28784   0.29952   0.31033   0.31505   0.32191

 Mulliken charges:
               1
     1  C   -0.298790
     2  C   -0.301871
     3  C   -0.477516
     4  H    0.151919
     5  H    0.152267
     6  H    0.148187
     7  H    0.149806
     8  H    0.161508
     9  H    0.160904
    10  H    0.152453
    11  C   -0.298498
    12  C   -0.300072
    13  C   -0.475921
    14  H    0.148419
    15  H    0.149344
    16  H    0.152929
    17  H    0.153218
    18  H    0.155226
    19  H    0.154837
    20  H    0.161576
    21  C   -0.170956
    22  C   -0.218623
    23  C   -0.170709
    24  C    0.160581
    25  C   -0.178933
    26  C   -0.221518
    27  H    0.225584
    28  H    0.223387
    29  H    0.275553
    30  H    0.282838
    31  H    0.225745
    32  N    0.487666
    33  O   -0.459960
    34  O   -0.460580
 Sum of Mulliken charges =  -0.00000

 Dipole moment (field-independent basis, Debye):
    X=             -2.2183    Y=              4.7143    Z=              0.0182  Tot=              5.2101
 Quadrupole moment (field-independent basis, Debye-Ang):
   XX=           -106.1826   YY=            -94.4724   ZZ=            -94.3874
   XY=             20.4290   XZ=              1.2147   YZ=              0.7745

 Normal termination of Gaussian 16 at Thu May  6 20:28:13 2021.
