 Gaussian 16, Revision A.03,
 Gaussian 16:  EM64L-G16RevA.03 25-Dec-2016

 -------------
 #p 6-31g* mp2
 -------------

 ------------------------------------------------------
 Input file generated by CHIRIPA (05-May-2021 14:53:16)
 ------------------------------------------------------
 Symbolic Z-matrix:
 Charge =  0 Multiplicity = 1

                         Standard orientation:
 ---------------------------------------------------------------------
 Center     Atomic      Atomic             Coordinates (Angstroms)
 Number     Number       Type             X           Y           Z
 ---------------------------------------------------------------------
      1          6           0        4.668517    0.198359   -0.203391
      2          6           0        5.654427    0.189437    0.965321
      3          6           0        6.886296    1.057270    0.706171
      4          1           0        5.181128   -0.151471   -1.109919
      5          1           0        4.354533    1.232602   -0.401255
      6          1           0        5.965395   -0.844635    1.161816
      7          1           0        5.139358    0.539146    1.869214
      8          1           0        6.594579    2.097963    0.531643
      9          1           0        7.425310    0.706320   -0.179774
     10          1           0        7.577709    1.036419    1.554330
     11          6           0        3.431831   -0.664640    0.040678
     12          6           0        2.445920   -0.655719   -1.128033
     13          6           0        1.214051   -1.523552   -0.868883
     14          1           0        3.745815   -1.698883    0.238542
     15          1           0        2.919220   -0.314811    0.947207
     16          1           0        2.960990   -1.005428   -2.031926
     17          1           0        2.134953    0.378353   -1.324528
     18          1           0        0.675038   -1.172601    0.017062
     19          1           0        1.505768   -2.564245   -0.694355
     20          1           0        0.522639   -1.502700   -1.717042
     21          6           0       -3.269054   -2.306384    0.466261
     22          6           0       -2.386073   -1.788090   -0.486753
     23          6           0       -2.319512   -0.410941   -0.718221
     24          6           0       -3.154061    0.422722    0.024628
     25          6           0       -4.044216   -0.063290    0.981031
     26          6           0       -4.093853   -1.443851    1.195825
     27          1           0       -3.314188   -3.377512    0.639594
     28          1           0       -1.744341   -2.455568   -1.054819
     29          1           0       -1.645130    0.017108   -1.449932
     30          1           0       -4.671470    0.627131    1.531746
     31          1           0       -4.780552   -1.843556    1.936586
     32          7           0       -3.092554    1.882455   -0.211591
     33          8           0       -3.838308    2.595768    0.455995
     34          8           0       -2.299755    2.285640   -1.059852
 ---------------------------------------------------------------------

 SCF Done:  E(RHF) =  -669.534736622     A.U. after   15 cycles
 E2 =    -0.2092102751D+01 EUMP2 =    -0.67162683937351D+03

 The electronic state is 1-A.
 Alpha  occ. eigenvalues --  -20.60739 -20.60734 -15.85791 -11.31126 -11.27690
 Alpha  occ. eigenvalues --  -11.27657 -11.27418 -11.26710 -11.26643 -11.21951
 Alpha  occ. eigenvalues --  -11.21773 -11.21677 -11.21622 -11.21479 -11.21096
 Alpha  occ. eigenvalues --   -1.59815  -1.39369  -1.19298  -1.08699  -1.08640
 Alpha  occ. eigenvalues --   -1.04705  -1.03795  -0.96290  -0.95535  -0.87327
 Alpha  occ. eigenvalues --   -0.86088  -0.82373  -0.79875  -0.78424  -0.77410
 Alpha  occ. eigenvalues --   -0.72009  -0.71139  -0.70409  -0.65267  -0.64948
 Alpha  occ. eigenvalues --   -0.64694  -0.62131  -0.61170  -0.59639  -0.57872
 Alpha  occ. eigenvalues --   -0.55577  -0.55194  -0.53230  -0.52926  -0.52759
 Alpha  occ. eigenvalues --   -0.52595  -0.50187  -0.48765  -0.48764  -0.48182
 Alpha  occ. eigenvalues --   -0.46862  -0.45977  -0.45870  -0.44780  -0.44054
 Alpha  occ. eigenvalues --   -0.37285  -0.36237
 Alpha virt. eigenvalues --    0.05098   0.11327   0.16551   0.20577   0.22744
 Alpha virt. eigenvalues --    0.23921   0.26108   0.26469   0.27253   0.28076
 Alpha virt. eigenvalues --    0.28884   0.30215   0.31175   0.31523   0.32353

 Mulliken charges:
               1
     1  C   -0.299122
     2  C   -0.299906
     3  C   -0.475982
     4  H    0.149650
     5  H    0.152787
     6  H    0.151056
     7  H    0.152790
     8  H    0.156724
     9  H    0.155061
    10  H    0.160474
    11  C   -0.299161
    12  C   -0.301156
    13  C   -0.481366
    14  H    0.148374
    15  H    0.151480
    16  H    0.152802
    17  H    0.158730
    18  H    0.162773
    19  H    0.154503
    20  H    0.148740
    21  C   -0.172063
    22  C   -0.217534
    23  C   -0.171761
    24  C    0.157925
    25  C   -0.171535
    26  C   -0.218677
    27  H    0.225376
    28  H    0.227346
    29  H    0.276705
    30  H    0.275194
    31  H    0.223074
    32  N    0.488277
    33  O   -0.460629
    34  O   -0.460952
 Sum of Mulliken charges =  -0.00000

 Dipole moment (field-independent basis, Debye):
    X=             -0.0879    Y=             -5.1011    Z=              0.8689  Tot=              5.1754
 Quadrupole moment (field-independent basis, Debye-Ang):
   XX=            -91.7725   YY=            -99.4393   ZZ=            -92.6965
   XY=             15.0112   XZ=             -5.6651   YZ=              1.0443

 Normal termination of Gaussian 16 at Wed May  5 20:20:29 2021.
