 Gaussian 16, Revision A.03,
 Gaussian 16:  EM64L-G16RevA.03 25-Dec-2016

 -------------
 #p 6-31g* mp2
 -------------

 ------------------------------------------------------
 Input file generated by CHIRIPA (05-May-2021 14:55:25)
 ------------------------------------------------------
 Symbolic Z-matrix:
 Charge =  0 Multiplicity = 1

                         Standard orientation:
 ---------------------------------------------------------------------
 Center     Atomic      Atomic             Coordinates (Angstroms)
 Number     Number       Type             X           Y           Z
 ---------------------------------------------------------------------
      1          6           0        1.671128   -2.268575    0.740869
      2          6           0        3.060612   -2.427235    0.714765
      3          6           0        3.886432   -1.383930    0.285712
      4          6           0        3.286399   -0.190184   -0.112056
      5          6           0        1.905292   -0.001456   -0.097388
      6          6           0        1.098911   -1.058325    0.335424
      7          1           0        1.037162   -3.084307    1.075627
      8          1           0        3.507771   -3.366015    1.029067
      9          1           0        4.965010   -1.479714    0.255498
     10          1           0        1.488700    0.946115   -0.416728
     11          1           0        0.020122   -0.932273    0.354647
     12          7           0        4.150367    0.921496   -0.568265
     13          8           0        3.597120    1.963270   -0.913610
     14          8           0        5.364433    0.730008   -0.571858
     15          6           0       -4.206915   -0.145765   -0.354142
     16          6           0       -5.668768   -0.564096   -0.192983
     17          6           0       -6.018752   -1.813452   -1.001941
     18          1           0       -3.998759    0.034133   -1.417745
     19          1           0       -3.558608   -0.977369   -0.045064
     20          1           0       -6.314120    0.268541   -0.500964
     21          1           0       -5.873518   -0.742834    0.870383
     22          1           0       -5.399324   -2.660512   -0.689850
     23          1           0       -5.842429   -1.643391   -2.068989
     24          1           0       -7.068456   -2.094759   -0.872145
     25          6           0       -3.841741    1.101674    0.448523
     26          6           0       -2.379889    1.520005    0.287364
     27          6           0       -2.029904    2.769362    1.096323
     28          1           0       -4.490048    1.933278    0.139446
     29          1           0       -4.049897    0.921775    1.512127
     30          1           0       -2.175138    1.698743   -0.776001
     31          1           0       -1.734536    0.687368    0.595346
     32          1           0       -2.206227    2.599300    2.163370
     33          1           0       -2.649331    3.616420    0.784232
     34          1           0       -0.980200    3.050669    0.966527
 ---------------------------------------------------------------------

 SCF Done:  E(RHF) =  -669.535557788     A.U. after   15 cycles
 E2 =    -0.2091241666D+01 EUMP2 =    -0.67162679945391D+03

 The electronic state is 1-A.
 Alpha  occ. eigenvalues --  -20.60734 -20.60729 -15.85787 -11.31144 -11.27716
 Alpha  occ. eigenvalues --  -11.27700 -11.27456 -11.26733 -11.26691 -11.22470
 Alpha  occ. eigenvalues --  -11.22161 -11.22090 -11.22033 -11.21636 -11.21569
 Alpha  occ. eigenvalues --   -1.59810  -1.39364  -1.19315  -1.09112  -1.08714
 Alpha  occ. eigenvalues --   -1.04717  -1.04167  -0.96581  -0.95550  -0.87594
 Alpha  occ. eigenvalues --   -0.86118  -0.82385  -0.80255  -0.78942  -0.77425
 Alpha  occ. eigenvalues --   -0.72006  -0.71133  -0.70428  -0.65765  -0.64967
 Alpha  occ. eigenvalues --   -0.64720  -0.62117  -0.61524  -0.59949  -0.58205
 Alpha  occ. eigenvalues --   -0.55856  -0.55224  -0.53268  -0.53049  -0.53022
 Alpha  occ. eigenvalues --   -0.52806  -0.50514  -0.48774  -0.48761  -0.48539
 Alpha  occ. eigenvalues --   -0.47285  -0.46462  -0.46388  -0.44771  -0.44421
 Alpha  occ. eigenvalues --   -0.37301  -0.36317
 Alpha virt. eigenvalues --    0.05100   0.11325   0.16573   0.19386   0.22585
 Alpha virt. eigenvalues --    0.23614   0.24551   0.26120   0.26596   0.28549
 Alpha virt. eigenvalues --    0.28999   0.29922   0.31169   0.31461   0.32465

 Mulliken charges:
               1
     1  C   -0.171659
     2  C   -0.218518
     3  C   -0.171045
     4  C    0.158689
     5  C   -0.173807
     6  C   -0.224403
     7  H    0.225663
     8  H    0.223176
     9  H    0.275431
    10  H    0.276422
    11  H    0.231834
    12  N    0.488133
    13  O   -0.460578
    14  O   -0.460620
    15  C   -0.297965
    16  C   -0.300144
    17  C   -0.475918
    18  H    0.151723
    19  H    0.142605
    20  H    0.154392
    21  H    0.152523
    22  H    0.153568
    23  H    0.156465
    24  H    0.162254
    25  C   -0.298024
    26  C   -0.307050
    27  C   -0.476204
    28  H    0.153776
    29  H    0.150928
    30  H    0.155009
    31  H    0.143677
    32  H    0.156773
    33  H    0.159629
    34  H    0.163268
 Sum of Mulliken charges =  -0.00000

 Dipole moment (field-independent basis, Debye):
    X=             -3.2354    Y=             -3.8083    Z=              1.6027  Tot=              5.2478
 Quadrupole moment (field-independent basis, Debye-Ang):
   XX=           -111.0310   YY=            -92.2011   ZZ=            -95.4544
   XY=            -15.8526   XZ=              6.4403   YZ=             -1.3085

 Normal termination of Gaussian 16 at Wed May  5 16:08:03 2021.
