 Gaussian 16, Revision A.03,
 Gaussian 16:  EM64L-G16RevA.03 25-Dec-2016

 -------------
 #p 6-31g* mp2
 -------------

 ------------------------------------------------------
 Input file generated by CHIRIPA (05-May-2021 14:51:12)
 ------------------------------------------------------
 Symbolic Z-matrix:
 Charge =  0 Multiplicity = 1

                         Standard orientation:
 ---------------------------------------------------------------------
 Center     Atomic      Atomic             Coordinates (Angstroms)
 Number     Number       Type             X           Y           Z
 ---------------------------------------------------------------------
      1          6           0        3.090835    0.371409    0.139817
      2          6           0        2.908892    1.024896   -1.230525
      3          6           0        4.007863    2.037846   -1.552998
      4          1           0        3.109421    1.152669    0.911977
      5          1           0        4.070304   -0.125432    0.174221
      6          1           0        1.929476    1.519181   -1.262817
      7          1           0        2.890544    0.241975   -1.999493
      8          1           0        4.990378    1.554893   -1.548256
      9          1           0        4.023849    2.839356   -0.807393
     10          1           0        3.858246    2.492871   -2.537085
     11          6           0        1.999981   -0.643663    0.476559
     12          6           0        2.181923   -1.297151    1.846900
     13          6           0        1.082952   -2.310100    2.169374
     14          1           0        1.020511   -0.146822    0.442154
     15          1           0        1.981394   -1.424924   -0.295601
     16          1           0        2.200271   -0.514229    2.615869
     17          1           0        3.161340   -1.791435    1.879193
     18          1           0        1.066966   -3.111611    1.423769
     19          1           0        0.100437   -1.827148    2.164631
     20          1           0        1.232570   -2.765126    3.153461
     21          6           0       -2.790133    0.857961   -0.258204
     22          6           0       -2.645033    1.451744    1.143349
     23          6           0       -3.138873    2.896338    1.227384
     24          1           0       -2.232902    1.479588   -0.972359
     25          1           0       -3.845452    0.903865   -0.560843
     26          1           0       -1.590515    1.403469    1.443811
     27          1           0       -3.202518    0.828522    1.854280
     28          1           0       -4.197009    2.958295    0.953318
     29          1           0       -2.575847    3.536508    0.540516
     30          1           0       -3.025905    3.301088    2.237966
     31          6           0       -2.300682   -0.585706   -0.358172
     32          6           0       -2.445782   -1.179489   -1.759725
     33          6           0       -1.951943   -2.624085   -1.843759
     34          1           0       -1.245364   -0.631610   -0.055534
     35          1           0       -2.857915   -1.207333    0.355983
     36          1           0       -1.888298   -0.556268   -2.470656
     37          1           0       -3.500299   -1.131214   -2.060187
     38          1           0       -2.514969   -3.264253   -1.156892
     39          1           0       -0.893807   -2.686041   -1.569694
     40          1           0       -2.064910   -3.028833   -2.854342
 ---------------------------------------------------------------------

 SCF Done:  E(RHF) =  -470.733273081     A.U. after   11 cycles
 E2 =    -0.1583884859D+01 EUMP2 =    -0.47231715794041D+03

 The electronic state is 1-A.
 Alpha  occ. eigenvalues --  -11.21669 -11.21653 -11.21641 -11.21567 -11.21478
 Alpha  occ. eigenvalues --  -11.21417 -11.21397 -11.21304 -11.21119 -11.21108
 Alpha  occ. eigenvalues --  -11.21060 -11.21027  -1.08507  -1.08418  -1.03576
 Alpha  occ. eigenvalues --   -1.03525  -0.96022  -0.95974  -0.87038  -0.86990
 Alpha  occ. eigenvalues --   -0.79659  -0.79579  -0.78441  -0.78125  -0.65254
 Alpha  occ. eigenvalues --   -0.64948  -0.60972  -0.60926  -0.59408  -0.59327
 Alpha  occ. eigenvalues --   -0.57635  -0.57585  -0.55343  -0.55233  -0.52711
 Alpha  occ. eigenvalues --   -0.52673  -0.52452  -0.52398  -0.49987  -0.49903
 Alpha  occ. eigenvalues --   -0.48046  -0.47862  -0.46752  -0.46642  -0.46305
 Alpha  occ. eigenvalues --   -0.45804  -0.45749  -0.45066  -0.43836  -0.43778
 Alpha virt. eigenvalues --    0.19995   0.23194   0.23557   0.24085   0.25357
 Alpha virt. eigenvalues --    0.26242   0.26894   0.27966   0.28420   0.30050
 Alpha virt. eigenvalues --    0.30873   0.31470   0.31664   0.31810   0.32222

 Mulliken charges:
               1
     1  C   -0.297554
     2  C   -0.299669
     3  C   -0.475746
     4  H    0.149795
     5  H    0.150006
     6  H    0.151112
     7  H    0.152095
     8  H    0.155444
     9  H    0.155328
    10  H    0.160416
    11  C   -0.306248
    12  C   -0.299378
    13  C   -0.478585
    14  H    0.155729
    15  H    0.149664
    16  H    0.151882
    17  H    0.152148
    18  H    0.155390
    19  H    0.158531
    20  H    0.160315
    21  C   -0.297749
    22  C   -0.300835
    23  C   -0.475620
    24  H    0.149165
    25  H    0.149774
    26  H    0.150993
    27  H    0.152310
    28  H    0.155587
    29  H    0.155128
    30  H    0.160281
    31  C   -0.309367
    32  C   -0.298857
    33  C   -0.476609
    34  H    0.160854
    35  H    0.149434
    36  H    0.151897
    37  H    0.151668
    38  H    0.155231
    39  H    0.156187
    40  H    0.159851
 Sum of Mulliken charges =  -0.00000

 Dipole moment (field-independent basis, Debye):
    X=              0.0207    Y=             -0.0046    Z=              0.0098  Tot=              0.0233
 Quadrupole moment (field-independent basis, Debye-Ang):
   XX=            -84.1686   YY=            -85.7968   ZZ=            -84.7409
   XY=             -0.3251   XZ=             -0.1577   YZ=              0.2722

 Normal termination of Gaussian 16 at Wed May  5 19:56:10 2021.
