 Gaussian 16, Revision A.03,
 Gaussian 16:  EM64L-G16RevA.03 25-Dec-2016

 -------------
 #p 6-31g* mp2
 -------------

 ------------------------------------------------------
 Input file generated by CHIRIPA (05-May-2021 14:51:13)
 ------------------------------------------------------
 Symbolic Z-matrix:
 Charge =  0 Multiplicity = 1

                         Standard orientation:
 ---------------------------------------------------------------------
 Center     Atomic      Atomic             Coordinates (Angstroms)
 Number     Number       Type             X           Y           Z
 ---------------------------------------------------------------------
      1          6           0        2.696989   -0.353068    0.509524
      2          6           0        2.941809   -1.724025   -0.121765
      3          6           0        2.446970   -2.875185    0.754454
      4          1           0        3.196184   -0.312293    1.487320
      5          1           0        1.621926   -0.232549    0.702162
      6          1           0        4.015927   -1.841365   -0.314426
      7          1           0        2.442133   -1.761474   -1.098257
      8          1           0        1.371116   -2.785807    0.936525
      9          1           0        2.953852   -2.866152    1.724810
     10          1           0        2.631956   -3.845957    0.284089
     11          6           0        3.186268    0.807852   -0.354536
     12          6           0        2.941448    2.178809    0.276753
     13          6           0        3.436287    3.329970   -0.599466
     14          1           0        4.261331    0.687334   -0.547174
     15          1           0        2.687073    0.767077   -1.332333
     16          1           0        3.441124    2.216258    1.253245
     17          1           0        1.867330    2.296149    0.469414
     18          1           0        2.929405    3.320936   -1.569822
     19          1           0        4.512141    3.240591   -0.781537
     20          1           0        3.251301    4.300741   -0.129101
     21          6           0       -2.320606   -0.671045   -0.046924
     22          6           0       -2.566235   -2.093572   -0.550977
     23          6           0       -1.314494   -2.969012   -0.483574
     24          1           0       -1.518025   -0.212051   -0.640332
     25          1           0       -1.957604   -0.714238    0.989300
     26          1           0       -2.929983   -2.047645   -1.585478
     27          1           0       -3.368456   -2.549166    0.043575
     28          1           0       -0.952257   -3.044566    0.546804
     29          1           0       -0.511292   -2.540195   -1.091506
     30          1           0       -1.512633   -3.981598   -0.848639
     31          6           0       -3.562652    0.216261   -0.108064
     32          6           0       -3.317022    1.638787    0.395988
     33          6           0       -4.568762    2.514228    0.328586
     34          1           0       -3.925652    0.259453   -1.144287
     35          1           0       -4.365232   -0.242733    0.485344
     36          1           0       -2.514801    2.094382   -0.198564
     37          1           0       -2.953275    1.592861    1.430491
     38          1           0       -5.371965    2.085411    0.936519
     39          1           0       -4.931000    2.589782   -0.701791
     40          1           0       -4.370625    3.526814    0.693651
 ---------------------------------------------------------------------

 SCF Done:  E(RHF) =  -470.732971284     A.U. after   11 cycles
 E2 =    -0.1583292538D+01 EUMP2 =    -0.47231626382210D+03

 The electronic state is 1-A.
 Alpha  occ. eigenvalues --  -11.21665 -11.21653 -11.21573 -11.21529 -11.21483
 Alpha  occ. eigenvalues --  -11.21418 -11.21360 -11.21292 -11.21131 -11.21108
 Alpha  occ. eigenvalues --  -11.21056 -11.20891  -1.08500  -1.08376  -1.03601
 Alpha  occ. eigenvalues --   -1.03458  -0.96068  -0.95891  -0.87097  -0.86897
 Alpha  occ. eigenvalues --   -0.79688  -0.79506  -0.78325  -0.78180  -0.65131
 Alpha  occ. eigenvalues --   -0.65010  -0.60990  -0.60898  -0.59410  -0.59277
 Alpha  occ. eigenvalues --   -0.57712  -0.57493  -0.55360  -0.55203  -0.52737
 Alpha  occ. eigenvalues --   -0.52611  -0.52559  -0.52225  -0.50067  -0.49771
 Alpha  occ. eigenvalues --   -0.48083  -0.47726  -0.46751  -0.46489  -0.45957
 Alpha  occ. eigenvalues --   -0.45777  -0.45705  -0.45509  -0.43848  -0.43723
 Alpha virt. eigenvalues --    0.20680   0.23140   0.23567   0.24971   0.25889
 Alpha virt. eigenvalues --    0.26009   0.26777   0.27506   0.28724   0.29306
 Alpha virt. eigenvalues --    0.30149   0.31072   0.31826   0.31887   0.32233

 Mulliken charges:
               1
     1  C   -0.299946
     2  C   -0.299737
     3  C   -0.480990
     4  H    0.149428
     5  H    0.151230
     6  H    0.151545
     7  H    0.151286
     8  H    0.162894
     9  H    0.153645
    10  H    0.159584
    11  C   -0.298020
    12  C   -0.299770
    13  C   -0.475633
    14  H    0.149453
    15  H    0.148885
    16  H    0.151914
    17  H    0.152190
    18  H    0.154874
    19  H    0.155161
    20  H    0.160182
    21  C   -0.299280
    22  C   -0.299869
    23  C   -0.479668
    24  H    0.149438
    25  H    0.149587
    26  H    0.152106
    27  H    0.152330
    28  H    0.157825
    29  H    0.157344
    30  H    0.161133
    31  C   -0.298265
    32  C   -0.299744
    33  C   -0.475752
    34  H    0.149760
    35  H    0.150014
    36  H    0.151665
    37  H    0.152132
    38  H    0.155326
    39  H    0.155270
    40  H    0.160474
 Sum of Mulliken charges =  -0.00000

 Dipole moment (field-independent basis, Debye):
    X=             -0.0665    Y=             -0.0194    Z=              0.0032  Tot=              0.0694
 Quadrupole moment (field-independent basis, Debye-Ang):
   XX=            -84.7190   YY=            -86.1080   ZZ=            -83.9518
   XY=              0.4593   XZ=              0.3346   YZ=              0.2042

 Normal termination of Gaussian 16 at Thu May  6 00:47:12 2021.
