 Gaussian 16, Revision A.03,
 Gaussian 16:  EM64L-G16RevA.03 25-Dec-2016

 -------------
 #p 6-31g* mp2
 -------------

 ------------------------------------------------------
 Input file generated by CHIRIPA (05-May-2021 14:57:25)
 ------------------------------------------------------
 Symbolic Z-matrix:
 Charge =  0 Multiplicity = 1

                         Standard orientation:
 ---------------------------------------------------------------------
 Center     Atomic      Atomic             Coordinates (Angstroms)
 Number     Number       Type             X           Y           Z
 ---------------------------------------------------------------------
      1          6           0        4.307540   -1.593963   -0.188387
      2          6           0        4.848069   -0.359478    0.186308
      3          6           0        4.043652    0.783003    0.233191
      4          6           0        2.696799    0.654243   -0.102517
      5          6           0        2.128831   -0.561651   -0.479747
      6          6           0        2.952036   -1.690939   -0.519635
      7          1           0        4.939728   -2.476345   -0.222089
      8          1           0        5.900432   -0.281193    0.444085
      9          1           0        4.436146    1.751101    0.519814
     10          1           0        1.076206   -0.608366   -0.731179
     11          1           0        2.529533   -2.648356   -0.810990
     12          7           0        1.835254    1.856753   -0.056587
     13          8           0        0.651695    1.716869   -0.357017
     14          8           0        2.359847    2.916394    0.278973
     15          6           0       -4.397421    1.472872   -0.354499
     16          6           0       -3.908526    1.263906    0.939268
     17          6           0       -3.044353    0.198349    1.208231
     18          6           0       -2.688110   -0.642536    0.155001
     19          6           0       -3.158414   -0.460502   -1.144602
     20          6           0       -4.021468    0.611520   -1.390479
     21          1           0       -5.068296    2.303134   -0.554470
     22          1           0       -4.198800    1.931243    1.745771
     23          1           0       -2.651048    0.013487    2.200479
     24          1           0       -2.851192   -1.142599   -1.928040
     25          1           0       -4.399597    0.771387   -2.396215
     26          7           0       -1.773842   -1.774017    0.427521
     27          8           0       -1.475071   -2.500601   -0.517703
     28          8           0       -1.373321   -1.912861    1.581185
 ---------------------------------------------------------------------

 SCF Done:  E(RHF) =  -868.340360919     A.U. after   16 cycles
 E2 =    -0.2599065905D+01 EUMP2 =    -0.87093942682334D+03

 The electronic state is 1-A.
 Alpha  occ. eigenvalues --  -20.60912 -20.60865 -20.60453 -20.60442 -15.85898
 Alpha  occ. eigenvalues --  -15.85487 -11.30798 -11.30579 -11.27367 -11.27314
 Alpha  occ. eigenvalues --  -11.27167 -11.27037 -11.27019 -11.26824 -11.26283
 Alpha  occ. eigenvalues --  -11.26240 -11.26152 -11.25963  -1.59967  -1.59525
 Alpha  occ. eigenvalues --   -1.39528  -1.39087  -1.18930  -1.18727  -1.08429
 Alpha  occ. eigenvalues --   -1.08182  -1.04285  -1.04070  -0.95342  -0.95061
 Alpha  occ. eigenvalues --   -0.85721  -0.85499  -0.82204  -0.81889  -0.77294
 Alpha  occ. eigenvalues --   -0.76969  -0.72141  -0.71735  -0.71272  -0.70834
 Alpha  occ. eigenvalues --   -0.70086  -0.69838  -0.64616  -0.64379  -0.64323
 Alpha  occ. eigenvalues --   -0.64067  -0.61668  -0.61414  -0.54839  -0.54620
 Alpha  occ. eigenvalues --   -0.52591  -0.52433  -0.52409  -0.52154  -0.48920
 Alpha  occ. eigenvalues --   -0.48857  -0.48486  -0.48450  -0.45031  -0.44553
 Alpha  occ. eigenvalues --   -0.36867  -0.36715  -0.35832  -0.35653
 Alpha virt. eigenvalues --    0.05213   0.05531   0.11810   0.11982   0.16789
 Alpha virt. eigenvalues --    0.17089   0.21805   0.22131   0.27719   0.27875
 Alpha virt. eigenvalues --    0.28607   0.28915   0.31273   0.31743   0.32713

 Mulliken charges:
               1
     1  C   -0.170979
     2  C   -0.218923
     3  C   -0.172010
     4  C    0.158133
     5  C   -0.168804
     6  C   -0.218328
     7  H    0.224685
     8  H    0.220885
     9  H    0.272535
    10  H    0.276481
    11  H    0.233211
    12  N    0.488589
    13  O   -0.465367
    14  O   -0.462938
    15  C   -0.167226
    16  C   -0.215557
    17  C   -0.164299
    18  C    0.161400
    19  C   -0.169048
    20  C   -0.216507
    21  H    0.225520
    22  H    0.223649
    23  H    0.274349
    24  H    0.271467
    25  H    0.222143
    26  N    0.486156
    27  O   -0.470786
    28  O   -0.458431
 Sum of Mulliken charges =  -0.00000

 Dipole moment (field-independent basis, Debye):
    X=             -0.3678    Y=             -0.2432    Z=             -1.0650  Tot=              1.1527
 Quadrupole moment (field-independent basis, Debye-Ang):
   XX=            -69.0204   YY=           -114.8738   ZZ=           -100.8520
   XY=            -16.8816   XZ=              2.7908   YZ=              3.9931

 Normal termination of Gaussian 16 at Fri May  7 09:39:39 2021.
