 Gaussian 16, Revision A.03,
 Gaussian 16:  EM64L-G16RevA.03 25-Dec-2016

 -------------
 #p 6-31g* mp2
 -------------

 ------------------------------------------------------
 Input file generated by CHIRIPA (05-May-2021 14:55:22)
 ------------------------------------------------------
 Symbolic Z-matrix:
 Charge =  0 Multiplicity = 1

                         Standard orientation:
 ---------------------------------------------------------------------
 Center     Atomic      Atomic             Coordinates (Angstroms)
 Number     Number       Type             X           Y           Z
 ---------------------------------------------------------------------
      1          6           0        0.878235   -1.801805    1.896967
      2          6           0        0.872426   -0.405979    1.987280
      3          6           0        1.535511    0.370092    1.031988
      4          6           0        2.197309   -0.285616   -0.005007
      5          6           0        2.221261   -1.674487   -0.122292
      6          6           0        1.551447   -2.430496    0.844325
      7          1           0        0.360522   -2.396883    2.643459
      8          1           0        0.350427    0.084983    2.803686
      9          1           0        1.547041    1.452305    1.077814
     10          1           0        2.750327   -2.135320   -0.947604
     11          1           0        1.557639   -3.514344    0.771661
     12          7           0        2.902849    0.525356   -1.022326
     13          8           0        3.478538   -0.076454   -1.926231
     14          8           0        2.866802    1.747450   -0.896534
     15          6           0       -3.286480    0.121029   -0.359326
     16          6           0       -2.970486   -1.317918   -0.768670
     17          6           0       -4.226558   -2.136836   -1.067757
     18          1           0       -3.937546    0.109235    0.525501
     19          1           0       -3.858927    0.605954   -1.162164
     20          1           0       -2.397613   -1.799553    0.034113
     21          1           0       -2.319941   -1.302696   -1.652510
     22          1           0       -4.797708   -1.682097   -1.883601
     23          1           0       -4.875821   -2.181779   -0.187395
     24          1           0       -3.977542   -3.162217   -1.358353
     25          6           0       -2.040950    0.952313   -0.057081
     26          6           0       -2.356944    2.391260    0.352263
     27          6           0       -1.100872    3.210178    0.651349
     28          1           0       -1.468503    0.467389    0.745756
     29          1           0       -1.389884    0.964107   -0.941908
     30          1           0       -3.007490    2.376038    1.236104
     31          1           0       -2.929817    2.872896   -0.450520
     32          1           0       -0.451609    3.255121   -0.229013
     33          1           0       -0.529723    2.755440    1.467194
     34          1           0       -1.349889    4.235558    0.941947
 ---------------------------------------------------------------------

 SCF Done:  E(RHF) =  -669.534023903     A.U. after   15 cycles
 E2 =    -0.2094804658D+01 EUMP2 =    -0.67162882856024D+03

 The electronic state is 1-A.
 Alpha  occ. eigenvalues --  -20.60799 -20.60794 -15.85847 -11.31194 -11.27776
 Alpha  occ. eigenvalues --  -11.27727 -11.27545 -11.26799 -11.26777 -11.21835
 Alpha  occ. eigenvalues --  -11.21823 -11.21580 -11.21437 -11.21384 -11.21323
 Alpha  occ. eigenvalues --   -1.59871  -1.39424  -1.19387  -1.08793  -1.08638
 Alpha  occ. eigenvalues --   -1.04803  -1.03777  -0.96228  -0.95618  -0.87251
 Alpha  occ. eigenvalues --   -0.86189  -0.82464  -0.79843  -0.78478  -0.77475
 Alpha  occ. eigenvalues --   -0.72067  -0.71192  -0.70500  -0.65322  -0.65030
 Alpha  occ. eigenvalues --   -0.64799  -0.62187  -0.61162  -0.59582  -0.57843
 Alpha  occ. eigenvalues --   -0.55548  -0.55291  -0.53271  -0.52978  -0.52878
 Alpha  occ. eigenvalues --   -0.52507  -0.50179  -0.48827  -0.48817  -0.48150
 Alpha  occ. eigenvalues --   -0.46876  -0.45966  -0.45927  -0.44824  -0.44000
 Alpha  occ. eigenvalues --   -0.37356  -0.36240
 Alpha virt. eigenvalues --    0.05013   0.11149   0.16398   0.20281   0.22887
 Alpha virt. eigenvalues --    0.23867   0.25823   0.26537   0.27215   0.28290
 Alpha virt. eigenvalues --    0.29001   0.30420   0.31487   0.31610   0.32211

 Mulliken charges:
               1
     1  C   -0.170480
     2  C   -0.223421
     3  C   -0.166717
     4  C    0.158107
     5  C   -0.170472
     6  C   -0.218297
     7  H    0.225699
     8  H    0.223513
     9  H    0.280943
    10  H    0.275590
    11  H    0.223659
    12  N    0.488014
    13  O   -0.460351
    14  O   -0.460690
    15  C   -0.297929
    16  C   -0.299247
    17  C   -0.475721
    18  H    0.146865
    19  H    0.151037
    20  H    0.147615
    21  H    0.154387
    22  H    0.157075
    23  H    0.153823
    24  H    0.159201
    25  C   -0.304924
    26  C   -0.299507
    27  C   -0.479112
    28  H    0.152645
    29  H    0.152576
    30  H    0.148996
    31  H    0.154881
    32  H    0.168687
    33  H    0.140126
    34  H    0.163428
 Sum of Mulliken charges =  -0.00000

 Dipole moment (field-independent basis, Debye):
    X=             -2.4227    Y=             -2.8087    Z=              3.4776  Tot=              5.0845
 Quadrupole moment (field-independent basis, Debye-Ang):
   XX=           -106.9664   YY=            -90.0676   ZZ=            -93.3970
   XY=             -7.6420   XZ=              7.1007   YZ=              0.5055

 Normal termination of Gaussian 16 at Thu May  6 03:03:28 2021.
