 Gaussian 16, Revision A.03,
 Gaussian 16:  EM64L-G16RevA.03 25-Dec-2016

 -------------
 #p 6-31g* mp2
 -------------

 ------------------------------------------------------
 Input file generated by CHIRIPA (05-May-2021 14:51:13)
 ------------------------------------------------------
 Symbolic Z-matrix:
 Charge =  0 Multiplicity = 1

                         Standard orientation:
 ---------------------------------------------------------------------
 Center     Atomic      Atomic             Coordinates (Angstroms)
 Number     Number       Type             X           Y           Z
 ---------------------------------------------------------------------
      1          6           0        3.495501    0.396823    0.160975
      2          6           0        2.353897    0.120126    1.139833
      3          6           0        1.219317    1.138961    1.028036
      4          1           0        3.888463    1.406676    0.341869
      5          1           0        3.099118    0.394603   -0.863852
      6          1           0        2.752569    0.121497    2.162416
      7          1           0        1.963734   -0.889258    0.956715
      8          1           0        0.794353    1.133138    0.019089
      9          1           0        1.587671    2.149635    1.231641
     10          1           0        0.413872    0.922258    1.736667
     11          6           0        4.637249   -0.613223    0.260716
     12          6           0        5.778853   -0.336526   -0.718143
     13          6           0        6.913433   -1.355360   -0.606345
     14          1           0        5.033632   -0.611002    1.285542
     15          1           0        4.244287   -1.623076    0.079821
     16          1           0        6.169016    0.672858   -0.535024
     17          1           0        5.380181   -0.337896   -1.740725
     18          1           0        6.545079   -2.366034   -0.809950
     19          1           0        7.338396   -1.349537    0.402602
     20          1           0        7.718878   -1.138658   -1.314976
     21          6           0       -4.262680   -0.626129   -0.135619
     22          6           0       -5.772636   -0.842323   -0.029423
     23          6           0       -6.149640   -2.316484    0.120604
     24          1           0       -3.876830   -1.193879   -0.993364
     25          1           0       -3.776174   -1.040855    0.758086
     26          1           0       -6.256279   -0.426077   -0.922420
     27          1           0       -6.154965   -0.273840    0.828053
     28          1           0       -5.693830   -2.740987    1.020957
     29          1           0       -5.795720   -2.894090   -0.739462
     30          1           0       -7.233629   -2.448109    0.194791
     31          6           0       -3.870070    0.842528   -0.286072
     32          6           0       -2.360114    1.058723   -0.392268
     33          6           0       -1.983110    2.532884   -0.542295
     34          1           0       -4.356576    1.257255   -1.179776
     35          1           0       -4.255919    1.410278    0.571673
     36          1           0       -1.977784    0.490239   -1.249744
     37          1           0       -1.876470    0.642476    0.500729
     38          1           0       -2.337029    3.110489    0.317772
     39          1           0       -2.438920    2.957387   -1.442649
     40          1           0       -0.899121    2.664509   -0.616482
 ---------------------------------------------------------------------

 SCF Done:  E(RHF) =  -470.732371593     A.U. after   11 cycles
 E2 =    -0.1583193163D+01 EUMP2 =    -0.47231556475586D+03

 The electronic state is 1-A.
 Alpha  occ. eigenvalues --  -11.21605 -11.21593 -11.21578 -11.21495 -11.21410
 Alpha  occ. eigenvalues --  -11.21363 -11.21350 -11.21297 -11.21074 -11.21056
 Alpha  occ. eigenvalues --  -11.21045 -11.20929  -1.08439  -1.08376  -1.03571
 Alpha  occ. eigenvalues --   -1.03439  -0.96055  -0.95859  -0.87047  -0.86902
 Alpha  occ. eigenvalues --   -0.79626  -0.79522  -0.78260  -0.78182  -0.65075
 Alpha  occ. eigenvalues --   -0.65009  -0.61001  -0.60858  -0.59412  -0.59260
 Alpha  occ. eigenvalues --   -0.57718  -0.57472  -0.55265  -0.55177  -0.52825
 Alpha  occ. eigenvalues --   -0.52625  -0.52461  -0.52126  -0.49912  -0.49840
 Alpha  occ. eigenvalues --   -0.48007  -0.47746  -0.46661  -0.46526  -0.45782
 Alpha  occ. eigenvalues --   -0.45749  -0.45703  -0.45643  -0.43764  -0.43719
 Alpha virt. eigenvalues --    0.22038   0.23011   0.23492   0.24863   0.26234
 Alpha virt. eigenvalues --    0.26601   0.26857   0.27322   0.27852   0.29235
 Alpha virt. eigenvalues --    0.29840   0.31230   0.31487   0.31739   0.32479

 Mulliken charges:
               1
     1  C   -0.298577
     2  C   -0.300305
     3  C   -0.478838
     4  H    0.149621
     5  H    0.149463
     6  H    0.151614
     7  H    0.152104
     8  H    0.160357
     9  H    0.154718
    10  H    0.161112
    11  C   -0.298258
    12  C   -0.299651
    13  C   -0.475708
    14  H    0.149552
    15  H    0.149695
    16  H    0.151943
    17  H    0.151910
    18  H    0.155189
    19  H    0.155187
    20  H    0.160262
    21  C   -0.298125
    22  C   -0.299585
    23  C   -0.475666
    24  H    0.149372
    25  H    0.149169
    26  H    0.151912
    27  H    0.151893
    28  H    0.155086
    29  H    0.155073
    30  H    0.160182
    31  C   -0.298189
    32  C   -0.302291
    33  C   -0.479241
    34  H    0.149200
    35  H    0.149425
    36  H    0.150033
    37  H    0.156325
    38  H    0.154609
    39  H    0.154107
    40  H    0.165321
 Sum of Mulliken charges =  -0.00000

 Dipole moment (field-independent basis, Debye):
    X=              0.0345    Y=              0.0055    Z=              0.0138  Tot=              0.0376
 Quadrupole moment (field-independent basis, Debye-Ang):
   XX=            -85.7978   YY=            -85.9500   ZZ=            -83.2781
   XY=              0.4685   XZ=              0.4093   YZ=              0.6364

 Normal termination of Gaussian 16 at Wed May  5 18:24:01 2021.
