 Gaussian 16, Revision A.03,
 Gaussian 16:  EM64L-G16RevA.03 25-Dec-2016

 -------------
 #p 6-31g* mp2
 -------------

 ------------------------------------------------------
 Input file generated by CHIRIPA (05-May-2021 14:51:10)
 ------------------------------------------------------
 Symbolic Z-matrix:
 Charge =  0 Multiplicity = 1

                         Standard orientation:
 ---------------------------------------------------------------------
 Center     Atomic      Atomic             Coordinates (Angstroms)
 Number     Number       Type             X           Y           Z
 ---------------------------------------------------------------------
      1          6           0       -2.201706    1.504591    0.292342
      2          6           0       -1.047978    1.948616   -0.607514
      3          6           0       -0.246271    3.106723   -0.012663
      4          1           0       -2.867963    2.359402    0.472190
      5          1           0       -1.800808    1.209257    1.271859
      6          1           0       -1.450785    2.241712   -1.585500
      7          1           0       -0.384493    1.092600   -0.785397
      8          1           0        0.182739    2.822070    0.953528
      9          1           0       -0.889611    3.977710    0.148878
     10          1           0        0.573455    3.408097   -0.672271
     11          6           0       -3.012536    0.347603   -0.288743
     12          6           0       -4.166264   -0.096421    0.611113
     13          6           0       -4.967970   -1.254529    0.016262
     14          1           0       -3.413433    0.642937   -1.268260
     15          1           0       -2.346279   -0.507208   -0.468591
     16          1           0       -4.829748    0.759594    0.788996
     17          1           0       -3.763456   -0.389518    1.589099
     18          1           0       -4.324630   -2.125516   -0.145279
     19          1           0       -5.396980   -0.969876   -0.949929
     20          1           0       -5.787696   -1.555903    0.675870
     21          6           0        1.873877   -1.044085   -0.180307
     22          6           0        1.409134   -2.477116    0.081263
     23          6           0       -0.059925   -2.697533   -0.280784
     24          1           0        1.245015   -0.350703    0.394757
     25          1           0        1.716401   -0.802733   -1.240658
     26          1           0        1.568722   -2.716162    1.140510
     27          1           0        2.039298   -3.167180   -0.494342
     28          1           0       -0.231274   -2.486007   -1.341206
     29          1           0       -0.704524   -2.032426    0.302934
     30          1           0       -0.371096   -3.728579   -0.085909
     31          6           0        3.340364   -0.808110    0.176708
     32          6           0        3.805108    0.624923   -0.084862
     33          6           0        5.274166    0.845338    0.277185
     34          1           0        3.497840   -1.049461    1.237059
     35          1           0        3.969226   -1.501492   -0.398357
     36          1           0        3.174943    1.314985    0.490743
     37          1           0        3.645519    0.863968   -1.144109
     38          1           0        5.918765    0.180231   -0.306533
     39          1           0        5.445515    0.633812    1.337608
     40          1           0        5.585336    1.876385    0.082310
 ---------------------------------------------------------------------

 SCF Done:  E(RHF) =  -470.732689999     A.U. after   11 cycles
 E2 =    -0.1584615262D+01 EUMP2 =    -0.47231730526132D+03

 The electronic state is 1-A.
 Alpha  occ. eigenvalues --  -11.21702 -11.21629 -11.21542 -11.21483 -11.21465
 Alpha  occ. eigenvalues --  -11.21417 -11.21325 -11.21236 -11.21185 -11.21093
 Alpha  occ. eigenvalues --  -11.21026 -11.21010  -1.08520  -1.08347  -1.03603
 Alpha  occ. eigenvalues --   -1.03459  -0.96069  -0.95906  -0.87094  -0.86916
 Alpha  occ. eigenvalues --   -0.79685  -0.79523  -0.78412  -0.78081  -0.65250
 Alpha  occ. eigenvalues --   -0.64906  -0.61001  -0.60879  -0.59423  -0.59280
 Alpha  occ. eigenvalues --   -0.57729  -0.57476  -0.55423  -0.55141  -0.52746
 Alpha  occ. eigenvalues --   -0.52617  -0.52561  -0.52271  -0.50076  -0.49768
 Alpha  occ. eigenvalues --   -0.48077  -0.47837  -0.46747  -0.46600  -0.46130
 Alpha  occ. eigenvalues --   -0.45790  -0.45677  -0.45100  -0.43858  -0.43705
 Alpha virt. eigenvalues --    0.20119   0.22427   0.23812   0.24276   0.25916
 Alpha virt. eigenvalues --    0.26259   0.27149   0.27616   0.28827   0.29899
 Alpha virt. eigenvalues --    0.30865   0.31325   0.31667   0.31708   0.31988

 Mulliken charges:
               1
     1  C   -0.297988
     2  C   -0.307307
     3  C   -0.475798
     4  H    0.149526
     5  H    0.147566
     6  H    0.151369
     7  H    0.160574
     8  H    0.153825
     9  H    0.154946
    10  H    0.160776
    11  C   -0.306604
    12  C   -0.299257
    13  C   -0.475949
    14  H    0.149228
    15  H    0.158553
    16  H    0.151740
    17  H    0.150956
    18  H    0.155901
    19  H    0.155027
    20  H    0.159863
    21  C   -0.303084
    22  C   -0.299330
    23  C   -0.481132
    24  H    0.153695
    25  H    0.150503
    26  H    0.152064
    27  H    0.152497
    28  H    0.156259
    29  H    0.159072
    30  H    0.161137
    31  C   -0.297827
    32  C   -0.301020
    33  C   -0.475728
    34  H    0.149519
    35  H    0.149882
    36  H    0.153691
    37  H    0.151933
    38  H    0.155175
    39  H    0.155181
    40  H    0.160566
 Sum of Mulliken charges =  -0.00000

 Dipole moment (field-independent basis, Debye):
    X=              0.0661    Y=             -0.0563    Z=             -0.0236  Tot=              0.0900
 Quadrupole moment (field-independent basis, Debye-Ang):
   XX=            -85.9804   YY=            -85.0825   ZZ=            -83.8034
   XY=             -1.3301   XZ=             -0.3643   YZ=             -0.3779

 Normal termination of Gaussian 16 at Thu May  6 06:58:18 2021.
