 Gaussian 16, Revision A.03,
 Gaussian 16:  EM64L-G16RevA.03 25-Dec-2016

 -------------
 #p 6-31g* mp2
 -------------

 ------------------------------------------------------
 Input file generated by CHIRIPA (05-May-2021 14:53:16)
 ------------------------------------------------------
 Symbolic Z-matrix:
 Charge =  0 Multiplicity = 1

                         Standard orientation:
 ---------------------------------------------------------------------
 Center     Atomic      Atomic             Coordinates (Angstroms)
 Number     Number       Type             X           Y           Z
 ---------------------------------------------------------------------
      1          6           0       -3.922676    0.248680    0.502465
      2          6           0       -4.608683    0.659461   -0.800854
      3          6           0       -5.717034    1.690575   -0.586018
      4          1           0       -4.674505   -0.157502    1.192909
      5          1           0       -3.504604    1.142379    0.986112
      6          1           0       -5.024136   -0.234936   -1.282589
      7          1           0       -3.855103    1.064535   -1.488347
      8          1           0       -5.314112    2.599363   -0.127366
      9          1           0       -6.489788    1.292508    0.079561
     10          1           0       -6.193955    1.970054   -1.530633
     11          6           0       -2.812342   -0.781619    0.304042
     12          6           0       -2.126335   -1.192399    1.607360
     13          6           0       -1.017984   -2.223513    1.392525
     14          1           0       -3.230414   -1.675317   -0.179605
     15          1           0       -2.060513   -0.375436   -0.386402
     16          1           0       -2.879915   -1.597473    2.294854
     17          1           0       -1.710882   -0.298002    2.089096
     18          1           0       -0.245230   -1.825446    0.726946
     19          1           0       -1.420905   -3.132301    0.933873
     20          1           0       -0.541062   -2.502992    2.337140
     21          6           0        3.439126    2.288898    0.861073
     22          6           0        4.051764    1.057675    1.116581
     23          6           0        3.612212   -0.101702    0.470678
     24          6           0        2.552727    0.007022   -0.428744
     25          6           0        1.921865    1.219162   -0.704467
     26          6           0        2.378003    2.365577   -0.047034
     27          1           0        3.787023    3.184495    1.367304
     28          1           0        4.876056    0.995134    1.821334
     29          1           0        4.068429   -1.067721    0.649816
     30          1           0        1.102374    1.250000   -1.412211
     31          1           0        1.900327    3.320416   -0.247419
     32          7           0        2.078614   -1.213496   -1.118636
     33          8           0        1.143345   -1.091111   -1.906627
     34          8           0        2.651249   -2.269413   -0.858318
 ---------------------------------------------------------------------

 SCF Done:  E(RHF) =  -669.535731173     A.U. after   15 cycles
 E2 =    -0.2091681674D+01 EUMP2 =    -0.67162741284695D+03

 The electronic state is 1-A.
 Alpha  occ. eigenvalues --  -20.60882 -20.60874 -15.85910 -11.31267 -11.27839
 Alpha  occ. eigenvalues --  -11.27826 -11.27573 -11.26846 -11.26834 -11.21362
 Alpha  occ. eigenvalues --  -11.21168 -11.21100 -11.20927 -11.20878 -11.20446
 Alpha  occ. eigenvalues --   -1.59951  -1.39502  -1.19438  -1.08838  -1.08068
 Alpha  occ. eigenvalues --   -1.04837  -1.03168  -0.95675  -0.95604  -0.86615
 Alpha  occ. eigenvalues --   -0.86237  -0.82505  -0.79236  -0.77855  -0.77555
 Alpha  occ. eigenvalues --   -0.72133  -0.71292  -0.70545  -0.65091  -0.64841
 Alpha  occ. eigenvalues --   -0.64707  -0.62185  -0.60574  -0.58982  -0.57206
 Alpha  occ. eigenvalues --   -0.55340  -0.54895  -0.53167  -0.52930  -0.52310
 Alpha  occ. eigenvalues --   -0.52006  -0.49549  -0.48895  -0.48889  -0.47540
 Alpha  occ. eigenvalues --   -0.46290  -0.45417  -0.45354  -0.44836  -0.43418
 Alpha  occ. eigenvalues --   -0.37417  -0.36438
 Alpha virt. eigenvalues --    0.04956   0.11199   0.16429   0.21241   0.23082
 Alpha virt. eigenvalues --    0.24535   0.26485   0.27305   0.27617   0.28209
 Alpha virt. eigenvalues --    0.28615   0.30766   0.31679   0.32082   0.32248

 Mulliken charges:
               1
     1  C   -0.297920
     2  C   -0.298975
     3  C   -0.475330
     4  H    0.148848
     5  H    0.145163
     6  H    0.153895
     7  H    0.150982
     8  H    0.152629
     9  H    0.155130
    10  H    0.159834
    11  C   -0.299083
    12  C   -0.300192
    13  C   -0.473657
    14  H    0.152411
    15  H    0.154363
    16  H    0.150020
    17  H    0.146609
    18  H    0.156792
    19  H    0.159824
    20  H    0.156273
    21  C   -0.170603
    22  C   -0.218551
    23  C   -0.170520
    24  C    0.156339
    25  C   -0.171797
    26  C   -0.218496
    27  H    0.225927
    28  H    0.223813
    29  H    0.276110
    30  H    0.275581
    31  H    0.223675
    32  N    0.488433
    33  O   -0.459692
    34  O   -0.457833
 Sum of Mulliken charges =  -0.00000

 Dipole moment (field-independent basis, Debye):
    X=              1.7866    Y=              4.2066    Z=              2.3533  Tot=              5.1406
 Quadrupole moment (field-independent basis, Debye-Ang):
   XX=            -84.5800   YY=            -93.4865   ZZ=            -96.5405
   XY=             10.4169   XZ=              7.7087   YZ=             -3.2652

 Normal termination of Gaussian 16 at Thu May  6 05:57:01 2021.
