 Gaussian 16, Revision A.03,
 Gaussian 16:  EM64L-G16RevA.03 25-Dec-2016

 -------------
 #p 6-31g* mp2
 -------------

 ------------------------------------------------------
 Input file generated by CHIRIPA (05-May-2021 14:55:19)
 ------------------------------------------------------
 Symbolic Z-matrix:
 Charge =  0 Multiplicity = 1

                         Standard orientation:
 ---------------------------------------------------------------------
 Center     Atomic      Atomic             Coordinates (Angstroms)
 Number     Number       Type             X           Y           Z
 ---------------------------------------------------------------------
      1          6           0       -0.506462    0.388382    0.625625
      2          6           0       -1.455417    0.316427    1.650723
      3          6           0       -2.795678    0.045124    1.359788
      4          6           0       -3.153704   -0.149856    0.026713
      5          6           0       -2.231640   -0.084568   -1.016755
      6          6           0       -0.896914    0.188008   -0.702501
      7          1           0        0.532536    0.599631    0.860687
      8          1           0       -1.155053    0.471609    2.683073
      9          1           0       -3.550978   -0.016230    2.133853
     10          1           0       -2.561260   -0.243800   -2.036271
     11          1           0       -0.162107    0.243296   -1.500654
     12          7           0       -4.569649   -0.437746   -0.293630
     13          8           0       -4.859572   -0.605692   -1.476159
     14          8           0       -5.362732   -0.489997    0.643881
     15          6           0        3.883651   -0.544667   -0.426719
     16          6           0        4.513157   -1.555585    0.532321
     17          6           0        4.798584   -2.902602   -0.132411
     18          1           0        2.950180   -0.962039   -0.828437
     19          1           0        4.554382   -0.396550   -1.284376
     20          1           0        3.842075   -1.700708    1.388593
     21          1           0        5.445140   -1.135679    0.931949
     22          1           0        5.486365   -2.778294   -0.975089
     23          1           0        3.874192   -3.346534   -0.515849
     24          1           0        5.248372   -3.610159    0.571091
     25          6           0        3.592418    0.806832    0.223174
     26          6           0        2.962912    1.817749   -0.735865
     27          6           0        2.677486    3.164768   -0.071133
     28          1           0        2.921688    0.658715    1.080831
     29          1           0        4.525889    1.224204    0.624892
     30          1           0        2.030929    1.397844   -1.135493
     31          1           0        3.633995    1.962873   -1.592138
     32          1           0        3.601878    3.608699    0.312305
     33          1           0        1.989704    3.040460    0.771544
     34          1           0        2.227697    3.872324   -0.774635
 ---------------------------------------------------------------------

 SCF Done:  E(RHF) =  -669.534814981     A.U. after   15 cycles
 E2 =    -0.2092951993D+01 EUMP2 =    -0.67162776697439D+03

 The electronic state is 1-A.
 Alpha  occ. eigenvalues --  -20.60746 -20.60741 -15.85800 -11.31165 -11.27737
 Alpha  occ. eigenvalues --  -11.27734 -11.27435 -11.26746 -11.26734 -11.22918
 Alpha  occ. eigenvalues --  -11.22683 -11.22482 -11.22423 -11.22185 -11.21748
 Alpha  occ. eigenvalues --   -1.59822  -1.39375  -1.19337  -1.09588  -1.08727
 Alpha  occ. eigenvalues --   -1.04745  -1.04565  -0.96992  -0.95568  -0.88006
 Alpha  occ. eigenvalues --   -0.86146  -0.82404  -0.80651  -0.79373  -0.77450
 Alpha  occ. eigenvalues --   -0.72019  -0.71145  -0.70541  -0.66264  -0.64984
 Alpha  occ. eigenvalues --   -0.64722  -0.62168  -0.61881  -0.60366  -0.58597
 Alpha  occ. eigenvalues --   -0.56306  -0.55213  -0.53650  -0.53399  -0.53061
 Alpha  occ. eigenvalues --   -0.52845  -0.50941  -0.48937  -0.48785  -0.48772
 Alpha  occ. eigenvalues --   -0.47714  -0.46879  -0.46829  -0.44836  -0.44781
 Alpha  occ. eigenvalues --   -0.37308  -0.36347
 Alpha virt. eigenvalues --    0.05074   0.11263   0.16518   0.18189   0.22867
 Alpha virt. eigenvalues --    0.23443   0.24177   0.25359   0.26996   0.28295
 Alpha virt. eigenvalues --    0.29708   0.29937   0.30895   0.31506   0.31698

 Mulliken charges:
               1
     1  C   -0.177402
     2  C   -0.221557
     3  C   -0.170528
     4  C    0.158349
     5  C   -0.170523
     6  C   -0.225873
     7  H    0.238666
     8  H    0.223590
     9  H    0.275525
    10  H    0.275695
    11  H    0.226612
    12  N    0.487919
    13  O   -0.460451
    14  O   -0.460439
    15  C   -0.298887
    16  C   -0.300024
    17  C   -0.476536
    18  H    0.145962
    19  H    0.153928
    20  H    0.151156
    21  H    0.154362
    22  H    0.156792
    23  H    0.156458
    24  H    0.163145
    25  C   -0.303069
    26  C   -0.307568
    27  C   -0.475313
    28  H    0.141359
    29  H    0.157224
    30  H    0.145207
    31  H    0.159644
    32  H    0.160112
    33  H    0.150833
    34  H    0.165632
 Sum of Mulliken charges =  -0.00000

 Dipole moment (field-independent basis, Debye):
    X=              5.2638    Y=              1.0415    Z=              1.0911  Tot=              5.4756
 Quadrupole moment (field-independent basis, Debye-Ang):
   XX=           -124.5710   YY=            -96.2962   ZZ=            -90.0318
   XY=             -3.3483   XZ=             -5.0423   YZ=             -0.3563

 Normal termination of Gaussian 16 at Wed May  5 18:52:04 2021.
