 Gaussian 16, Revision A.03,
 Gaussian 16:  EM64L-G16RevA.03 25-Dec-2016

 -------------
 #p 6-31g* mp2
 -------------

 ------------------------------------------------------
 Input file generated by CHIRIPA (05-May-2021 14:57:25)
 ------------------------------------------------------
 Symbolic Z-matrix:
 Charge =  0 Multiplicity = 1

                         Standard orientation:
 ---------------------------------------------------------------------
 Center     Atomic      Atomic             Coordinates (Angstroms)
 Number     Number       Type             X           Y           Z
 ---------------------------------------------------------------------
      1          6           0        4.980369   -1.709428   -0.326345
      2          6           0        4.110520   -1.635041    0.766519
      3          6           0        3.180665   -0.595649    0.864409
      4          6           0        3.147916    0.356586   -0.153170
      5          6           0        4.001260    0.309786   -1.254488
      6          6           0        4.923064   -0.738489   -1.331588
      7          1           0        5.699576   -2.520303   -0.394313
      8          1           0        4.152773   -2.387685    1.548687
      9          1           0        2.495516   -0.513958    1.699463
     10          1           0        3.935415    1.074811   -2.018570
     11          1           0        5.597369   -0.793733   -2.181474
     12          7           0        2.167781    1.461645   -0.060543
     13          8           0        2.158960    2.288112   -0.970220
     14          8           0        1.426933    1.480401    0.919982
     15          6           0       -1.658386    0.329242    2.008594
     16          6           0       -2.002404   -0.995499    1.720096
     17          6           0       -2.916106   -1.286335    0.702691
     18          6           0       -3.469073   -0.223154   -0.009464
     19          6           0       -3.146470    1.107141    0.254225
     20          6           0       -2.230507    1.374492    1.276029
     21          1           0       -0.947722    0.546048    2.800648
     22          1           0       -1.559664   -1.809267    2.287376
     23          1           0       -3.200216   -2.302709    0.458390
     24          1           0       -3.604435    1.897127   -0.328535
     25          1           0       -1.965201    2.404268    1.497885
     26          7           0       -4.437564   -0.518618   -1.088874
     27          8           0       -4.910697    0.435960   -1.701706
     28          8           0       -4.705198   -1.699185   -1.301643
 ---------------------------------------------------------------------

 SCF Done:  E(RHF) =  -868.339035721     A.U. after   16 cycles
 E2 =    -0.2599573427D+01 EUMP2 =    -0.87093860914869D+03

 The electronic state is 1-A.
 Alpha  occ. eigenvalues --  -20.61512 -20.61487 -20.60101 -20.60084 -15.86534
 Alpha  occ. eigenvalues --  -15.85143 -11.31753 -11.30308 -11.28354 -11.28264
 Alpha  occ. eigenvalues --  -11.27998 -11.27304 -11.27246 -11.26944 -11.26797
 Alpha  occ. eigenvalues --  -11.26501 -11.25917 -11.25668  -1.60556  -1.59176
 Alpha  occ. eigenvalues --   -1.40120  -1.38735  -1.19905  -1.18460  -1.09323
 Alpha  occ. eigenvalues --   -1.07867  -1.05292  -1.03840  -0.96192  -0.94741
 Alpha  occ. eigenvalues --   -0.86696  -0.85236  -0.83040  -0.81591  -0.78106
 Alpha  occ. eigenvalues --   -0.76682  -0.72796  -0.71856  -0.71367  -0.71016
 Alpha  occ. eigenvalues --   -0.70498  -0.69521  -0.65566  -0.65295  -0.64106
 Alpha  occ. eigenvalues --   -0.63836  -0.62651  -0.61204  -0.55787  -0.54290
 Alpha  occ. eigenvalues --   -0.53619  -0.53386  -0.52168  -0.51931  -0.49547
 Alpha  occ. eigenvalues --   -0.49494  -0.48132  -0.48104  -0.45555  -0.44187
 Alpha  occ. eigenvalues --   -0.37866  -0.36886  -0.36340  -0.35433
 Alpha virt. eigenvalues --    0.04411   0.05881   0.10771   0.12225   0.15950
 Alpha virt. eigenvalues --    0.17437   0.20750   0.22278   0.26652   0.27485
 Alpha virt. eigenvalues --    0.28209   0.29152   0.30683   0.31605   0.32624

 Mulliken charges:
               1
     1  C   -0.170019
     2  C   -0.218159
     3  C   -0.169405
     4  C    0.159413
     5  C   -0.170013
     6  C   -0.218138
     7  H    0.227602
     8  H    0.223357
     9  H    0.268724
    10  H    0.277378
    11  H    0.225860
    12  N    0.491592
    13  O   -0.456397
    14  O   -0.470647
    15  C   -0.158806
    16  C   -0.223524
    17  C   -0.172726
    18  C    0.156839
    19  C   -0.172783
    20  C   -0.209998
    21  H    0.227327
    22  H    0.215026
    23  H    0.270917
    24  H    0.274401
    25  H    0.229919
    26  N    0.488267
    27  O   -0.461461
    28  O   -0.464547
 Sum of Mulliken charges =  -0.00000

 Dipole moment (field-independent basis, Debye):
    X=              7.2499    Y=             -2.6093    Z=              3.4247  Tot=              8.4319
 Quadrupole moment (field-independent basis, Debye-Ang):
   XX=           -107.7830   YY=           -103.1415   ZZ=           -101.7742
   XY=            -16.2207   XZ=            -16.9827   YZ=             -3.0635

 Normal termination of Gaussian 16 at Fri May  7 03:30:13 2021.
