 Gaussian 16, Revision A.03,
 Gaussian 16:  EM64L-G16RevA.03 25-Dec-2016

 -------------
 #p 6-31g* mp2
 -------------

 ------------------------------------------------------
 Input file generated by CHIRIPA (05-May-2021 14:53:16)
 ------------------------------------------------------
 Symbolic Z-matrix:
 Charge =  0 Multiplicity = 1

                         Standard orientation:
 ---------------------------------------------------------------------
 Center     Atomic      Atomic             Coordinates (Angstroms)
 Number     Number       Type             X           Y           Z
 ---------------------------------------------------------------------
      1          6           0        2.595572    1.145270   -0.748120
      2          6           0        1.105611    1.361195   -1.015286
      3          6           0        0.816744    2.690605   -1.713153
      4          1           0        2.975280    1.973417   -0.134166
      5          1           0        3.141543    1.186571   -1.700804
      6          1           0        0.562442    1.318121   -0.062538
      7          1           0        0.729363    0.532338   -1.628515
      8          1           0        1.332911    2.739656   -2.677398
      9          1           0        1.165042    3.529903   -1.102523
     10          1           0       -0.254271    2.824438   -1.894470
     11          6           0        2.900290   -0.179420   -0.050932
     12          6           0        4.390251   -0.395345    0.216233
     13          6           0        4.679117   -1.724755    0.914101
     14          1           0        2.354319   -0.220721    0.901751
     15          1           0        2.520582   -1.007567   -0.664886
     16          1           0        4.766499    0.433511    0.829463
     17          1           0        4.933419   -0.352271   -0.736514
     18          1           0        4.330820   -2.564053    0.303471
     19          1           0        4.162951   -1.773806    1.878345
     20          1           0        5.750132   -1.858588    1.095417
     21          6           0       -2.294785   -2.291963   -1.324341
     22          6           0       -1.432994   -2.375105   -0.225740
     23          6           0       -1.342877   -1.320298    0.687391
     24          6           0       -2.132516   -0.192181    0.470338
     25          6           0       -3.000622   -0.079428   -0.614545
     26          6           0       -3.074474   -1.146410   -1.514901
     27          1           0       -2.358473   -3.116092   -2.028722
     28          1           0       -0.826293   -3.263533   -0.075234
     29          1           0       -0.684074   -1.358265    1.546435
     30          1           0       -3.592922    0.819093   -0.738074
     31          1           0       -3.744629   -1.079074   -2.367194
     32          7           0       -2.045723    0.930941    1.430268
     33          8           0       -2.751941    1.913930    1.216667
     34          8           0       -1.273119    0.806988    2.378083
 ---------------------------------------------------------------------

 SCF Done:  E(RHF) =  -669.535859102     A.U. after   15 cycles
 E2 =    -0.2093274907D+01 EUMP2 =    -0.67162913400929D+03

 The electronic state is 1-A.
 Alpha  occ. eigenvalues --  -20.60866 -20.60860 -15.85889 -11.31186 -11.27772
 Alpha  occ. eigenvalues --  -11.27754 -11.27516 -11.26785 -11.26773 -11.21603
 Alpha  occ. eigenvalues --  -11.21383 -11.21372 -11.21221 -11.21169 -11.20796
 Alpha  occ. eigenvalues --   -1.59929  -1.39485  -1.19372  -1.08786  -1.08341
 Alpha  occ. eigenvalues --   -1.04769  -1.03435  -0.95890  -0.95626  -0.86906
 Alpha  occ. eigenvalues --   -0.86173  -0.82461  -0.79516  -0.78183  -0.77511
 Alpha  occ. eigenvalues --   -0.72119  -0.71254  -0.70490  -0.65039  -0.64954
 Alpha  occ. eigenvalues --   -0.64775  -0.62121  -0.60819  -0.59272  -0.57511
 Alpha  occ. eigenvalues --   -0.55284  -0.55172  -0.53129  -0.52866  -0.52559
 Alpha  occ. eigenvalues --   -0.52321  -0.49828  -0.48884  -0.48873  -0.47826
 Alpha  occ. eigenvalues --   -0.46548  -0.45733  -0.45641  -0.44812  -0.43690
 Alpha  occ. eigenvalues --   -0.37320  -0.36351
 Alpha virt. eigenvalues --    0.05000   0.11225   0.16497   0.21169   0.22960
 Alpha virt. eigenvalues --    0.24292   0.25913   0.26879   0.27554   0.28052
 Alpha virt. eigenvalues --    0.28785   0.30938   0.31364   0.31732   0.31837

 Mulliken charges:
               1
     1  C   -0.297394
     2  C   -0.305471
     3  C   -0.475110
     4  H    0.153397
     5  H    0.147738
     6  H    0.156506
     7  H    0.149384
     8  H    0.152047
     9  H    0.159591
    10  H    0.160089
    11  C   -0.299961
    12  C   -0.299404
    13  C   -0.475838
    14  H    0.152518
    15  H    0.143999
    16  H    0.154814
    17  H    0.151382
    18  H    0.151334
    19  H    0.155551
    20  H    0.161118
    21  C   -0.171025
    22  C   -0.218719
    23  C   -0.169659
    24  C    0.159265
    25  C   -0.171471
    26  C   -0.218625
    27  H    0.225582
    28  H    0.223806
    29  H    0.275692
    30  H    0.275415
    31  H    0.223432
    32  N    0.489696
    33  O   -0.458941
    34  O   -0.460739
 Sum of Mulliken charges =  -0.00000

 Dipole moment (field-independent basis, Debye):
    X=             -0.3481    Y=             -3.8862    Z=             -3.3215  Tot=              5.1241
 Quadrupole moment (field-independent basis, Debye-Ang):
   XX=            -91.7083   YY=            -92.9795   ZZ=            -96.6338
   XY=              7.1023   XZ=              9.1743   YZ=             -1.7318

 Normal termination of Gaussian 16 at Wed May  5 22:00:22 2021.
