 Gaussian 16, Revision A.03,
 Gaussian 16:  EM64L-G16RevA.03 25-Dec-2016

 -------------
 #p 6-31g* mp2
 -------------

 ------------------------------------------------------
 Input file generated by CHIRIPA (05-May-2021 14:55:25)
 ------------------------------------------------------
 Symbolic Z-matrix:
 Charge =  0 Multiplicity = 1

                         Standard orientation:
 ---------------------------------------------------------------------
 Center     Atomic      Atomic             Coordinates (Angstroms)
 Number     Number       Type             X           Y           Z
 ---------------------------------------------------------------------
      1          6           0        0.636655   -1.268660    1.654205
      2          6           0        0.562270    0.113682    1.453906
      3          6           0        1.515772    0.769811    0.669766
      4          6           0        2.534756    0.009218    0.098400
      5          6           0        2.635901   -1.369301    0.279353
      6          6           0        1.671409   -2.004442    1.067324
      7          1           0       -0.108317   -1.770205    2.264833
      8          1           0       -0.240227    0.687645    1.908450
      9          1           0        1.482039    1.838864    0.498280
     10          1           0        3.447533   -1.914641   -0.186777
     11          1           0        1.731678   -3.078103    1.221158
     12          7           0        3.550003    0.692723   -0.733763
     13          8           0        4.437883   -0.000000   -1.226146
     14          8           0        3.438650    1.908235   -0.877871
     15          6           0       -2.768722    0.733727    0.090159
     16          6           0       -3.421995    2.054377   -0.318622
     17          6           0       -2.888266    3.248106    0.473805
     18          1           0       -2.934274    0.566822    1.163323
     19          1           0       -1.681667    0.811574   -0.050018
     20          1           0       -4.507630    1.973589   -0.179023
     21          1           0       -3.255032    2.218064   -1.390977
     22          1           0       -1.808952    3.357022    0.326086
     23          1           0       -3.068667    3.111158    1.544927
     24          1           0       -3.368818    4.181848    0.165491
     25          6           0       -3.291901   -0.468941   -0.693167
     26          6           0       -2.638627   -1.789591   -0.284387
     27          6           0       -3.172356   -2.983321   -1.076813
     28          1           0       -4.378955   -0.546788   -0.552990
     29          1           0       -3.126348   -0.302036   -1.766331
     30          1           0       -2.805590   -1.953278    0.787968
     31          1           0       -1.552993   -1.708803   -0.423985
     32          1           0       -2.991955   -2.846371   -2.147935
     33          1           0       -4.251670   -3.092236   -0.929095
     34          1           0       -2.691804   -3.917061   -0.768500
 ---------------------------------------------------------------------

 SCF Done:  E(RHF) =  -669.534049914     A.U. after   15 cycles
 E2 =    -0.2094389150D+01 EUMP2 =    -0.67162843906423D+03

 The electronic state is 1-A.
 Alpha  occ. eigenvalues --  -20.60788 -20.60783 -15.85841 -11.31213 -11.27772
 Alpha  occ. eigenvalues --  -11.27759 -11.27477 -11.26799 -11.26710 -11.22204
 Alpha  occ. eigenvalues --  -11.22172 -11.22046 -11.21950 -11.21729 -11.21616
 Alpha  occ. eigenvalues --   -1.59864  -1.39417  -1.19389  -1.09086  -1.08758
 Alpha  occ. eigenvalues --   -1.04791  -1.04143  -0.96597  -0.95608  -0.87616
 Alpha  occ. eigenvalues --   -0.86182  -0.82449  -0.80213  -0.78968  -0.77463
 Alpha  occ. eigenvalues --   -0.72058  -0.71188  -0.70471  -0.65706  -0.65026
 Alpha  occ. eigenvalues --   -0.64776  -0.62146  -0.61523  -0.59971  -0.58225
 Alpha  occ. eigenvalues --   -0.55888  -0.55265  -0.53380  -0.53152  -0.53070
 Alpha  occ. eigenvalues --   -0.52754  -0.50535  -0.48829  -0.48814  -0.48517
 Alpha  occ. eigenvalues --   -0.47242  -0.46439  -0.46325  -0.44821  -0.44394
 Alpha  occ. eigenvalues --   -0.37273  -0.36318
 Alpha virt. eigenvalues --    0.05005   0.11219   0.16388   0.20158   0.22739
 Alpha virt. eigenvalues --    0.23027   0.25090   0.26267   0.27366   0.28405
 Alpha virt. eigenvalues --    0.29072   0.29395   0.31263   0.31484   0.31701

 Mulliken charges:
               1
     1  C   -0.170038
     2  C   -0.218246
     3  C   -0.174281
     4  C    0.158974
     5  C   -0.171287
     6  C   -0.219927
     7  H    0.227401
     8  H    0.230202
     9  H    0.275525
    10  H    0.275639
    11  H    0.223747
    12  N    0.488051
    13  O   -0.460362
    14  O   -0.460455
    15  C   -0.306624
    16  C   -0.298963
    17  C   -0.477236
    18  H    0.140701
    19  H    0.156060
    20  H    0.153540
    21  H    0.156184
    22  H    0.151928
    23  H    0.152559
    24  H    0.165522
    25  C   -0.297049
    26  C   -0.306202
    27  C   -0.475254
    28  H    0.150495
    29  H    0.153634
    30  H    0.142689
    31  H    0.160301
    32  H    0.158466
    33  H    0.156240
    34  H    0.158066
 Sum of Mulliken charges =  -0.00000

 Dipole moment (field-independent basis, Debye):
    X=             -3.6147    Y=             -2.3916    Z=              2.8401  Tot=              5.1819
 Quadrupole moment (field-independent basis, Debye-Ang):
   XX=           -112.0431   YY=            -91.9301   ZZ=            -94.4429
   XY=             -8.9084   XZ=              6.4439   YZ=             -0.0613

 Normal termination of Gaussian 16 at Thu May  6 03:15:25 2021.
