 Gaussian 16, Revision A.03,
 Gaussian 16:  EM64L-G16RevA.03 25-Dec-2016

 -------------
 #p 6-31g* mp2
 -------------

 ------------------------------------------------------
 Input file generated by CHIRIPA (05-May-2021 14:53:17)
 ------------------------------------------------------
 Symbolic Z-matrix:
 Charge =  0 Multiplicity = 1

                         Standard orientation:
 ---------------------------------------------------------------------
 Center     Atomic      Atomic             Coordinates (Angstroms)
 Number     Number       Type             X           Y           Z
 ---------------------------------------------------------------------
      1          6           0       -3.772801    0.402556   -0.243674
      2          6           0       -3.458266    1.683082    0.530473
      3          6           0       -2.127782    2.312486    0.116400
      4          1           0       -2.959957   -0.320339   -0.089882
      5          1           0       -3.791553    0.627722   -1.319008
      6          1           0       -3.441479    1.455851    1.604112
      7          1           0       -4.272046    2.402942    0.374975
      8          1           0       -2.136960    2.567274   -0.948307
      9          1           0       -1.301674    1.614801    0.287813
     10          1           0       -1.922766    3.226627    0.682240
     11          6           0       -5.099713   -0.238394    0.159089
     12          6           0       -5.414248   -1.518921   -0.615058
     13          6           0       -6.744732   -2.148324   -0.200984
     14          1           0       -5.080961   -0.463560    1.234423
     15          1           0       -5.912557    0.484501    0.005297
     16          1           0       -4.600468   -2.238780   -0.459560
     17          1           0       -5.431035   -1.291689   -1.688697
     18          1           0       -7.570840   -1.450640   -0.372398
     19          1           0       -6.735554   -2.403112    0.863722
     20          1           0       -6.949748   -3.062465   -0.766825
     21          6           0        5.439818   -1.626898   -0.131332
     22          6           0        4.513434   -1.776014    0.906020
     23          6           0        3.415921   -0.915878    1.006924
     24          6           0        3.274988    0.086958    0.048932
     25          6           0        4.180870    0.261047   -0.996228
     26          6           0        5.270877   -0.610636   -1.077477
     27          1           0        6.289477   -2.299557   -0.202082
     28          1           0        4.642102   -2.564360    1.642225
     29          1           0        2.683661   -1.008797    1.799753
     30          1           0        4.025918    1.056355   -1.715180
     31          1           0        5.988738   -0.492471   -1.884172
     32          7           0        2.117073    1.003656    0.145350
     33          8           0        2.015443    1.879182   -0.711250
     34          8           0        1.333055    0.829283    1.075699
 ---------------------------------------------------------------------

 SCF Done:  E(RHF) =  -669.536364265     A.U. after   15 cycles
 E2 =    -0.2091079194D+01 EUMP2 =    -0.67162744345918D+03

 The electronic state is 1-A.
 Alpha  occ. eigenvalues --  -20.60994 -20.60988 -15.86009 -11.31324 -11.27884
 Alpha  occ. eigenvalues --  -11.27878 -11.27618 -11.26886 -11.26876 -11.21014
 Alpha  occ. eigenvalues --  -11.20617 -11.20603 -11.20373 -11.20278 -11.19148
 Alpha  occ. eigenvalues --   -1.60040  -1.39597  -1.19488  -1.08894  -1.07513
 Alpha  occ. eigenvalues --   -1.04882  -1.02504  -0.95737  -0.94918  -0.86283
 Alpha  occ. eigenvalues --   -0.85927  -0.82571  -0.78614  -0.77626  -0.77270
 Alpha  occ. eigenvalues --   -0.72220  -0.71352  -0.70596  -0.65143  -0.64885
 Alpha  occ. eigenvalues --   -0.64154  -0.62229  -0.59901  -0.58393  -0.56530
 Alpha  occ. eigenvalues --   -0.55390  -0.54204  -0.53214  -0.52973  -0.51603
 Alpha  occ. eigenvalues --   -0.51355  -0.49230  -0.48975  -0.48615  -0.46876
 Alpha  occ. eigenvalues --   -0.45659  -0.45026  -0.44793  -0.44660  -0.42769
 Alpha  occ. eigenvalues --   -0.37466  -0.36482
 Alpha virt. eigenvalues --    0.04885   0.11173   0.16384   0.21312   0.23708
 Alpha virt. eigenvalues --    0.25423   0.27230   0.27533   0.28184   0.28357
 Alpha virt. eigenvalues --    0.29205   0.30873   0.32379   0.32506   0.32615

 Mulliken charges:
               1
     1  C   -0.297354
     2  C   -0.299577
     3  C   -0.481435
     4  H    0.150022
     5  H    0.147406
     6  H    0.149297
     7  H    0.145776
     8  H    0.149098
     9  H    0.180514
    10  H    0.157173
    11  C   -0.297360
    12  C   -0.298760
    13  C   -0.475111
    14  H    0.148138
    15  H    0.148042
    16  H    0.150430
    17  H    0.150918
    18  H    0.154554
    19  H    0.154219
    20  H    0.157910
    21  C   -0.170517
    22  C   -0.218550
    23  C   -0.170782
    24  C    0.158541
    25  C   -0.170705
    26  C   -0.218588
    27  H    0.226104
    28  H    0.223895
    29  H    0.275701
    30  H    0.276050
    31  H    0.223958
    32  N    0.488360
    33  O   -0.457551
    34  O   -0.459815
 Sum of Mulliken charges =  -0.00000

 Dipole moment (field-independent basis, Debye):
    X=              4.4983    Y=             -3.2231    Z=             -0.3264  Tot=              5.5434
 Quadrupole moment (field-independent basis, Debye-Ang):
   XX=            -70.0446   YY=            -95.0390   ZZ=            -91.3120
   XY=            -10.3702   XZ=             -2.0239   YZ=             -2.8457

 Normal termination of Gaussian 16 at Thu May  6 05:59:13 2021.
