 Gaussian 16, Revision A.03,
 Gaussian 16:  EM64L-G16RevA.03 25-Dec-2016

 -------------
 #p 6-31g* mp2
 -------------

 ------------------------------------------------------
 Input file generated by CHIRIPA (05-May-2021 14:53:12)
 ------------------------------------------------------
 Symbolic Z-matrix:
 Charge =  0 Multiplicity = 1

                         Standard orientation:
 ---------------------------------------------------------------------
 Center     Atomic      Atomic             Coordinates (Angstroms)
 Number     Number       Type             X           Y           Z
 ---------------------------------------------------------------------
      1          6           0       -3.830693    0.593549    0.032876
      2          6           0       -2.964624    1.088082    1.191904
      3          6           0       -1.810198    1.977664    0.729585
      4          1           0       -3.200861    0.039979   -0.676925
      5          1           0       -4.229837    1.459646   -0.512978
      6          1           0       -2.568354    0.221318    1.736243
      7          1           0       -3.596627    1.640376    1.899124
      8          1           0       -2.190179    2.860185    0.204826
      9          1           0       -1.156064    1.433064    0.041020
     10          1           0       -1.204030    2.319965    1.574126
     11          6           0       -4.988956   -0.296967    0.479120
     12          6           0       -5.855025   -0.791500   -0.679908
     13          6           0       -7.009452   -1.681082   -0.217589
     14          1           0       -4.589813   -1.163064    1.024974
     15          1           0       -5.618788    0.256603    1.188921
     16          1           0       -5.223023   -1.343794   -1.387129
     17          1           0       -6.251295    0.075264   -1.224248
     18          1           0       -7.663585   -1.136482    0.470976
     19          1           0       -6.629470   -2.563603    0.307170
     20          1           0       -7.615620   -2.023384   -1.062130
     21          6           0        1.525348    1.284852   -1.047472
     22          6           0        2.720487    1.898039   -0.657388
     23          6           0        3.790800    1.131857   -0.186279
     24          6           0        3.630778   -0.251267   -0.118068
     25          6           0        2.452661   -0.891591   -0.499275
     26          6           0        1.395478   -0.105555   -0.967313
     27          1           0        0.699002    1.887752   -1.412248
     28          1           0        2.824178    2.977645   -0.718563
     29          1           0        4.727182    1.580631    0.122278
     30          1           0        2.379148   -1.969914   -0.426935
     31          1           0        0.468486   -0.584482   -1.269568
     32          7           0        4.756920   -1.072899    0.379048
     33          8           0        4.590738   -2.289645    0.429554
     34          8           0        5.784448   -0.484591    0.708768
 ---------------------------------------------------------------------

 SCF Done:  E(RHF) =  -669.534834032     A.U. after   15 cycles
 E2 =    -0.2091782345D+01 EUMP2 =    -0.67162661637715D+03

 The electronic state is 1-A.
 Alpha  occ. eigenvalues --  -20.60755 -20.60750 -15.85810 -11.31172 -11.27759
 Alpha  occ. eigenvalues --  -11.27751 -11.27461 -11.26765 -11.26739 -11.22335
 Alpha  occ. eigenvalues --  -11.22131 -11.22110 -11.21974 -11.21944 -11.21478
 Alpha  occ. eigenvalues --   -1.59831  -1.39384  -1.19354  -1.09085  -1.08747
 Alpha  occ. eigenvalues --   -1.04759  -1.04175  -0.96648  -0.95579  -0.87667
 Alpha  occ. eigenvalues --   -0.86157  -0.82415  -0.80250  -0.78887  -0.77461
 Alpha  occ. eigenvalues --   -0.72028  -0.71155  -0.70481  -0.65723  -0.65008
 Alpha  occ. eigenvalues --   -0.64769  -0.62117  -0.61565  -0.60000  -0.58251
 Alpha  occ. eigenvalues --   -0.56019  -0.55229  -0.53347  -0.53166  -0.52928
 Alpha  occ. eigenvalues --   -0.52850  -0.50568  -0.48787  -0.48783  -0.48555
 Alpha  occ. eigenvalues --   -0.47274  -0.46434  -0.46342  -0.44791  -0.44425
 Alpha  occ. eigenvalues --   -0.37280  -0.36362
 Alpha virt. eigenvalues --    0.05063   0.11193   0.16521   0.20254   0.22432
 Alpha virt. eigenvalues --    0.23825   0.25533   0.26424   0.26863   0.27794
 Alpha virt. eigenvalues --    0.28966   0.30375   0.31020   0.31280   0.31710

 Mulliken charges:
               1
     1  C   -0.297525
     2  C   -0.300105
     3  C   -0.479165
     4  H    0.143213
     5  H    0.150233
     6  H    0.154589
     7  H    0.155258
     8  H    0.153917
     9  H    0.147886
    10  H    0.165230
    11  C   -0.298796
    12  C   -0.299869
    13  C   -0.476082
    14  H    0.150760
    15  H    0.151683
    16  H    0.150868
    17  H    0.152318
    18  H    0.156209
    19  H    0.156102
    20  H    0.161481
    21  C   -0.168150
    22  C   -0.220382
    23  C   -0.170833
    24  C    0.158161
    25  C   -0.171135
    26  C   -0.218879
    27  H    0.228374
    28  H    0.223674
    29  H    0.275614
    30  H    0.275490
    31  H    0.222777
    32  N    0.488144
    33  O   -0.460591
    34  O   -0.460470
 Sum of Mulliken charges =  -0.00000

 Dipole moment (field-independent basis, Debye):
    X=             -4.0898    Y=              2.9157    Z=             -1.6780  Tot=              5.2956
 Quadrupole moment (field-independent basis, Debye-Ang):
   XX=           -122.3863   YY=            -92.6762   ZZ=            -95.0598
   XY=             13.2421   XZ=             -5.6361   YZ=              0.9466

 Normal termination of Gaussian 16 at Thu May  6 00:56:20 2021.
