 Gaussian 16, Revision A.03,
 Gaussian 16:  EM64L-G16RevA.03 25-Dec-2016

 -------------
 #p 6-31g* mp2
 -------------

 ------------------------------------------------------
 Input file generated by CHIRIPA (05-May-2021 14:51:08)
 ------------------------------------------------------
 Symbolic Z-matrix:
 Charge =  0 Multiplicity = 1

                         Standard orientation:
 ---------------------------------------------------------------------
 Center     Atomic      Atomic             Coordinates (Angstroms)
 Number     Number       Type             X           Y           Z
 ---------------------------------------------------------------------
      1          6           0        3.568388    0.327539   -0.194090
      2          6           0        3.425619   -1.124893   -0.650208
      3          6           0        4.772728   -1.832167   -0.801388
      4          1           0        4.191234    0.872539   -0.916574
      5          1           0        4.106243    0.352567    0.763761
      6          1           0        2.886977   -1.147268   -1.606231
      7          1           0        2.802882   -1.666451    0.073345
      8          1           0        5.313011   -1.839449    0.150789
      9          1           0        5.397584   -1.317316   -1.538330
     10          1           0        4.647275   -2.869138   -1.128213
     11          6           0        2.230291    1.047945   -0.038400
     12          6           0        2.373059    2.500377    0.417718
     13          6           0        1.025951    3.207652    0.568898
     14          1           0        1.692435    1.022917   -0.996251
     15          1           0        1.607444    0.502946    0.684084
     16          1           0        2.995797    3.041935   -0.305836
     17          1           0        2.911701    2.522752    1.373741
     18          1           0        0.401094    2.692801    1.305840
     19          1           0        0.485668    3.214933   -0.383279
     20          1           0        1.151403    4.244622    0.895723
     21          6           0       -3.245953   -0.153094   -0.304994
     22          6           0       -4.767470   -0.153798   -0.153432
     23          6           0       -5.446604    0.921365   -1.002310
     24          1           0       -2.856598    0.835855   -0.026916
     25          1           0       -2.989757   -0.303734   -1.362854
     26          1           0       -5.020698   -0.004584    0.904031
     27          1           0       -5.153230   -1.142919   -0.431719
     28          1           0       -5.223072    0.772435   -2.063656
     29          1           0       -5.089787    1.917238   -0.720316
     30          1           0       -6.533923    0.903006   -0.878781
     31          6           0       -2.552725   -1.222390    0.537485
     32          6           0       -1.031209   -1.221687    0.385922
     33          6           0       -0.352075   -2.296850    1.234800
     34          1           0       -2.808922   -1.071750    1.595344
     35          1           0       -2.942081   -2.211339    0.259406
     36          1           0       -0.645448   -0.232565    0.664210
     37          1           0       -0.777981   -1.370900   -0.671541
     38          1           0       -0.708891   -3.292722    0.952806
     39          1           0       -0.575607   -2.147919    2.296146
     40          1           0        0.735244   -2.278489    1.111270
 ---------------------------------------------------------------------

 SCF Done:  E(RHF) =  -470.732479335     A.U. after   11 cycles
 E2 =    -0.1584313980D+01 EUMP2 =    -0.47231679331470D+03

 The electronic state is 1-A.
 Alpha  occ. eigenvalues --  -11.21609 -11.21607 -11.21574 -11.21513 -11.21387
 Alpha  occ. eigenvalues --  -11.21364 -11.21312 -11.21304 -11.21113 -11.21078
 Alpha  occ. eigenvalues --  -11.21051 -11.21048  -1.08457  -1.08371  -1.03545
 Alpha  occ. eigenvalues --   -1.03500  -0.95999  -0.95949  -0.87026  -0.86956
 Alpha  occ. eigenvalues --   -0.79685  -0.79504  -0.78390  -0.78057  -0.65150
 Alpha  occ. eigenvalues --   -0.64967  -0.61004  -0.60860  -0.59404  -0.59291
 Alpha  occ. eigenvalues --   -0.57660  -0.57520  -0.55313  -0.55208  -0.52751
 Alpha  occ. eigenvalues --   -0.52623  -0.52451  -0.52346  -0.49951  -0.49888
 Alpha  occ. eigenvalues --   -0.48143  -0.47717  -0.46767  -0.46543  -0.46017
 Alpha  occ. eigenvalues --   -0.45779  -0.45620  -0.45245  -0.43790  -0.43727
 Alpha virt. eigenvalues --    0.20923   0.22685   0.23591   0.23998   0.25900
 Alpha virt. eigenvalues --    0.26412   0.26569   0.27553   0.28814   0.29329
 Alpha virt. eigenvalues --    0.29912   0.31473   0.31560   0.31824   0.32358

 Mulliken charges:
               1
     1  C   -0.297560
     2  C   -0.306751
     3  C   -0.475184
     4  H    0.149594
     5  H    0.149083
     6  H    0.151999
     7  H    0.158105
     8  H    0.155147
     9  H    0.155275
    10  H    0.160293
    11  C   -0.303999
    12  C   -0.299478
    13  C   -0.476722
    14  H    0.150079
    15  H    0.157034
    16  H    0.151981
    17  H    0.151678
    18  H    0.154540
    19  H    0.155769
    20  H    0.160568
    21  C   -0.298455
    22  C   -0.299567
    23  C   -0.475719
    24  H    0.150242
    25  H    0.149240
    26  H    0.151838
    27  H    0.151834
    28  H    0.155032
    29  H    0.155326
    30  H    0.160141
    31  C   -0.297908
    32  C   -0.302916
    33  C   -0.483370
    34  H    0.148995
    35  H    0.149276
    36  H    0.156509
    37  H    0.152275
    38  H    0.155568
    39  H    0.154507
    40  H    0.165702
 Sum of Mulliken charges =  -0.00000

 Dipole moment (field-independent basis, Debye):
    X=              0.0210    Y=              0.0134    Z=             -0.0126  Tot=              0.0279
 Quadrupole moment (field-independent basis, Debye-Ang):
   XX=            -86.1112   YY=            -85.2405   ZZ=            -83.5651
   XY=              1.0714   XZ=             -0.1880   YZ=              0.5474

 Normal termination of Gaussian 16 at Thu May  6 00:31:12 2021.
