 Gaussian 16, Revision A.03,
 Gaussian 16:  EM64L-G16RevA.03 25-Dec-2016

 -------------
 #p 6-31g* mp2
 -------------

 ------------------------------------------------------
 Input file generated by CHIRIPA (05-May-2021 14:53:14)
 ------------------------------------------------------
 Symbolic Z-matrix:
 Charge =  0 Multiplicity = 1

                         Standard orientation:
 ---------------------------------------------------------------------
 Center     Atomic      Atomic             Coordinates (Angstroms)
 Number     Number       Type             X           Y           Z
 ---------------------------------------------------------------------
      1          6           0       -3.020183    1.067284   -0.288608
      2          6           0       -3.387969    2.283097    0.562577
      3          6           0       -2.556052    3.518987    0.218651
      4          1           0       -1.953406    0.842198   -0.153446
      5          1           0       -3.154836    1.317295   -1.350096
      6          1           0       -3.253985    2.030421    1.622209
      7          1           0       -4.454038    2.505198    0.425522
      8          1           0       -2.697262    3.798716   -0.830354
      9          1           0       -1.490391    3.321242    0.373132
     10          1           0       -2.835421    4.376332    0.838951
     11          6           0       -3.843264   -0.176089    0.043489
     12          6           0       -3.475478   -1.391903   -0.807696
     13          6           0       -4.307395   -2.627792   -0.463769
     14          1           0       -3.708611   -0.426100    1.104978
     15          1           0       -4.910041    0.048996   -0.091672
     16          1           0       -2.409409   -1.614003   -0.670640
     17          1           0       -3.609462   -1.139226   -1.867327
     18          1           0       -5.373056   -2.430047   -0.618251
     19          1           0       -4.166185   -2.907522    0.585236
     20          1           0       -4.028026   -3.485137   -1.084070
     21          6           0        0.733337   -1.548173    1.159836
     22          6           0        1.767229   -1.047057    1.957627
     23          6           0        2.851309   -0.380460    1.378863
     24          6           0        2.869330   -0.232106   -0.007123
     25          6           0        1.854479   -0.720145   -0.828819
     26          6           0        0.780179   -1.383409   -0.228393
     27          1           0       -0.105003   -2.064707    1.617847
     28          1           0        1.733500   -1.173552    3.036008
     29          1           0        3.665161    0.017402    1.972807
     30          1           0        1.916020   -0.578644   -1.901016
     31          1           0       -0.021346   -1.771543   -0.850451
     32          7           0        4.011820    0.471825   -0.631300
     33          8           0        4.004125    0.589520   -1.854707
     34          8           0        4.893367    0.892543    0.114697
 ---------------------------------------------------------------------

 SCF Done:  E(RHF) =  -669.535600485     A.U. after   15 cycles
 E2 =    -0.2091869350D+01 EUMP2 =    -0.67162746983489D+03

 The electronic state is 1-A.
 Alpha  occ. eigenvalues --  -20.60790 -20.60785 -15.85844 -11.31229 -11.27803
 Alpha  occ. eigenvalues --  -11.27798 -11.27560 -11.26819 -11.26803 -11.22594
 Alpha  occ. eigenvalues --  -11.22129 -11.22029 -11.21939 -11.21906 -11.21344
 Alpha  occ. eigenvalues --   -1.59865  -1.39418  -1.19408  -1.09105  -1.08798
 Alpha  occ. eigenvalues --   -1.04812  -1.04175  -0.96591  -0.95629  -0.87609
 Alpha  occ. eigenvalues --   -0.86212  -0.82458  -0.80277  -0.78890  -0.77499
 Alpha  occ. eigenvalues --   -0.72062  -0.71188  -0.70514  -0.65794  -0.65056
 Alpha  occ. eigenvalues --   -0.64793  -0.62189  -0.61546  -0.59984  -0.58203
 Alpha  occ. eigenvalues --   -0.55874  -0.55314  -0.53306  -0.53142  -0.53019
 Alpha  occ. eigenvalues --   -0.52892  -0.50536  -0.48837  -0.48815  -0.48552
 Alpha  occ. eigenvalues --   -0.47320  -0.46417  -0.46328  -0.44818  -0.44417
 Alpha  occ. eigenvalues --   -0.37382  -0.36401
 Alpha virt. eigenvalues --    0.05034   0.11111   0.16512   0.19529   0.22726
 Alpha virt. eigenvalues --    0.23820   0.25143   0.26199   0.27412   0.28112
 Alpha virt. eigenvalues --    0.28773   0.30153   0.31070   0.31471   0.31831

 Mulliken charges:
               1
     1  C   -0.301965
     2  C   -0.299661
     3  C   -0.476452
     4  H    0.151027
     5  H    0.150942
     6  H    0.150819
     7  H    0.152794
     8  H    0.156528
     9  H    0.157338
    10  H    0.161574
    11  C   -0.297552
    12  C   -0.303995
    13  C   -0.475571
    14  H    0.146999
    15  H    0.153179
    16  H    0.141836
    17  H    0.155964
    18  H    0.159862
    19  H    0.153230
    20  H    0.160886
    21  C   -0.172845
    22  C   -0.218686
    23  C   -0.170926
    24  C    0.158660
    25  C   -0.171747
    26  C   -0.222091
    27  H    0.225881
    28  H    0.223611
    29  H    0.275847
    30  H    0.276439
    31  H    0.230498
    32  N    0.487992
    33  O   -0.460099
    34  O   -0.460314
 Sum of Mulliken charges =  -0.00000

 Dipole moment (field-independent basis, Debye):
    X=             -4.1084    Y=             -2.4067    Z=              2.1780  Tot=              5.2360
 Quadrupole moment (field-independent basis, Debye-Ang):
   XX=           -116.9018   YY=            -95.0197   ZZ=            -90.3001
   XY=             -6.6493   XZ=              9.2094   YZ=              0.1426

 Normal termination of Gaussian 16 at Thu May  6 05:50:31 2021.
