 Gaussian 16, Revision A.03,
 Gaussian 16:  EM64L-G16RevA.03 25-Dec-2016

 -------------
 #p 6-31g* mp2
 -------------

 ------------------------------------------------------
 Input file generated by CHIRIPA (05-May-2021 14:55:22)
 ------------------------------------------------------
 Symbolic Z-matrix:
 Charge =  0 Multiplicity = 1

                         Standard orientation:
 ---------------------------------------------------------------------
 Center     Atomic      Atomic             Coordinates (Angstroms)
 Number     Number       Type             X           Y           Z
 ---------------------------------------------------------------------
      1          6           0        3.506178    2.310065    0.789185
      2          6           0        4.063968    1.069393    1.114956
      3          6           0        3.584036   -0.102430    0.522467
      4          6           0        2.540540    0.003614   -0.395769
      5          6           0        1.963983    1.224957   -0.741014
      6          6           0        2.459810    2.383757   -0.136128
      7          1           0        3.885174    3.215307    1.254260
      8          1           0        4.876681    1.009146    1.833227
      9          1           0        3.997491   -1.075948    0.756428
     10          1           0        1.154781    1.253221   -1.460605
     11          1           0        2.024698    3.345912   -0.391038
     12          7           0        2.024044   -1.230049   -1.029573
     13          8           0        1.103919   -1.109782   -1.835516
     14          8           0        2.549118   -2.293903   -0.708403
     15          6           0       -3.799611    0.348979    0.491621
     16          6           0       -4.728461    0.666361   -0.680765
     17          6           0       -5.599869    1.897072   -0.428192
     18          1           0       -4.402234    0.193783    1.396997
     19          1           0       -3.158363    1.219320    0.688349
     20          1           0       -5.366814   -0.204823   -0.876113
     21          1           0       -4.123570    0.820630   -1.583496
     22          1           0       -4.977383    2.780861   -0.254897
     23          1           0       -6.227691    1.749581    0.456504
     24          1           0       -6.256067    2.105800   -1.278895
     25          6           0       -2.922090   -0.878736    0.254135
     26          6           0       -1.993240   -1.196119    1.426522
     27          6           0       -1.121832   -2.426830    1.173948
     28          1           0       -3.563337   -1.749079    0.057407
     29          1           0       -2.319467   -0.723541   -0.651240
     30          1           0       -2.598130   -1.350389    2.329252
     31          1           0       -1.354888   -0.324934    1.621870
     32          1           0       -0.494010   -2.279338    0.289252
     33          1           0       -1.744317   -3.310619    1.000654
     34          1           0       -0.465634   -2.635557    2.024652
 ---------------------------------------------------------------------

 SCF Done:  E(RHF) =  -669.536228989     A.U. after   15 cycles
 E2 =    -0.2091758912D+01 EUMP2 =    -0.67162798790136D+03

 The electronic state is 1-A.
 Alpha  occ. eigenvalues --  -20.60972 -20.60955 -15.85982 -11.31305 -11.27872
 Alpha  occ. eigenvalues --  -11.27860 -11.27602 -11.26872 -11.26861 -11.21316
 Alpha  occ. eigenvalues --  -11.21041 -11.21028 -11.20905 -11.20769 -11.20151
 Alpha  occ. eigenvalues --   -1.60025  -1.39578  -1.19471  -1.08876  -1.07977
 Alpha  occ. eigenvalues --   -1.04867  -1.03057  -0.95719  -0.95488  -0.86497
 Alpha  occ. eigenvalues --   -0.86267  -0.82554  -0.79135  -0.77765  -0.77609
 Alpha  occ. eigenvalues --   -0.72203  -0.71361  -0.70580  -0.65126  -0.64869
 Alpha  occ. eigenvalues --   -0.64613  -0.62214  -0.60457  -0.58883  -0.57096
 Alpha  occ. eigenvalues --   -0.55372  -0.54770  -0.53199  -0.52958  -0.52189
 Alpha  occ. eigenvalues --   -0.51892  -0.49451  -0.48970  -0.48932  -0.47432
 Alpha  occ. eigenvalues --   -0.46183  -0.45328  -0.45274  -0.44891  -0.43309
 Alpha  occ. eigenvalues --   -0.37447  -0.36466
 Alpha virt. eigenvalues --    0.04873   0.11180   0.16357   0.21273   0.23216
 Alpha virt. eigenvalues --    0.24733   0.26869   0.27317   0.27809   0.28446
 Alpha virt. eigenvalues --    0.28492   0.30863   0.31887   0.32193   0.32298

 Mulliken charges:
               1
     1  C   -0.170455
     2  C   -0.218594
     3  C   -0.170556
     4  C    0.158978
     5  C   -0.171136
     6  C   -0.218597
     7  H    0.226117
     8  H    0.223948
     9  H    0.276084
    10  H    0.275443
    11  H    0.223859
    12  N    0.487446
    13  O   -0.460893
    14  O   -0.457471
    15  C   -0.297189
    16  C   -0.299410
    17  C   -0.475115
    18  H    0.148238
    19  H    0.144503
    20  H    0.152985
    21  H    0.152328
    22  H    0.152298
    23  H    0.154788
    24  H    0.159721
    25  C   -0.300934
    26  C   -0.298538
    27  C   -0.483997
    28  H    0.149910
    29  H    0.158696
    30  H    0.148510
    31  H    0.145142
    32  H    0.172976
    33  H    0.155181
    34  H    0.155734
 Sum of Mulliken charges =  -0.00000

 Dipole moment (field-independent basis, Debye):
    X=              2.0067    Y=              4.2674    Z=              2.1202  Tot=              5.1704
 Quadrupole moment (field-independent basis, Debye-Ang):
   XX=            -83.8797   YY=            -93.9746   ZZ=            -95.8936
   XY=             10.4136   XZ=              7.0940   YZ=             -3.3960

 Normal termination of Gaussian 16 at Thu May  6 04:39:32 2021.
