 Gaussian 16, Revision A.03,
 Gaussian 16:  EM64L-G16RevA.03 25-Dec-2016

 -------------
 #p 6-31g* mp2
 -------------

 ------------------------------------------------------
 Input file generated by CHIRIPA (05-May-2021 14:57:23)
 ------------------------------------------------------
 Symbolic Z-matrix:
 Charge =  0 Multiplicity = 1

                         Standard orientation:
 ---------------------------------------------------------------------
 Center     Atomic      Atomic             Coordinates (Angstroms)
 Number     Number       Type             X           Y           Z
 ---------------------------------------------------------------------
      1          6           0        1.279664   -1.110681    0.188752
      2          6           0        1.469291    0.231207   -0.157512
      3          6           0        2.758747    0.752563   -0.299063
      4          6           0        3.840817   -0.100087   -0.085985
      5          6           0        3.684425   -1.441417    0.259943
      6          6           0        2.385886   -1.941246    0.396009
      7          1           0        0.274455   -1.507322    0.296581
      8          1           0        0.612042    0.878559   -0.319079
      9          1           0        2.934261    1.787549   -0.566302
     10          1           0        4.558550   -2.062231    0.414587
     11          1           0        2.241628   -2.983779    0.665009
     12          7           0        5.210715    0.440455   -0.232935
     13          8           0        6.147493   -0.331415   -0.039797
     14          8           0        5.321724    1.625766   -0.538469
     15          6           0       -4.415674   -2.160137   -0.391716
     16          6           0       -3.262861   -1.948593    0.371694
     17          6           0       -2.810021   -0.651236    0.629279
     18          6           0       -3.537639    0.416298    0.105607
     19          6           0       -4.689837    0.237981   -0.658549
     20          6           0       -5.124233   -1.068100   -0.903498
     21          1           0       -4.760287   -3.171343   -0.586906
     22          1           0       -2.710582   -2.794787    0.770425
     23          1           0       -1.920748   -0.458833    1.217151
     24          1           0       -5.219265    1.101478   -1.042603
     25          1           0       -6.019858   -1.229387   -1.496700
     26          7           0       -3.068000    1.794369    0.371612
     27          8           0       -3.726858    2.718009   -0.101075
     28          8           0       -2.049932    1.924767    1.047756
 ---------------------------------------------------------------------

 SCF Done:  E(RHF) =  -868.338053866     A.U. after   16 cycles
 E2 =    -0.2600499299D+01 EUMP2 =    -0.87093855316443D+03

 The electronic state is 1-A.
 Alpha  occ. eigenvalues --  -20.61893 -20.61839 -20.60580 -20.60567 -15.86896
 Alpha  occ. eigenvalues --  -15.85625 -11.32254 -11.31011 -11.28890 -11.28750
 Alpha  occ. eigenvalues --  -11.28496 -11.27880 -11.27743 -11.27592 -11.27474
 Alpha  occ. eigenvalues --  -11.27402 -11.26702 -11.26465  -1.60926  -1.59650
 Alpha  occ. eigenvalues --   -1.40482  -1.39202  -1.20415  -1.19175  -1.09796
 Alpha  occ. eigenvalues --   -1.08598  -1.05827  -1.04555  -0.96639  -0.95432
 Alpha  occ. eigenvalues --   -0.87212  -0.85969  -0.83480  -0.82240  -0.78546
 Alpha  occ. eigenvalues --   -0.77258  -0.73107  -0.72245  -0.71846  -0.71529
 Alpha  occ. eigenvalues --   -0.70970  -0.70360  -0.66066  -0.65817  -0.64833
 Alpha  occ. eigenvalues --   -0.64549  -0.63170  -0.61877  -0.56287  -0.55196
 Alpha  occ. eigenvalues --   -0.54110  -0.53893  -0.52908  -0.52637  -0.49876
 Alpha  occ. eigenvalues --   -0.49858  -0.48606  -0.48598  -0.45873  -0.44602
 Alpha  occ. eigenvalues --   -0.38357  -0.37424  -0.37207  -0.36138
 Alpha virt. eigenvalues --    0.03926   0.05224   0.10186   0.11478   0.15359
 Alpha virt. eigenvalues --    0.16669   0.19148   0.22074   0.25278   0.26815
 Alpha virt. eigenvalues --    0.27587   0.29543   0.30065   0.31333   0.32130

 Mulliken charges:
               1
     1  C   -0.174601
     2  C   -0.220577
     3  C   -0.171366
     4  C    0.159185
     5  C   -0.171854
     6  C   -0.218146
     7  H    0.214265
     8  H    0.237688
     9  H    0.278761
    10  H    0.274534
    11  H    0.219424
    12  N    0.487895
    13  O   -0.461596
    14  O   -0.458784
    15  C   -0.169618
    16  C   -0.219290
    17  C   -0.178888
    18  C    0.158964
    19  C   -0.169594
    20  C   -0.217514
    21  H    0.229247
    22  H    0.222166
    23  H    0.273242
    24  H    0.278879
    25  H    0.227717
    26  N    0.487714
    27  O   -0.453520
    28  O   -0.464332
 Sum of Mulliken charges =  -0.00000

 Dipole moment (field-independent basis, Debye):
    X=             -6.8573    Y=             -6.5502    Z=             -0.5433  Tot=              9.4986
 Quadrupole moment (field-independent basis, Debye-Ang):
   XX=           -125.5682   YY=           -104.2692   ZZ=           -104.9137
   XY=              6.5997   XZ=              8.7655   YZ=             -3.0305

 Normal termination of Gaussian 16 at Thu May  6 16:14:33 2021.
