 Gaussian 16, Revision A.03,
 Gaussian 16:  EM64L-G16RevA.03 25-Dec-2016

 -------------
 #p 6-31g* mp2
 -------------

 ------------------------------------------------------
 Input file generated by CHIRIPA (05-May-2021 14:55:20)
 ------------------------------------------------------
 Symbolic Z-matrix:
 Charge =  0 Multiplicity = 1

                         Standard orientation:
 ---------------------------------------------------------------------
 Center     Atomic      Atomic             Coordinates (Angstroms)
 Number     Number       Type             X           Y           Z
 ---------------------------------------------------------------------
      1          6           0       -2.525127    1.607144    0.374411
      2          6           0       -1.903124    0.958842    1.446482
      3          6           0       -1.421672   -0.345988    1.304460
      4          6           0       -1.579718   -0.975548    0.070780
      5          6           0       -2.194923   -0.356230   -1.016078
      6          6           0       -2.668788    0.948700   -0.851286
      7          1           0       -2.896184    2.620807    0.493581
      8          1           0       -1.790175    1.467750    2.399529
      9          1           0       -0.936156   -0.871356    2.117898
     10          1           0       -2.292982   -0.889328   -1.953953
     11          1           0       -3.151427    1.449720   -1.685603
     12          7           0       -1.074043   -2.356966   -0.091625
     13          8           0       -1.225553   -2.889834   -1.188773
     14          8           0       -0.535759   -2.880697    0.881305
     15          6           0        2.543876    0.459864    0.279683
     16          6           0        3.064606   -0.712912   -0.551834
     17          6           0        3.893352   -1.699401    0.271461
     18          1           0        3.394852    0.984478    0.735276
     19          1           0        1.936118    0.071316    1.108570
     20          1           0        3.670062   -0.322201   -1.379713
     21          1           0        2.212304   -1.234681   -1.005656
     22          1           0        3.295746   -2.116824    1.088300
     23          1           0        4.761788   -1.199159    0.712117
     24          1           0        4.255580   -2.529812   -0.342599
     25          6           0        1.713557    1.454692   -0.529400
     26          6           0        1.192827    2.627469    0.302117
     27          6           0        0.364081    3.613956   -0.521178
     28          1           0        2.321316    1.843240   -1.358289
     29          1           0        0.862582    0.930077   -0.984993
     30          1           0        2.045129    3.149237    0.755938
     31          1           0        0.587371    2.236757    1.129996
     32          1           0       -0.504355    3.113715   -0.961834
     33          1           0        0.961687    4.031379   -1.338018
     34          1           0        0.001854    4.444367    0.092881
 ---------------------------------------------------------------------

 SCF Done:  E(RHF) =  -669.533818602     A.U. after   15 cycles
 E2 =    -0.2097439935D+01 EUMP2 =    -0.67163125853701D+03

 The electronic state is 1-A.
 Alpha  occ. eigenvalues --  -20.60946 -20.60940 -15.86000 -11.31385 -11.27961
 Alpha  occ. eigenvalues --  -11.27955 -11.27669 -11.26959 -11.26942 -11.21703
 Alpha  occ. eigenvalues --  -11.21379 -11.21327 -11.21245 -11.21187 -11.20514
 Alpha  occ. eigenvalues --   -1.60020  -1.39571  -1.19582  -1.08972  -1.08327
 Alpha  occ. eigenvalues --   -1.04983  -1.03413  -0.95942  -0.95725  -0.86911
 Alpha  occ. eigenvalues --   -0.86366  -0.82616  -0.79513  -0.78136  -0.77651
 Alpha  occ. eigenvalues --   -0.72211  -0.71354  -0.70661  -0.65220  -0.65075
 Alpha  occ. eigenvalues --   -0.64930  -0.62315  -0.60892  -0.59294  -0.57476
 Alpha  occ. eigenvalues --   -0.55501  -0.55159  -0.53214  -0.53058  -0.52573
 Alpha  occ. eigenvalues --   -0.52308  -0.49843  -0.48974  -0.48966  -0.47789
 Alpha  occ. eigenvalues --   -0.46584  -0.45651  -0.45600  -0.44951  -0.43671
 Alpha  occ. eigenvalues --   -0.37431  -0.36473
 Alpha virt. eigenvalues --    0.04847   0.10881   0.16283   0.20680   0.22927
 Alpha virt. eigenvalues --    0.24340   0.25958   0.26680   0.27438   0.28350
 Alpha virt. eigenvalues --    0.29228   0.30134   0.31208   0.31713   0.32256

 Mulliken charges:
               1
     1  C   -0.166484
     2  C   -0.219376
     3  C   -0.169803
     4  C    0.159626
     5  C   -0.172307
     6  C   -0.219185
     7  H    0.228755
     8  H    0.225306
     9  H    0.276358
    10  H    0.276741
    11  H    0.225223
    12  N    0.488122
    13  O   -0.459646
    14  O   -0.460387
    15  C   -0.299615
    16  C   -0.299731
    17  C   -0.476412
    18  H    0.148362
    19  H    0.147125
    20  H    0.150102
    21  H    0.155580
    22  H    0.162316
    23  H    0.150873
    24  H    0.162521
    25  C   -0.300721
    26  C   -0.298733
    27  C   -0.480308
    28  H    0.149142
    29  H    0.152079
    30  H    0.151163
    31  H    0.149086
    32  H    0.154516
    33  H    0.156803
    34  H    0.152908
 Sum of Mulliken charges =  -0.00000

 Dipole moment (field-independent basis, Debye):
    X=             -1.9330    Y=              4.6644    Z=              0.5792  Tot=              5.0822
 Quadrupole moment (field-independent basis, Debye-Ang):
   XX=            -88.8385   YY=           -105.8215   ZZ=            -90.3889
   XY=             -5.5301   XZ=              0.1596   YZ=              0.0883

 Normal termination of Gaussian 16 at Wed May  5 17:26:20 2021.
