 Gaussian 16, Revision A.03,
 Gaussian 16:  EM64L-G16RevA.03 25-Dec-2016

 -------------
 #p 6-31g* mp2
 -------------

 ------------------------------------------------------
 Input file generated by CHIRIPA (05-May-2021 14:53:14)
 ------------------------------------------------------
 Symbolic Z-matrix:
 Charge =  0 Multiplicity = 1

                         Standard orientation:
 ---------------------------------------------------------------------
 Center     Atomic      Atomic             Coordinates (Angstroms)
 Number     Number       Type             X           Y           Z
 ---------------------------------------------------------------------
      1          6           0        3.433892    0.999438   -0.390867
      2          6           0        2.189476    1.863838   -0.596355
      3          6           0        2.521453    3.346245   -0.769721
      4          1           0        3.981233    1.359647    0.490956
      5          1           0        4.106683    1.127418   -1.250151
      6          1           0        1.518602    1.733202    0.262410
      7          1           0        1.644932    1.501409   -1.477679
      8          1           0        3.171620    3.496479   -1.637658
      9          1           0        3.044572    3.729589    0.112319
     10          1           0        1.617423    3.945762   -0.915213
     11          6           0        3.118278   -0.484999   -0.216042
     12          6           0        4.362694   -1.349399   -0.010554
     13          6           0        4.030716   -2.831806    0.162812
     14          1           0        2.445487   -0.612978    0.643242
     15          1           0        2.570936   -0.845208   -1.097865
     16          1           0        4.907238   -0.986970    0.870770
     17          1           0        5.033568   -1.218763   -0.869319
     18          1           0        3.507597   -3.215150   -0.719228
     19          1           0        3.380550   -2.982040    1.030749
     20          1           0        4.934747   -3.431323    0.308304
     21          6           0       -4.219621   -0.566444   -1.627368
     22          6           0       -2.937116   -1.117989   -1.713963
     23          6           0       -2.009090   -0.921946   -0.686887
     24          6           0       -2.398941   -0.165618    0.417321
     25          6           0       -3.669193    0.396888    0.532807
     26          6           0       -4.580930    0.187904   -0.506236
     27          1           0       -4.934206   -0.723761   -2.429873
     28          1           0       -2.653755   -1.704265   -2.583464
     29          1           0       -1.009564   -1.337474   -0.728151
     30          1           0       -3.922550    0.976685    1.412047
     31          1           0       -5.576243    0.617442   -0.436285
     32          7           0       -1.425105    0.048773    1.510975
     33          8           0       -1.793141    0.719009    2.473249
     34          8           0       -0.312215   -0.457482    1.385198
 ---------------------------------------------------------------------

 SCF Done:  E(RHF) =  -669.536389983     A.U. after   15 cycles
 E2 =    -0.2091785383D+01 EUMP2 =    -0.67162817536568D+03

 The electronic state is 1-A.
 Alpha  occ. eigenvalues --  -20.60983 -20.60972 -15.86004 -11.31283 -11.27847
 Alpha  occ. eigenvalues --  -11.27833 -11.27582 -11.26847 -11.26836 -11.20877
 Alpha  occ. eigenvalues --  -11.20772 -11.20579 -11.20465 -11.20449 -11.20372
 Alpha  occ. eigenvalues --   -1.60036  -1.39593  -1.19450  -1.08864  -1.07608
 Alpha  occ. eigenvalues --   -1.04841  -1.02804  -0.95714  -0.95258  -0.86282
 Alpha  occ. eigenvalues --   -0.86243  -0.82553  -0.78859  -0.77666  -0.77343
 Alpha  occ. eigenvalues --   -0.72233  -0.71340  -0.70561  -0.65112  -0.64846
 Alpha  occ. eigenvalues --   -0.64221  -0.62187  -0.60202  -0.58635  -0.56869
 Alpha  occ. eigenvalues --   -0.55351  -0.54543  -0.53175  -0.52933  -0.51991
 Alpha  occ. eigenvalues --   -0.51691  -0.49206  -0.48998  -0.48983  -0.47195
 Alpha  occ. eigenvalues --   -0.45897  -0.45268  -0.44979  -0.44481  -0.43024
 Alpha  occ. eigenvalues --   -0.37428  -0.36440
 Alpha virt. eigenvalues --    0.04900   0.11209   0.16381   0.21177   0.23596
 Alpha virt. eigenvalues --    0.24953   0.26399   0.27554   0.27718   0.28520
 Alpha virt. eigenvalues --    0.29192   0.31159   0.32040   0.32355   0.32494

 Mulliken charges:
               1
     1  C   -0.296892
     2  C   -0.303552
     3  C   -0.474975
     4  H    0.150134
     5  H    0.144025
     6  H    0.167084
     7  H    0.143017
     8  H    0.151518
     9  H    0.156078
    10  H    0.156953
    11  C   -0.307276
    12  C   -0.298723
    13  C   -0.475460
    14  H    0.178701
    15  H    0.138063
    16  H    0.152194
    17  H    0.147402
    18  H    0.149693
    19  H    0.160095
    20  H    0.157368
    21  C   -0.170446
    22  C   -0.218746
    23  C   -0.170659
    24  C    0.157737
    25  C   -0.170646
    26  C   -0.218679
    27  H    0.225971
    28  H    0.223878
    29  H    0.277171
    30  H    0.275699
    31  H    0.223746
    32  N    0.493544
    33  O   -0.458936
    34  O   -0.465083
 Sum of Mulliken charges =  -0.00000

 Dipole moment (field-independent basis, Debye):
    X=             -3.6675    Y=             -0.7847    Z=             -3.6206  Tot=              5.2130
 Quadrupole moment (field-independent basis, Debye-Ang):
   XX=            -77.0162   YY=            -95.4062   ZZ=            -96.3664
   XY=              0.2356   XZ=              6.6876   YZ=              2.3757

 Normal termination of Gaussian 16 at Thu May  6 18:48:21 2021.
