 Gaussian 16, Revision A.03,
 Gaussian 16:  EM64L-G16RevA.03 25-Dec-2016

 -------------
 #p 6-31g* mp2
 -------------

 ------------------------------------------------------
 Input file generated by CHIRIPA (05-May-2021 14:53:11)
 ------------------------------------------------------
 Symbolic Z-matrix:
 Charge =  0 Multiplicity = 1

                         Standard orientation:
 ---------------------------------------------------------------------
 Center     Atomic      Atomic             Coordinates (Angstroms)
 Number     Number       Type             X           Y           Z
 ---------------------------------------------------------------------
      1          6           0        3.027309    0.543653    0.732768
      2          6           0        2.266205    1.869791    0.724690
      3          6           0        1.172592    1.930240    1.791532
      4          1           0        2.317134   -0.280333    0.579002
      5          1           0        3.473214    0.390852    1.725348
      6          1           0        1.823025    2.020705   -0.267999
      7          1           0        2.978300    2.690729    0.878303
      8          1           0        1.601912    1.805038    2.790836
      9          1           0        0.440073    1.131208    1.638021
     10          1           0        0.641203    2.886760    1.767985
     11          6           0        4.123863    0.468024   -0.328164
     12          6           0        4.884966   -0.858114   -0.320086
     13          6           0        5.978580   -0.918563   -1.386927
     14          1           0        3.677957    0.620825   -1.320744
     15          1           0        4.834038    1.292010   -0.174397
     16          1           0        4.172871   -1.679052   -0.473698
     17          1           0        5.328146   -1.009028    0.672604
     18          1           0        6.711098   -0.119531   -1.233417
     19          1           0        5.549259   -0.793361   -2.386231
     20          1           0        6.509968   -1.875083   -1.363380
     21          6           0       -0.948689   -1.902841    0.672518
     22          6           0       -2.248564   -2.048928    1.167999
     23          6           0       -3.278516   -1.219150    0.714988
     24          6           0       -2.971769   -0.249431   -0.238345
     25          6           0       -1.686749   -0.079230   -0.751224
     26          6           0       -0.672416   -0.920192   -0.283826
     27          1           0       -0.154664   -2.551776    1.030016
     28          1           0       -2.466034   -2.811204    1.910754
     29          1           0       -4.293730   -1.310492    1.081614
     30          1           0       -1.500654    0.689728   -1.491149
     31          1           0        0.336153   -0.804459   -0.670400
     32          7           0       -4.053865    0.634936   -0.725543
     33          8           0       -3.757711    1.481590   -1.565844
     34          8           0       -5.177676    0.464704   -0.257883
 ---------------------------------------------------------------------

 SCF Done:  E(RHF) =  -669.535048523     A.U. after   15 cycles
 E2 =    -0.2092920273D+01 EUMP2 =    -0.67162796879561D+03

 The electronic state is 1-A.
 Alpha  occ. eigenvalues --  -20.60801 -20.60796 -15.85856 -11.31249 -11.27827
 Alpha  occ. eigenvalues --  -11.27816 -11.27574 -11.26837 -11.26826 -11.22328
 Alpha  occ. eigenvalues --  -11.22255 -11.22194 -11.22108 -11.21651 -11.21386
 Alpha  occ. eigenvalues --   -1.59876  -1.39428  -1.19433  -1.09165  -1.08818
 Alpha  occ. eigenvalues --   -1.04845  -1.04140  -0.96577  -0.95647  -0.87589
 Alpha  occ. eigenvalues --   -0.86238  -0.82479  -0.80211  -0.78995  -0.77522
 Alpha  occ. eigenvalues --   -0.72074  -0.71198  -0.70529  -0.65934  -0.65082
 Alpha  occ. eigenvalues --   -0.64770  -0.62223  -0.61497  -0.59944  -0.58194
 Alpha  occ. eigenvalues --   -0.55904  -0.55328  -0.53234  -0.53225  -0.52993
 Alpha  occ. eigenvalues --   -0.52864  -0.50507  -0.48838  -0.48827  -0.48508
 Alpha  occ. eigenvalues --   -0.47259  -0.46504  -0.46459  -0.44828  -0.44428
 Alpha  occ. eigenvalues --   -0.37392  -0.36398
 Alpha virt. eigenvalues --    0.05009   0.11100   0.16451   0.19183   0.22851
 Alpha virt. eigenvalues --    0.23897   0.25296   0.26119   0.27256   0.28238
 Alpha virt. eigenvalues --    0.29269   0.31019   0.31125   0.31355   0.31837

 Mulliken charges:
               1
     1  C   -0.300302
     2  C   -0.299837
     3  C   -0.482424
     4  H    0.137947
     5  H    0.153146
     6  H    0.148025
     7  H    0.155986
     8  H    0.154613
     9  H    0.160434
    10  H    0.164319
    11  C   -0.299067
    12  C   -0.298886
    13  C   -0.476004
    14  H    0.147888
    15  H    0.153997
    16  H    0.146244
    17  H    0.153655
    18  H    0.157467
    19  H    0.155802
    20  H    0.161656
    21  C   -0.172414
    22  C   -0.218214
    23  C   -0.170674
    24  C    0.158962
    25  C   -0.171060
    26  C   -0.220746
    27  H    0.226553
    28  H    0.223966
    29  H    0.276005
    30  H    0.276122
    31  H    0.229110
    32  N    0.488081
    33  O   -0.460167
    34  O   -0.460178
 Sum of Mulliken charges =  -0.00000

 Dipole moment (field-independent basis, Debye):
    X=              3.8560    Y=             -3.0761    Z=              1.7444  Tot=              5.2320
 Quadrupole moment (field-independent basis, Debye-Ang):
   XX=           -115.2121   YY=            -92.4133   ZZ=            -94.3356
   XY=             10.7404   XZ=             -7.2814   YZ=             -1.1960

 Normal termination of Gaussian 16 at Thu May  6 02:28:18 2021.
