 Gaussian 16, Revision A.03,
 Gaussian 16:  EM64L-G16RevA.03 25-Dec-2016

 -------------
 #p 6-31g* mp2
 -------------

 ------------------------------------------------------
 Input file generated by CHIRIPA (05-May-2021 14:53:15)
 ------------------------------------------------------
 Symbolic Z-matrix:
 Charge =  0 Multiplicity = 1

                         Standard orientation:
 ---------------------------------------------------------------------
 Center     Atomic      Atomic             Coordinates (Angstroms)
 Number     Number       Type             X           Y           Z
 ---------------------------------------------------------------------
      1          6           0        4.019388   -0.159699   -0.187254
      2          6           0        4.321980   -1.111898    0.970218
      3          6           0        5.442563   -2.100075    0.645266
      4          1           0        3.746543   -0.746755   -1.074872
      5          1           0        4.933016    0.392899   -0.446704
      6          1           0        3.407706   -1.661536    1.228320
      7          1           0        4.593951   -0.522501    1.855237
      8          1           0        6.369274   -1.567400    0.408486
      9          1           0        5.176289   -2.712906   -0.221993
     10          1           0        5.642441   -2.771193    1.486402
     11          6           0        2.901374    0.834229    0.122390
     12          6           0        2.598781    1.786428   -1.035081
     13          6           0        1.478198    2.774605   -0.710130
     14          1           0        1.987746    0.281631    0.381841
     15          1           0        3.174218    1.421284    1.010008
     16          1           0        2.326811    1.197031   -1.920101
     17          1           0        3.513056    2.336065   -1.293184
     18          1           0        1.744472    3.387435    0.157130
     19          1           0        0.551488    2.241929   -0.473350
     20          1           0        1.278321    3.445723   -1.551266
     21          6           0       -2.720256    2.061902    1.004213
     22          6           0       -3.227912    0.987878    1.742641
     23          6           0       -3.223661   -0.304837    1.210269
     24          6           0       -2.701795   -0.488299   -0.069297
     25          6           0       -2.188855    0.561406   -0.829760
     26          6           0       -2.203260    1.845621   -0.277371
     27          1           0       -2.727501    3.062813    1.425548
     28          1           0       -3.630044    1.152882    2.738185
     29          1           0       -3.610364   -1.154289    1.760097
     30          1           0       -1.794588    0.365709   -1.819545
     31          1           0       -1.808346    2.677839   -0.853132
     32          7           0       -2.691921   -1.852338   -0.643491
     33          8           0       -2.226586   -1.987616   -1.773003
     34          8           0       -3.149704   -2.760365    0.046842
 ---------------------------------------------------------------------

 SCF Done:  E(RHF) =  -669.534975264     A.U. after   15 cycles
 E2 =    -0.2092163062D+01 EUMP2 =    -0.67162713832555D+03

 The electronic state is 1-A.
 Alpha  occ. eigenvalues --  -20.60822 -20.60817 -15.85876 -11.31253 -11.27815
 Alpha  occ. eigenvalues --  -11.27810 -11.27541 -11.26830 -11.26789 -11.21907
 Alpha  occ. eigenvalues --  -11.21579 -11.21560 -11.21544 -11.21403 -11.20995
 Alpha  occ. eigenvalues --   -1.59898  -1.39451  -1.19427  -1.08815  -1.08559
 Alpha  occ. eigenvalues --   -1.04837  -1.03697  -0.96169  -0.95646  -0.87207
 Alpha  occ. eigenvalues --   -0.86214  -0.82483  -0.79778  -0.78349  -0.77525
 Alpha  occ. eigenvalues --   -0.72093  -0.71222  -0.70516  -0.65215  -0.65068
 Alpha  occ. eigenvalues --   -0.64821  -0.62209  -0.61075  -0.59551  -0.57766
 Alpha  occ. eigenvalues --   -0.55524  -0.55284  -0.53235  -0.53007  -0.52807
 Alpha  occ. eigenvalues --   -0.52488  -0.50077  -0.48852  -0.48848  -0.48080
 Alpha  occ. eigenvalues --   -0.46785  -0.45899  -0.45797  -0.44853  -0.43945
 Alpha  occ. eigenvalues --   -0.37388  -0.36372
 Alpha virt. eigenvalues --    0.04988   0.11172   0.16388   0.21088   0.22807
 Alpha virt. eigenvalues --    0.24187   0.26452   0.26687   0.27448   0.28278
 Alpha virt. eigenvalues --    0.28629   0.30444   0.31440   0.31639   0.31999

 Mulliken charges:
               1
     1  C   -0.298973
     2  C   -0.300081
     3  C   -0.476006
     4  H    0.152571
     5  H    0.148994
     6  H    0.154079
     7  H    0.150573
     8  H    0.154392
     9  H    0.157230
    10  H    0.160681
    11  C   -0.298823
    12  C   -0.298595
    13  C   -0.486618
    14  H    0.151704
    15  H    0.148451
    16  H    0.153415
    17  H    0.153001
    18  H    0.155157
    19  H    0.158355
    20  H    0.156004
    21  C   -0.172206
    22  C   -0.218378
    23  C   -0.170898
    24  C    0.158683
    25  C   -0.172481
    26  C   -0.218880
    27  H    0.226535
    28  H    0.223815
    29  H    0.275823
    30  H    0.276141
    31  H    0.228915
    32  N    0.488035
    33  O   -0.460434
    34  O   -0.460180
 Sum of Mulliken charges =  -0.00000

 Dipole moment (field-independent basis, Debye):
    X=             -0.0560    Y=              4.7361    Z=              2.0578  Tot=              5.1642
 Quadrupole moment (field-independent basis, Debye-Ang):
   XX=            -94.2954   YY=            -99.7589   ZZ=            -91.6783
   XY=            -11.4679   XZ=             -7.3541   YZ=             -2.6926

 Normal termination of Gaussian 16 at Wed May  5 17:10:19 2021.
