 Gaussian 16, Revision A.03,
 Gaussian 16:  EM64L-G16RevA.03 25-Dec-2016

 -------------
 #p 6-31g* mp2
 -------------

 ------------------------------------------------------
 Input file generated by CHIRIPA (05-May-2021 14:57:24)
 ------------------------------------------------------
 Symbolic Z-matrix:
 Charge =  0 Multiplicity = 1

                         Standard orientation:
 ---------------------------------------------------------------------
 Center     Atomic      Atomic             Coordinates (Angstroms)
 Number     Number       Type             X           Y           Z
 ---------------------------------------------------------------------
      1          6           0       -5.244328    1.967623   -0.151369
      2          6           0       -5.546285    0.829765   -0.906765
      3          6           0       -4.734192   -0.305992   -0.835306
      4          6           0       -3.623020   -0.269114    0.005662
      5          6           0       -3.295841    0.849352    0.770696
      6          6           0       -4.122048    1.973774    0.683479
      7          1           0       -5.880663    2.845503   -0.213001
      8          1           0       -6.417217    0.822144   -1.555969
      9          1           0       -4.944724   -1.200304   -1.409154
     10          1           0       -2.420848    0.826982    1.408900
     11          1           0       -3.885108    2.856042    1.271277
     12          7           0       -2.755822   -1.465489    0.089654
     13          8           0       -1.782624   -1.407698    0.838107
     14          8           0       -3.065731   -2.438345   -0.594557
     15          6           0        2.943458   -2.288862    0.348873
     16          6           0        4.111066   -2.053357   -0.384442
     17          6           0        4.576102   -0.749430   -0.579545
     18          6           0        3.845459    0.300170   -0.024755
     19          6           0        2.678648    0.097828    0.710702
     20          6           0        2.232229   -1.214411    0.893145
     21          1           0        2.589438   -3.305012    0.495516
     22          1           0        4.665452   -2.885856   -0.808289
     23          1           0        5.476942   -0.538612   -1.142982
     24          1           0        2.147476    0.948073    1.121017
     25          1           0        1.325127   -1.394321    1.463094
     26          7           0        4.327917    1.684979   -0.224600
     27          8           0        3.666095    2.592481    0.274467
     28          8           0        5.358755    1.836668   -0.876522
 ---------------------------------------------------------------------

 SCF Done:  E(RHF) =  -868.340043849     A.U. after   16 cycles
 E2 =    -0.2598191063D+01 EUMP2 =    -0.87093823491195D+03

 The electronic state is 1-A.
 Alpha  occ. eigenvalues --  -20.61514 -20.61468 -20.60294 -20.60285 -15.86536
 Alpha  occ. eigenvalues --  -15.85335 -11.31641 -11.30488 -11.28194 -11.28166
 Alpha  occ. eigenvalues --  -11.27857 -11.27129 -11.27119 -11.27032 -11.26971
 Alpha  occ. eigenvalues --  -11.26617 -11.26013 -11.25787  -1.60555  -1.59371
 Alpha  occ. eigenvalues --   -1.40120  -1.38931  -1.19785  -1.18607  -1.09224
 Alpha  occ. eigenvalues --   -1.08026  -1.05151  -1.03964  -0.96106  -0.94911
 Alpha  occ. eigenvalues --   -0.86561  -0.85359  -0.82954  -0.81745  -0.78031
 Alpha  occ. eigenvalues --   -0.76834  -0.72779  -0.71854  -0.71560  -0.70892
 Alpha  occ. eigenvalues --   -0.70690  -0.69696  -0.65445  -0.65149  -0.64245
 Alpha  occ. eigenvalues --   -0.63916  -0.62507  -0.61307  -0.55654  -0.54432
 Alpha  occ. eigenvalues --   -0.53489  -0.53240  -0.52319  -0.52021  -0.49536
 Alpha  occ. eigenvalues --   -0.49487  -0.48329  -0.48290  -0.45578  -0.44385
 Alpha  occ. eigenvalues --   -0.37742  -0.36740  -0.36555  -0.35563
 Alpha virt. eigenvalues --    0.04490   0.05667   0.10918   0.12096   0.16037
 Alpha virt. eigenvalues --    0.17245   0.21014   0.22330   0.26929   0.27526
 Alpha virt. eigenvalues --    0.28565   0.29118   0.30707   0.31761   0.32388

 Mulliken charges:
               1
     1  C   -0.169809
     2  C   -0.218350
     3  C   -0.170436
     4  C    0.158272
     5  C   -0.169657
     6  C   -0.217939
     7  H    0.227924
     8  H    0.225083
     9  H    0.275985
    10  H    0.272152
    11  H    0.226105
    12  N    0.492323
    13  O   -0.472670
    14  O   -0.457538
    15  C   -0.171552
    16  C   -0.218666
    17  C   -0.173108
    18  C    0.158183
    19  C   -0.173995
    20  C   -0.219629
    21  H    0.229004
    22  H    0.221200
    23  H    0.272628
    24  H    0.270369
    25  H    0.242242
    26  N    0.488296
    27  O   -0.464109
    28  O   -0.462312
 Sum of Mulliken charges =  -0.00000

 Dipole moment (field-independent basis, Debye):
    X=             -5.1849    Y=             -0.7551    Z=              0.4154  Tot=              5.2561
 Quadrupole moment (field-independent basis, Debye-Ang):
   XX=            -91.9125   YY=           -109.1055   ZZ=           -102.4113
   XY=            -34.7095   XZ=              4.0690   YZ=              3.2650

 Normal termination of Gaussian 16 at Thu May  6 01:52:44 2021.
