 Gaussian 16, Revision A.03,
 Gaussian 16:  EM64L-G16RevA.03 25-Dec-2016

 -------------
 #p 6-31g* mp2
 -------------

 ------------------------------------------------------
 Input file generated by CHIRIPA (05-May-2021 14:51:09)
 ------------------------------------------------------
 Symbolic Z-matrix:
 Charge =  0 Multiplicity = 1

                         Standard orientation:
 ---------------------------------------------------------------------
 Center     Atomic      Atomic             Coordinates (Angstroms)
 Number     Number       Type             X           Y           Z
 ---------------------------------------------------------------------
      1          6           0        3.254288   -0.106612   -0.329804
      2          6           0        4.639567    0.174836    0.253099
      3          6           0        5.344509    1.343664   -0.435880
      4          1           0        3.351147   -0.316599   -1.403800
      5          1           0        2.636753    0.798069   -0.242647
      6          1           0        5.253863   -0.730532    0.166124
      7          1           0        4.539421    0.383989    1.325872
      8          1           0        4.755162    2.261046   -0.337494
      9          1           0        5.473664    1.140193   -1.503831
     10          1           0        6.333031    1.527473   -0.003561
     11          6           0        2.536986   -1.272361    0.348603
     12          6           0        1.151708   -1.553810   -0.234299
     13          6           0        0.446765   -2.722637    0.454680
     14          1           0        3.154522   -2.177042    0.261447
     15          1           0        2.440128   -1.062374    1.422600
     16          1           0        1.251854   -1.762963   -1.307072
     17          1           0        0.537412   -0.648441   -0.147325
     18          1           0        0.317611   -2.519166    1.522631
     19          1           0        1.036112   -3.640020    0.356294
     20          1           0       -0.541756   -2.906447    0.022361
     21          6           0       -2.899912   -0.042450    0.208964
     22          6           0       -3.889499   -0.903766   -0.576424
     23          6           0       -3.886457   -2.365533   -0.128068
     24          1           0       -1.890050   -0.460016    0.095989
     25          1           0       -3.143758   -0.099286    1.278872
     26          1           0       -3.644708   -0.844221   -1.644670
     27          1           0       -4.897094   -0.483990   -0.461723
     28          1           0       -4.152415   -2.444188    0.931027
     29          1           0       -2.892913   -2.806466   -0.258642
     30          1           0       -4.601029   -2.963166   -0.702594
     31          6           0       -2.891363    1.421423   -0.227764
     32          6           0       -1.901776    2.282740    0.557625
     33          6           0       -1.904817    3.744506    0.109268
     34          1           0       -2.647517    1.478259   -1.297672
     35          1           0       -3.901225    1.838989   -0.114789
     36          1           0       -0.894180    1.862964    0.442923
     37          1           0       -2.146566    2.223194    1.625870
     38          1           0       -2.898361    4.185439    0.239842
     39          1           0       -1.638859    3.823163   -0.949826
     40          1           0       -1.190245    4.342140    0.683795
 ---------------------------------------------------------------------

 SCF Done:  E(RHF) =  -470.732701436     A.U. after   11 cycles
 E2 =    -0.1584183458D+01 EUMP2 =    -0.47231688489398D+03

 The electronic state is 1-A.
 Alpha  occ. eigenvalues --  -11.21663 -11.21641 -11.21627 -11.21587 -11.21446
 Alpha  occ. eigenvalues --  -11.21390 -11.21387 -11.21312 -11.21102 -11.21096
 Alpha  occ. eigenvalues --  -11.21089 -11.21054  -1.08487  -1.08418  -1.03588
 Alpha  occ. eigenvalues --   -1.03525  -0.96022  -0.95983  -0.87050  -0.86987
 Alpha  occ. eigenvalues --   -0.79655  -0.79588  -0.78345  -0.78192  -0.65240
 Alpha  occ. eigenvalues --   -0.64958  -0.61011  -0.60941  -0.59480  -0.59261
 Alpha  occ. eigenvalues --   -0.57654  -0.57576  -0.55361  -0.55234  -0.52786
 Alpha  occ. eigenvalues --   -0.52675  -0.52470  -0.52339  -0.49967  -0.49920
 Alpha  occ. eigenvalues --   -0.48021  -0.47837  -0.46756  -0.46622  -0.46025
 Alpha  occ. eigenvalues --   -0.45801  -0.45745  -0.45338  -0.43807  -0.43778
 Alpha virt. eigenvalues --    0.20180   0.22505   0.23430   0.24362   0.25798
 Alpha virt. eigenvalues --    0.26594   0.26971   0.27215   0.27776   0.29643
 Alpha virt. eigenvalues --    0.30069   0.31483   0.31734   0.31884   0.32341

 Mulliken charges:
               1
     1  C   -0.298532
     2  C   -0.299688
     3  C   -0.475767
     4  H    0.149685
     5  H    0.149323
     6  H    0.152049
     7  H    0.152126
     8  H    0.155299
     9  H    0.155176
    10  H    0.160374
    11  C   -0.297897
    12  C   -0.306578
    13  C   -0.482573
    14  H    0.149837
    15  H    0.150080
    16  H    0.151919
    17  H    0.156809
    18  H    0.156347
    19  H    0.155800
    20  H    0.166137
    21  C   -0.308305
    22  C   -0.299063
    23  C   -0.481374
    24  H    0.160774
    25  H    0.149140
    26  H    0.151629
    27  H    0.151917
    28  H    0.155500
    29  H    0.159996
    30  H    0.160335
    31  C   -0.297620
    32  C   -0.302047
    33  C   -0.475679
    34  H    0.149502
    35  H    0.149746
    36  H    0.152567
    37  H    0.152059
    38  H    0.155487
    39  H    0.155438
    40  H    0.160071
 Sum of Mulliken charges =  -0.00000

 Dipole moment (field-independent basis, Debye):
    X=              0.0178    Y=             -0.0132    Z=              0.0085  Tot=              0.0237
 Quadrupole moment (field-independent basis, Debye-Ang):
   XX=            -84.5219   YY=            -86.1638   ZZ=            -84.0433
   XY=             -1.0937   XZ=             -0.5161   YZ=              1.1276

 Normal termination of Gaussian 16 at Thu May  6 06:54:28 2021.
