 Gaussian 16, Revision A.03,
 Gaussian 16:  EM64L-G16RevA.03 25-Dec-2016

 -------------
 #p 6-31g* mp2
 -------------

 ------------------------------------------------------
 Input file generated by CHIRIPA (05-May-2021 14:57:27)
 ------------------------------------------------------
 Symbolic Z-matrix:
 Charge =  0 Multiplicity = 1

                         Standard orientation:
 ---------------------------------------------------------------------
 Center     Atomic      Atomic             Coordinates (Angstroms)
 Number     Number       Type             X           Y           Z
 ---------------------------------------------------------------------
      1          6           0        2.687028    2.517339    0.269627
      2          6           0        1.916873    1.365855    0.463188
      3          6           0        2.488064    0.097631    0.322130
      4          6           0        3.838377    0.017379   -0.014771
      5          6           0        4.631949    1.145999   -0.214150
      6          6           0        4.039723    2.403936   -0.067829
      7          1           0        2.235143    3.498531    0.381248
      8          1           0        0.866113    1.450898    0.725324
      9          1           0        1.914996   -0.810251    0.466218
     10          1           0        5.676875    1.029321   -0.474793
     11          1           0        4.640263    3.296471   -0.218755
     12          7           0        4.454206   -1.319788   -0.166889
     13          8           0        5.645965   -1.363556   -0.464263
     14          8           0        3.733472   -2.298772    0.014136
     15          6           0       -2.333062   -2.318936    0.242533
     16          6           0       -3.713379   -2.425626    0.042874
     17          6           0       -4.501033   -1.279256   -0.098500
     18          6           0       -3.872598   -0.036560   -0.034743
     19          6           0       -2.499710    0.102480    0.163094
     20          6           0       -1.731694   -1.057447    0.301901
     21          1           0       -1.728822   -3.214729    0.351359
     22          1           0       -4.183118   -3.404004   -0.003659
     23          1           0       -5.571707   -1.332961   -0.254032
     24          1           0       -2.059984    1.091571    0.204989
     25          1           0       -0.659939   -0.971562    0.456859
     26          7           0       -4.696057    1.184227   -0.183050
     27          8           0       -4.118316    2.267396   -0.123088
     28          8           0       -5.903633    1.034793   -0.356449
 ---------------------------------------------------------------------

 SCF Done:  E(RHF) =  -868.336935325     A.U. after   16 cycles
 E2 =    -0.2600043064D+01 EUMP2 =    -0.87093697838921D+03

 The electronic state is 1-A.
 Alpha  occ. eigenvalues --  -20.61387 -20.61363 -20.61227 -20.61208 -15.86434
 Alpha  occ. eigenvalues --  -15.86278 -11.31836 -11.31672 -11.28536 -11.28357
 Alpha  occ. eigenvalues --  -11.28344 -11.28197 -11.28089 -11.27934 -11.27512
 Alpha  occ. eigenvalues --  -11.27372 -11.27332 -11.27174  -1.60449  -1.60294
 Alpha  occ. eigenvalues --   -1.40004  -1.39848  -1.20003  -1.19845  -1.09370
 Alpha  occ. eigenvalues --   -1.09215  -1.05447  -1.05271  -0.96209  -0.96050
 Alpha  occ. eigenvalues --   -0.86821  -0.86662  -0.83084  -0.82888  -0.78170
 Alpha  occ. eigenvalues --   -0.77921  -0.72653  -0.72496  -0.71769  -0.71616
 Alpha  occ. eigenvalues --   -0.71098  -0.70920  -0.65682  -0.65542  -0.65438
 Alpha  occ. eigenvalues --   -0.65276  -0.63015  -0.62431  -0.55882  -0.55690
 Alpha  occ. eigenvalues --   -0.53724  -0.53600  -0.53564  -0.53325  -0.49417
 Alpha  occ. eigenvalues --   -0.49400  -0.49258  -0.49245  -0.45403  -0.45249
 Alpha  occ. eigenvalues --   -0.37933  -0.37779  -0.37040  -0.36867
 Alpha virt. eigenvalues --    0.04448   0.04615   0.10624   0.10797   0.15902
 Alpha virt. eigenvalues --    0.16115   0.17141   0.22345   0.24391   0.24498
 Alpha virt. eigenvalues --    0.28245   0.29077   0.30754   0.30948   0.33485

 Mulliken charges:
               1
     1  C   -0.169963
     2  C   -0.219081
     3  C   -0.176713
     4  C    0.161512
     5  C   -0.169520
     6  C   -0.218066
     7  H    0.230869
     8  H    0.219013
     9  H    0.269709
    10  H    0.277835
    11  H    0.226956
    12  N    0.488703
    13  O   -0.457178
    14  O   -0.463563
    15  C   -0.171300
    16  C   -0.218326
    17  C   -0.169749
    18  C    0.159764
    19  C   -0.173984
    20  C   -0.219787
    21  H    0.232197
    22  H    0.226656
    23  H    0.277407
    24  H    0.269407
    25  H    0.219546
    26  N    0.488456
    27  O   -0.462756
    28  O   -0.458042
 Sum of Mulliken charges =  -0.00000

 Dipole moment (field-independent basis, Debye):
    X=              0.7849    Y=              0.4064    Z=              0.9964  Tot=              1.3320
 Quadrupole moment (field-independent basis, Debye-Ang):
   XX=           -135.2079   YY=           -101.9086   ZZ=           -106.3407
   XY=             40.6658   XZ=             -0.6917   YZ=             -0.1204

 Normal termination of Gaussian 16 at Thu May  6 11:30:57 2021.
