 Gaussian 16, Revision A.03,
 Gaussian 16:  EM64L-G16RevA.03 25-Dec-2016

 -------------
 #p 6-31g* mp2
 -------------

 ------------------------------------------------------
 Input file generated by CHIRIPA (05-May-2021 14:51:08)
 ------------------------------------------------------
 Symbolic Z-matrix:
 Charge =  0 Multiplicity = 1

                         Standard orientation:
 ---------------------------------------------------------------------
 Center     Atomic      Atomic             Coordinates (Angstroms)
 Number     Number       Type             X           Y           Z
 ---------------------------------------------------------------------
      1          6           0        2.272085    1.578254    0.177858
      2          6           0        0.866925    1.947167    0.654738
      3          6           0        0.770844    3.390293    1.150673
      4          1           0        2.983911    1.733025    1.000229
      5          1           0        2.570441    2.264187   -0.627049
      6          1           0        0.570759    1.259870    1.457562
      7          1           0        0.158333    1.791317   -0.168805
      8          1           0        1.040504    4.090405    0.353348
      9          1           0        1.455274    3.555939    1.988955
     10          1           0       -0.242142    3.632701    1.486765
     11          6           0        2.384076    0.138679   -0.320951
     12          6           0        3.789236   -0.230234   -0.797831
     13          6           0        3.885317   -1.673360   -1.293765
     14          1           0        2.085720   -0.547254    0.483956
     15          1           0        1.672250   -0.016092   -1.143321
     16          1           0        4.497828   -0.074384    0.025713
     17          1           0        4.085401    0.457062   -1.600654
     18          1           0        3.200887   -1.839006   -2.132048
     19          1           0        3.615656   -2.373472   -0.496440
     20          1           0        4.898303   -1.915768   -1.629857
     21          6           0       -2.670076   -0.175606    0.058387
     22          6           0       -3.603765    0.011985   -1.137866
     23          6           0       -4.280525    1.382983   -1.150262
     24          1           0       -3.241696   -0.038874    0.986557
     25          1           0       -1.904255    0.612242    0.043998
     26          1           0       -4.366771   -0.776803   -1.121997
     27          1           0       -3.029896   -0.125399   -2.063293
     28          1           0       -3.532567    2.181462   -1.190144
     29          1           0       -4.877037    1.526357   -0.243500
     30          1           0       -4.943449    1.495667   -2.013798
     31          6           0       -1.986084   -1.541326    0.084706
     32          6           0       -1.052396   -1.728917    1.280958
     33          6           0       -0.375636   -3.099916    1.293355
     34          1           0       -2.751906   -2.329175    0.099095
     35          1           0       -1.414464   -1.678058   -0.843464
     36          1           0       -1.626265   -1.591534    2.206385
     37          1           0       -0.289390   -0.940129    1.265090
     38          1           0        0.220876   -3.243289    0.386592
     39          1           0       -1.123594   -3.898395    1.333236
     40          1           0        0.287288   -3.212600    2.156890
 ---------------------------------------------------------------------

 SCF Done:  E(RHF) =  -470.732115625     A.U. after   11 cycles
 E2 =    -0.1585306981D+01 EUMP2 =    -0.47231742260696D+03

 The electronic state is 1-A.
 Alpha  occ. eigenvalues --  -11.21680 -11.21664 -11.21554 -11.21489 -11.21465
 Alpha  occ. eigenvalues --  -11.21430 -11.21308 -11.21234 -11.21135 -11.21119
 Alpha  occ. eigenvalues --  -11.21051 -11.21020  -1.08543  -1.08335  -1.03608
 Alpha  occ. eigenvalues --   -1.03471  -0.96054  -0.95920  -0.87068  -0.86940
 Alpha  occ. eigenvalues --   -0.79717  -0.79545  -0.78508  -0.78003  -0.65177
 Alpha  occ. eigenvalues --   -0.64990  -0.61047  -0.60845  -0.59434  -0.59287
 Alpha  occ. eigenvalues --   -0.57710  -0.57494  -0.55339  -0.55213  -0.52755
 Alpha  occ. eigenvalues --   -0.52621  -0.52471  -0.52354  -0.50025  -0.49852
 Alpha  occ. eigenvalues --   -0.48107  -0.47925  -0.46888  -0.46598  -0.46274
 Alpha  occ. eigenvalues --   -0.45678  -0.45648  -0.44922  -0.43847  -0.43707
 Alpha virt. eigenvalues --    0.20749   0.22426   0.23675   0.23986   0.25705
 Alpha virt. eigenvalues --    0.26232   0.27131   0.27473   0.28377   0.29753
 Alpha virt. eigenvalues --    0.30755   0.31476   0.31862   0.32024   0.32158

 Mulliken charges:
               1
     1  C   -0.297572
     2  C   -0.308306
     3  C   -0.475530
     4  H    0.149869
     5  H    0.149699
     6  H    0.157153
     7  H    0.154549
     8  H    0.155225
     9  H    0.155568
    10  H    0.161096
    11  C   -0.303150
    12  C   -0.299375
    13  C   -0.476335
    14  H    0.154343
    15  H    0.149052
    16  H    0.152238
    17  H    0.152145
    18  H    0.154890
    19  H    0.156061
    20  H    0.160644
    21  C   -0.307188
    22  C   -0.299164
    23  C   -0.475504
    24  H    0.148840
    25  H    0.159332
    26  H    0.151798
    27  H    0.151043
    28  H    0.154442
    29  H    0.155201
    30  H    0.160082
    31  C   -0.297123
    32  C   -0.310302
    33  C   -0.476161
    34  H    0.149024
    35  H    0.149053
    36  H    0.150705
    37  H    0.163659
    38  H    0.156143
    39  H    0.155097
    40  H    0.158757
 Sum of Mulliken charges =  -0.00000

 Dipole moment (field-independent basis, Debye):
    X=              0.0682    Y=              0.0469    Z=              0.0134  Tot=              0.0839
 Quadrupole moment (field-independent basis, Debye-Ang):
   XX=            -84.5681   YY=            -86.5562   ZZ=            -83.7923
   XY=              0.9458   XZ=             -0.1856   YZ=             -0.6736

 Normal termination of Gaussian 16 at Thu May  6 11:33:29 2021.
