 Gaussian 16, Revision A.03,
 Gaussian 16:  EM64L-G16RevA.03 25-Dec-2016

 -------------
 #p 6-31g* mp2
 -------------

 ------------------------------------------------------
 Input file generated by CHIRIPA (05-May-2021 14:57:23)
 ------------------------------------------------------
 Symbolic Z-matrix:
 Charge =  0 Multiplicity = 1

                         Standard orientation:
 ---------------------------------------------------------------------
 Center     Atomic      Atomic             Coordinates (Angstroms)
 Number     Number       Type             X           Y           Z
 ---------------------------------------------------------------------
      1          6           0       -4.391360    0.215731   -1.996840
      2          6           0       -3.625571    1.283609   -1.517545
      3          6           0       -2.888431    1.154960   -0.336604
      4          6           0       -2.940190   -0.061217    0.342753
      5          6           0       -3.693671   -1.143474   -0.109216
      6          6           0       -4.422910   -0.992273   -1.292388
      7          1           0       -4.960919    0.324428   -2.915090
      8          1           0       -3.599188    2.222927   -2.062550
      9          1           0       -2.287206    1.965525    0.057009
     10          1           0       -3.700163   -2.067540    0.456007
     11          1           0       -5.016754   -1.823294   -1.662251
     12          7           0       -2.163995   -0.209349    1.594143
     13          8           0       -2.226318   -1.291180    2.174138
     14          8           0       -1.507988    0.759180    1.971293
     15          6           0        3.596569   -2.392818   -0.565001
     16          6           0        2.443348   -2.041855    0.144525
     17          6           0        2.140565   -0.698841    0.387800
     18          6           0        3.017028    0.271690   -0.095083
     19          6           0        4.173730   -0.046219   -0.805198
     20          6           0        4.456563   -1.395638   -1.036766
     21          1           0        3.824030   -3.438591   -0.749436
     22          1           0        1.773650   -2.814153    0.512092
     23          1           0        1.254592   -0.399110    0.934271
     24          1           0        4.822190    0.746045   -1.159083
     25          1           0        5.352884   -1.665262   -1.588089
     26          7           0        2.707045    1.696869    0.156264
     27          8           0        3.495359    2.532995   -0.279731
     28          8           0        1.681636    1.950811    0.784505
 ---------------------------------------------------------------------

 SCF Done:  E(RHF) =  -868.338450064     A.U. after   16 cycles
 E2 =    -0.2599699175D+01 EUMP2 =    -0.87093814923921D+03

 The electronic state is 1-A.
 Alpha  occ. eigenvalues --  -20.60914 -20.60797 -20.60192 -20.60144 -15.85869
 Alpha  occ. eigenvalues --  -15.85218 -11.31147 -11.30617 -11.27768 -11.27623
 Alpha  occ. eigenvalues --  -11.27463 -11.27253 -11.27083 -11.26994 -11.26749
 Alpha  occ. eigenvalues --  -11.26659 -11.26283 -11.26176  -1.59940  -1.59259
 Alpha  occ. eigenvalues --   -1.39478  -1.38801  -1.19323  -1.18808  -1.08744
 Alpha  occ. eigenvalues --   -1.08210  -1.04701  -1.04204  -0.95582  -0.95028
 Alpha  occ. eigenvalues --   -0.86105  -0.85604  -0.82400  -0.81841  -0.77459
 Alpha  occ. eigenvalues --   -0.76870  -0.72070  -0.71453  -0.71244  -0.70593
 Alpha  occ. eigenvalues --   -0.70421  -0.69909  -0.64968  -0.64700  -0.64453
 Alpha  occ. eigenvalues --   -0.64204  -0.62032  -0.61524  -0.55220  -0.54734
 Alpha  occ. eigenvalues --   -0.53055  -0.52783  -0.52558  -0.52285  -0.48866
 Alpha  occ. eigenvalues --   -0.48835  -0.48222  -0.48172  -0.44873  -0.44201
 Alpha  occ. eigenvalues --   -0.37320  -0.36824  -0.36304  -0.35818
 Alpha virt. eigenvalues --    0.05017   0.05628   0.11348   0.11829   0.16506
 Alpha virt. eigenvalues --    0.17101   0.21490   0.21985   0.27445   0.27815
 Alpha virt. eigenvalues --    0.28358   0.28867   0.31003   0.31528   0.32588

 Mulliken charges:
               1
     1  C   -0.170538
     2  C   -0.219300
     3  C   -0.170892
     4  C    0.154998
     5  C   -0.172426
     6  C   -0.219112
     7  H    0.225575
     8  H    0.225925
     9  H    0.285999
    10  H    0.273103
    11  H    0.222270
    12  N    0.483307
    13  O   -0.467080
    14  O   -0.448275
    15  C   -0.171272
    16  C   -0.220723
    17  C   -0.176990
    18  C    0.156170
    19  C   -0.171787
    20  C   -0.219345
    21  H    0.223411
    22  H    0.226487
    23  H    0.288826
    24  H    0.273443
    25  H    0.220881
    26  N    0.486148
    27  O   -0.465723
    28  O   -0.453080
 Sum of Mulliken charges =  -0.00000

 Dipole moment (field-independent basis, Debye):
    X=             -1.8384    Y=             -4.2915    Z=             -5.1894  Tot=              6.9804
 Quadrupole moment (field-independent basis, Debye-Ang):
   XX=            -80.0311   YY=           -103.5797   ZZ=           -107.7775
   XY=            -13.8600   XZ=              7.3281   YZ=             -0.4220

 Normal termination of Gaussian 16 at Thu May  6 03:24:58 2021.
