 Gaussian 16, Revision A.03,
 Gaussian 16:  EM64L-G16RevA.03 25-Dec-2016

 -------------
 #p 6-31g* mp2
 -------------

 ------------------------------------------------------
 Input file generated by CHIRIPA (05-May-2021 14:51:11)
 ------------------------------------------------------
 Symbolic Z-matrix:
 Charge =  0 Multiplicity = 1

                         Standard orientation:
 ---------------------------------------------------------------------
 Center     Atomic      Atomic             Coordinates (Angstroms)
 Number     Number       Type             X           Y           Z
 ---------------------------------------------------------------------
      1          6           0       -3.506218    0.621365    0.305288
      2          6           0       -4.173164    0.938062   -1.033694
      3          6           0       -4.904585    2.280735   -1.026867
      4          1           0       -4.268483    0.621266    1.096425
      5          1           0       -2.798334    1.424322    0.553392
      6          1           0       -4.878565    0.134057   -1.279866
      7          1           0       -3.409253    0.937219   -1.821764
      8          1           0       -4.209286    3.097069   -0.806052
      9          1           0       -5.686945    2.289343   -0.261075
     10          1           0       -5.374002    2.487109   -1.993779
     11          6           0       -2.770983   -0.717694    0.314159
     12          6           0       -2.104037   -1.034391    1.653140
     13          6           0       -1.372616   -2.377064    1.646314
     14          1           0       -3.478868   -1.520650    0.066055
     15          1           0       -2.008719   -0.717594   -0.476978
     16          1           0       -2.867948   -1.033548    2.441211
     17          1           0       -1.398637   -0.230386    1.899312
     18          1           0       -0.590256   -2.385672    0.880521
     19          1           0       -2.067916   -3.193398    1.425498
     20          1           0       -0.903200   -2.583438    2.613225
     21          6           0        3.214553    0.545472    0.265036
     22          6           0        4.096077    1.745183   -0.083668
     23          6           0        4.238448    2.731141    1.076250
     24          1           0        2.221101    0.904071    0.567366
     25          1           0        3.638946    0.028572    1.136873
     26          1           0        3.670908    2.258859   -0.955440
     27          1           0        5.087487    1.383676   -0.385388
     28          1           0        4.683804    2.239575    1.947239
     29          1           0        3.259177    3.119732    1.373949
     30          1           0        4.872580    3.581009    0.805211
     31          6           0        3.062648   -0.449143   -0.884483
     32          6           0        2.181124   -1.648855   -0.535778
     33          6           0        2.038752   -2.634812   -1.695696
     34          1           0        2.638255    0.067757   -1.756320
     35          1           0        4.056100   -0.807743   -1.186813
     36          1           0        1.189715   -1.287347   -0.234058
     37          1           0        2.606293   -2.162530    0.335993
     38          1           0        3.018024   -3.023402   -1.993396
     39          1           0        1.593398   -2.143246   -2.566686
     40          1           0        1.404621   -3.484680   -1.424658
 ---------------------------------------------------------------------

 SCF Done:  E(RHF) =  -470.733231272     A.U. after   11 cycles
 E2 =    -0.1582860719D+01 EUMP2 =    -0.47231609199021D+03

 The electronic state is 1-A.
 Alpha  occ. eigenvalues --  -11.21641 -11.21633 -11.21622 -11.21602 -11.21445
 Alpha  occ. eigenvalues --  -11.21426 -11.21385 -11.21367 -11.21110 -11.21098
 Alpha  occ. eigenvalues --  -11.21089 -11.21003  -1.08477  -1.08440  -1.03586
 Alpha  occ. eigenvalues --   -1.03518  -0.96026  -0.95970  -0.87034  -0.86993
 Alpha  occ. eigenvalues --   -0.79682  -0.79554  -0.78308  -0.78236  -0.65180
 Alpha  occ. eigenvalues --   -0.65012  -0.61102  -0.60824  -0.59401  -0.59332
 Alpha  occ. eigenvalues --   -0.57694  -0.57532  -0.55343  -0.55224  -0.52711
 Alpha  occ. eigenvalues --   -0.52668  -0.52442  -0.52399  -0.50020  -0.49882
 Alpha  occ. eigenvalues --   -0.48039  -0.47840  -0.46794  -0.46512  -0.45917
 Alpha  occ. eigenvalues --   -0.45776  -0.45747  -0.45564  -0.43821  -0.43790
 Alpha virt. eigenvalues --    0.20557   0.23274   0.23459   0.24697   0.26119
 Alpha virt. eigenvalues --    0.26639   0.27021   0.27605   0.28202   0.28826
 Alpha virt. eigenvalues --    0.30681   0.31183   0.31662   0.31778   0.32071

 Mulliken charges:
               1
     1  C   -0.298209
     2  C   -0.299628
     3  C   -0.475706
     4  H    0.149888
     5  H    0.149187
     6  H    0.152082
     7  H    0.151730
     8  H    0.155091
     9  H    0.155280
    10  H    0.160315
    11  C   -0.299135
    12  C   -0.299588
    13  C   -0.482366
    14  H    0.149881
    15  H    0.149278
    16  H    0.152111
    17  H    0.151476
    18  H    0.163040
    19  H    0.154698
    20  H    0.160193
    21  C   -0.298232
    22  C   -0.299689
    23  C   -0.475708
    24  H    0.149060
    25  H    0.149859
    26  H    0.151875
    27  H    0.152117
    28  H    0.155317
    29  H    0.155062
    30  H    0.160381
    31  C   -0.297741
    32  C   -0.304525
    33  C   -0.477033
    34  H    0.149300
    35  H    0.149921
    36  H    0.155332
    37  H    0.152822
    38  H    0.155725
    39  H    0.155082
    40  H    0.161455
 Sum of Mulliken charges =  -0.00000

 Dipole moment (field-independent basis, Debye):
    X=              0.0229    Y=             -0.0130    Z=             -0.0037  Tot=              0.0266
 Quadrupole moment (field-independent basis, Debye-Ang):
   XX=            -83.6432   YY=            -85.8330   ZZ=            -85.1839
   XY=              0.3110   XZ=             -0.2120   YZ=             -0.7549

 Normal termination of Gaussian 16 at Thu May  6 07:00:32 2021.
