 Gaussian 16, Revision A.03,
 Gaussian 16:  EM64L-G16RevA.03 25-Dec-2016

 -------------
 #p 6-31g* mp2
 -------------

 ------------------------------------------------------
 Input file generated by CHIRIPA (05-May-2021 14:51:09)
 ------------------------------------------------------
 Symbolic Z-matrix:
 Charge =  0 Multiplicity = 1

                         Standard orientation:
 ---------------------------------------------------------------------
 Center     Atomic      Atomic             Coordinates (Angstroms)
 Number     Number       Type             X           Y           Z
 ---------------------------------------------------------------------
      1          6           0       -3.322435   -0.433662   -0.573390
      2          6           0       -4.153397   -1.588594   -0.013374
      3          6           0       -3.862888   -2.918165   -0.710251
      4          1           0       -3.520307   -0.336101   -1.649621
      5          1           0       -2.255472   -0.676150   -0.472472
      6          1           0       -5.218459   -1.343398   -0.114057
      7          1           0       -3.953669   -1.683294    1.061688
      8          1           0       -2.808074   -3.189255   -0.598545
      9          1           0       -4.080051   -2.847427   -1.780969
     10          1           0       -4.467700   -3.729996   -0.294326
     11          6           0       -3.601642    0.902170    0.113140
     12          6           0       -2.770679    2.057102   -0.446877
     13          6           0       -3.061188    3.386673    0.250001
     14          1           0       -4.668605    1.144659    0.012221
     15          1           0       -3.403770    0.804609    1.189371
     16          1           0       -2.970408    2.151803   -1.521938
     17          1           0       -1.705617    1.811906   -0.346194
     18          1           0       -2.844025    3.315935    1.320719
     19          1           0       -4.116002    3.657763    0.138294
     20          1           0       -2.456376    4.198504   -0.165925
     21          6           0        4.211230   -0.382729    0.220194
     22          6           0        4.991621    0.500762   -0.753673
     23          6           0        6.489039    0.191795   -0.762193
     24          1           0        4.619751   -0.252275    1.231647
     25          1           0        4.367481   -1.437196   -0.046416
     26          1           0        4.832832    1.553299   -0.486151
     27          1           0        4.581070    0.368334   -1.762894
     28          1           0        6.665924   -0.849392   -1.050710
     29          1           0        6.919115    0.342306    0.233288
     30          1           0        7.027650    0.834841   -1.465223
     31          6           0        2.712847   -0.085779    0.240056
     32          6           0        1.932455   -0.969270    1.213924
     33          6           0        0.435037   -0.660304    1.222444
     34          1           0        2.556595    0.968687    0.506666
     35          1           0        2.304326   -0.216234   -0.771396
     36          1           0        2.343006   -0.836842    2.223145
     37          1           0        2.091245   -2.021808    0.946402
     38          1           0        0.004961   -0.810815    0.226962
     39          1           0        0.258153    0.380883    1.510961
     40          1           0       -0.103572   -1.303350    1.925474
 ---------------------------------------------------------------------

 SCF Done:  E(RHF) =  -470.733195027     A.U. after   11 cycles
 E2 =    -0.1583060791D+01 EUMP2 =    -0.47231625581806D+03

 The electronic state is 1-A.
 Alpha  occ. eigenvalues --  -11.21684 -11.21631 -11.21531 -11.21516 -11.21458
 Alpha  occ. eigenvalues --  -11.21396 -11.21302 -11.21233 -11.21194 -11.21094
 Alpha  occ. eigenvalues --  -11.21028 -11.21021  -1.08488  -1.08343  -1.03595
 Alpha  occ. eigenvalues --   -1.03461  -0.96055  -0.95906  -0.87073  -0.86927
 Alpha  occ. eigenvalues --   -0.79669  -0.79521  -0.78312  -0.78142  -0.65131
 Alpha  occ. eigenvalues --   -0.64971  -0.61027  -0.60831  -0.59413  -0.59279
 Alpha  occ. eigenvalues --   -0.57671  -0.57515  -0.55409  -0.55146  -0.52746
 Alpha  occ. eigenvalues --   -0.52625  -0.52486  -0.52323  -0.50087  -0.49778
 Alpha  occ. eigenvalues --   -0.48016  -0.47844  -0.46763  -0.46508  -0.45949
 Alpha  occ. eigenvalues --   -0.45765  -0.45682  -0.45375  -0.43844  -0.43707
 Alpha virt. eigenvalues --    0.20983   0.22964   0.24057   0.24376   0.25581
 Alpha virt. eigenvalues --    0.26602   0.27135   0.27659   0.27953   0.29519
 Alpha virt. eigenvalues --    0.30476   0.31343   0.31744   0.32058   0.32180

 Mulliken charges:
               1
     1  C   -0.306216
     2  C   -0.299009
     3  C   -0.475796
     4  H    0.148632
     5  H    0.158566
     6  H    0.151567
     7  H    0.151850
     8  H    0.154861
     9  H    0.154914
    10  H    0.160000
    11  C   -0.297305
    12  C   -0.302160
    13  C   -0.475639
    14  H    0.148952
    15  H    0.149929
    16  H    0.151396
    17  H    0.154561
    18  H    0.154836
    19  H    0.155046
    20  H    0.159858
    21  C   -0.298342
    22  C   -0.299730
    23  C   -0.475750
    24  H    0.149763
    25  H    0.149669
    26  H    0.152023
    27  H    0.152094
    28  H    0.155245
    29  H    0.155216
    30  H    0.160393
    31  C   -0.298625
    32  C   -0.299698
    33  C   -0.481099
    34  H    0.149611
    35  H    0.149969
    36  H    0.152276
    37  H    0.152293
    38  H    0.158944
    39  H    0.156413
    40  H    0.160490
 Sum of Mulliken charges =  -0.00000

 Dipole moment (field-independent basis, Debye):
    X=              0.0603    Y=             -0.0110    Z=              0.0133  Tot=              0.0627
 Quadrupole moment (field-independent basis, Debye-Ang):
   XX=            -85.5935   YY=            -85.4403   ZZ=            -83.9429
   XY=              0.1822   XZ=              0.7497   YZ=             -0.0548

 Normal termination of Gaussian 16 at Wed May  5 18:08:37 2021.
