 Gaussian 16, Revision A.03,
 Gaussian 16:  EM64L-G16RevA.03 25-Dec-2016

 -------------
 #p 6-31g* mp2
 -------------

 ------------------------------------------------------
 Input file generated by CHIRIPA (05-May-2021 14:55:21)
 ------------------------------------------------------
 Symbolic Z-matrix:
 Charge =  0 Multiplicity = 1

                         Standard orientation:
 ---------------------------------------------------------------------
 Center     Atomic      Atomic             Coordinates (Angstroms)
 Number     Number       Type             X           Y           Z
 ---------------------------------------------------------------------
      1          6           0        0.898813   -1.405608   -0.685598
      2          6           0        0.750594   -0.095519   -0.218458
      3          6           0        1.871425    0.669365    0.118050
      4          6           0        3.131210    0.090019   -0.025450
      5          6           0        3.311505   -1.212546   -0.488167
      6          6           0        2.176543   -1.958964   -0.818727
      7          1           0        0.022636   -1.992616   -0.944694
      8          1           0       -0.240483    0.336817   -0.114064
      9          1           0        1.785462    1.685981    0.482080
     10          1           0        4.312372   -1.616210   -0.581650
     11          1           0        2.294670   -2.976146   -1.181263
     12          7           0        4.325264    0.889993    0.327647
     13          8           0        5.424234    0.356532    0.192290
     14          8           0        4.139584    2.035326    0.733077
     15          6           0       -3.502069    0.757367   -0.046395
     16          6           0       -4.619146    1.796601   -0.146967
     17          6           0       -4.095261    3.199752   -0.454385
     18          1           0       -2.793103    1.064847    0.734481
     19          1           0       -2.939763    0.741177   -0.990294
     20          1           0       -5.180043    1.809846    0.796344
     21          1           0       -5.325637    1.486512   -0.927564
     22          1           0       -3.552948    3.208697   -1.405394
     23          1           0       -3.406525    3.533868    0.328309
     24          1           0       -4.910534    3.926822   -0.521898
     25          6           0       -4.010034   -0.650291    0.260524
     26          6           0       -2.892957   -1.689525    0.361096
     27          6           0       -3.416843   -3.092676    0.668514
     28          1           0       -4.572340   -0.634102    1.204423
     29          1           0       -4.719000   -0.957772   -0.520353
     30          1           0       -2.186466   -1.379437    1.141693
     31          1           0       -2.332061   -1.702770   -0.582215
     32          1           0       -4.105579   -3.426792   -0.114180
     33          1           0       -3.959156   -3.101622    1.619523
     34          1           0       -2.601569   -3.819747    0.736027
 ---------------------------------------------------------------------

 SCF Done:  E(RHF) =  -669.535360996     A.U. after   15 cycles
 E2 =    -0.2092451731D+01 EUMP2 =    -0.67162781272694D+03

 The electronic state is 1-A.
 Alpha  occ. eigenvalues --  -20.60676 -20.60671 -15.85728 -11.31064 -11.27635
 Alpha  occ. eigenvalues --  -11.27616 -11.27311 -11.26637 -11.26560 -11.22923
 Alpha  occ. eigenvalues --  -11.22546 -11.22450 -11.22420 -11.22137 -11.21758
 Alpha  occ. eigenvalues --   -1.59753  -1.39307  -1.19227  -1.09522  -1.08621
 Alpha  occ. eigenvalues --   -1.04628  -1.04536  -0.96956  -0.95467  -0.87971
 Alpha  occ. eigenvalues --   -0.86025  -0.82305  -0.80644  -0.79383  -0.77346
 Alpha  occ. eigenvalues --   -0.71946  -0.71076  -0.70344  -0.66134  -0.64874
 Alpha  occ. eigenvalues --   -0.64625  -0.61979  -0.61926  -0.60347  -0.58600
 Alpha  occ. eigenvalues --   -0.56224  -0.55117  -0.53640  -0.53387  -0.52959
 Alpha  occ. eigenvalues --   -0.52702  -0.50887  -0.48921  -0.48706  -0.48702
 Alpha  occ. eigenvalues --   -0.47659  -0.46835  -0.46789  -0.44806  -0.44719
 Alpha  occ. eigenvalues --   -0.37195  -0.36232
 Alpha virt. eigenvalues --    0.05170   0.11358   0.16662   0.19695   0.22435
 Alpha virt. eigenvalues --    0.22989   0.24650   0.25210   0.26421   0.28394
 Alpha virt. eigenvalues --    0.29165   0.30611   0.30741   0.31126   0.31769

 Mulliken charges:
               1
     1  C   -0.175658
     2  C   -0.227413
     3  C   -0.172790
     4  C    0.158528
     5  C   -0.171222
     6  C   -0.219102
     7  H    0.231359
     8  H    0.233795
     9  H    0.275279
    10  H    0.274976
    11  H    0.222869
    12  N    0.488071
    13  O   -0.460875
    14  O   -0.460805
    15  C   -0.304690
    16  C   -0.299726
    17  C   -0.477075
    18  H    0.147991
    19  H    0.147500
    20  H    0.155071
    21  H    0.154609
    22  H    0.155785
    23  H    0.155712
    24  H    0.164168
    25  C   -0.296968
    26  C   -0.308400
    27  C   -0.476228
    28  H    0.154546
    29  H    0.153273
    30  H    0.155343
    31  H    0.143421
    32  H    0.158212
    33  H    0.160673
    34  H    0.159774
 Sum of Mulliken charges =  -0.00000

 Dipole moment (field-independent basis, Debye):
    X=             -4.5634    Y=             -2.8024    Z=             -1.1823  Tot=              5.4842
 Quadrupole moment (field-independent basis, Debye-Ang):
   XX=           -118.6512   YY=            -93.2951   ZZ=            -94.1980
   XY=            -12.1411   XZ=             -4.7179   YZ=              1.3703

 Normal termination of Gaussian 16 at Wed May  5 20:34:36 2021.
