 Gaussian 16, Revision A.03,
 Gaussian 16:  EM64L-G16RevA.03 25-Dec-2016

 -------------
 #p 6-31g* mp2
 -------------

 ------------------------------------------------------
 Input file generated by CHIRIPA (05-May-2021 14:53:18)
 ------------------------------------------------------
 Symbolic Z-matrix:
 Charge =  0 Multiplicity = 1

                         Standard orientation:
 ---------------------------------------------------------------------
 Center     Atomic      Atomic             Coordinates (Angstroms)
 Number     Number       Type             X           Y           Z
 ---------------------------------------------------------------------
      1          6           0        3.341781    0.731210    0.235429
      2          6           0        3.823803    2.038494   -0.394373
      3          6           0        3.355667    3.273586    0.375815
      4          1           0        2.244391    0.739037    0.286597
      5          1           0        3.702635    0.676732    1.271871
      6          1           0        3.463309    2.089849   -1.429758
      7          1           0        4.920165    2.027473   -0.444223
      8          1           0        3.727345    3.249384    1.405315
      9          1           0        2.262212    3.312115    0.414180
     10          1           0        3.711479    4.196989   -0.091716
     11          6           0        3.801728   -0.512440   -0.523195
     12          6           0        3.319707   -1.819723    0.106608
     13          6           0        3.787843   -3.054816   -0.663580
     14          1           0        3.440875   -0.457962   -1.559636
     15          1           0        4.899119   -0.520267   -0.574362
     16          1           0        2.223345   -1.808702    0.156457
     17          1           0        3.680201   -1.871079    1.141993
     18          1           0        4.881298   -3.093345   -0.701945
     19          1           0        3.416165   -3.030614   -1.693080
     20          1           0        3.432031   -3.978219   -0.196049
     21          6           0       -0.563783   -0.527326    1.213637
     22          6           0       -1.740000   -0.574564    1.969153
     23          6           0       -2.979288   -0.331413    1.369492
     24          6           0       -3.005698   -0.042739    0.005946
     25          6           0       -1.851306    0.011610   -0.773615
     26          6           0       -0.623086   -0.234906   -0.152926
     27          1           0        0.394626   -0.717519    1.687635
     28          1           0       -1.696968   -0.801414    3.030629
     29          1           0       -3.905318   -0.361554    1.930721
     30          1           0       -1.926045    0.240349   -1.829792
     31          1           0        0.288761   -0.197547   -0.742150
     32          7           0       -4.311817    0.216455   -0.640019
     33          8           0       -4.308201    0.468579   -1.842956
     34          8           0       -5.314439    0.162579    0.068843
 ---------------------------------------------------------------------

 SCF Done:  E(RHF) =  -669.534932102     A.U. after   15 cycles
 E2 =    -0.2093108518D+01 EUMP2 =    -0.67162804061996D+03

 The electronic state is 1-A.
 Alpha  occ. eigenvalues --  -20.60762 -20.60757 -15.85816 -11.31186 -11.27760
 Alpha  occ. eigenvalues --  -11.27755 -11.27454 -11.26752 -11.26739 -11.22780
 Alpha  occ. eigenvalues --  -11.22529 -11.22454 -11.22428 -11.21957 -11.21748
 Alpha  occ. eigenvalues --   -1.59837  -1.39391  -1.19358  -1.09503  -1.08744
 Alpha  occ. eigenvalues --   -1.04763  -1.04469  -0.96897  -0.95583  -0.87907
 Alpha  occ. eigenvalues --   -0.86171  -0.82415  -0.80558  -0.79345  -0.77466
 Alpha  occ. eigenvalues --   -0.72035  -0.71161  -0.70462  -0.66289  -0.64999
 Alpha  occ. eigenvalues --   -0.64662  -0.62108  -0.61867  -0.60267  -0.58514
 Alpha  occ. eigenvalues --   -0.56187  -0.55248  -0.53551  -0.53336  -0.53068
 Alpha  occ. eigenvalues --   -0.52848  -0.50842  -0.48856  -0.48795  -0.48788
 Alpha  occ. eigenvalues --   -0.47610  -0.46807  -0.46758  -0.44796  -0.44751
 Alpha  occ. eigenvalues --   -0.37314  -0.36362
 Alpha virt. eigenvalues --    0.05058   0.11113   0.16545   0.19073   0.22580
 Alpha virt. eigenvalues --    0.23548   0.25127   0.25326   0.26895   0.28082
 Alpha virt. eigenvalues --    0.29973   0.30524   0.30969   0.31267   0.31957

 Mulliken charges:
               1
     1  C   -0.306455
     2  C   -0.299615
     3  C   -0.476951
     4  H    0.144673
     5  H    0.151415
     6  H    0.152604
     7  H    0.155382
     8  H    0.155847
     9  H    0.156613
    10  H    0.163912
    11  C   -0.299629
    12  C   -0.306333
    13  C   -0.475466
    14  H    0.149095
    15  H    0.155546
    16  H    0.146043
    17  H    0.153361
    18  H    0.158759
    19  H    0.157125
    20  H    0.163060
    21  C   -0.173249
    22  C   -0.219116
    23  C   -0.170682
    24  C    0.158259
    25  C   -0.171503
    26  C   -0.222739
    27  H    0.230570
    28  H    0.223660
    29  H    0.275654
    30  H    0.275610
    31  H    0.227251
    32  N    0.488091
    33  O   -0.460451
    34  O   -0.460343
 Sum of Mulliken charges =  -0.00000

 Dipole moment (field-independent basis, Debye):
    X=              4.8044    Y=             -0.8950    Z=              2.2624  Tot=              5.3853
 Quadrupole moment (field-independent basis, Debye-Ang):
   XX=           -120.2698   YY=            -95.8786   ZZ=            -90.8370
   XY=              3.1485   XZ=             -8.7407   YZ=             -1.2590

 Normal termination of Gaussian 16 at Wed May  5 23:40:08 2021.
