 Gaussian 16, Revision A.03,
 Gaussian 16:  EM64L-G16RevA.03 25-Dec-2016

 -------------
 #p 6-31g* mp2
 -------------

 ------------------------------------------------------
 Input file generated by CHIRIPA (05-May-2021 14:51:14)
 ------------------------------------------------------
 Symbolic Z-matrix:
 Charge =  0 Multiplicity = 1

                         Standard orientation:
 ---------------------------------------------------------------------
 Center     Atomic      Atomic             Coordinates (Angstroms)
 Number     Number       Type             X           Y           Z
 ---------------------------------------------------------------------
      1          6           0       -3.654901   -0.504432   -0.517302
      2          6           0       -3.118536   -1.823810    0.039059
      3          6           0       -3.952957   -3.030137   -0.392580
      4          1           0       -4.694154   -0.370186   -0.187336
      5          1           0       -3.680042   -0.560395   -1.614403
      6          1           0       -3.093113   -1.764868    1.134731
      7          1           0       -2.080377   -1.954839   -0.292111
      8          1           0       -3.968692   -3.117070   -1.483816
      9          1           0       -4.987182   -2.926019   -0.048867
     10          1           0       -3.551825   -3.962750    0.016302
     11          6           0       -2.831301    0.710750   -0.094522
     12          6           0       -3.367667    2.030129   -0.650883
     13          6           0       -2.533246    3.236455   -0.219244
     14          1           0       -2.806160    0.766713    1.002579
     15          1           0       -1.792049    0.576504   -0.424488
     16          1           0       -4.405825    2.161157   -0.319713
     17          1           0       -3.393090    1.971186   -1.746555
     18          1           0       -1.499020    3.132338   -0.562957
     19          1           0       -2.517510    3.323388    0.871992
     20          1           0       -2.934378    4.169069   -0.628126
     21          6           0        2.596492   -0.437731    0.536973
     22          6           0        1.658803    0.508514    1.287538
     23          6           0        0.369524   -0.175424    1.743368
     24          1           0        2.070297   -0.849816   -0.334949
     25          1           0        2.842012   -1.290110    1.185484
     26          1           0        1.416229    1.359552    0.638302
     27          1           0        2.187355    0.918542    2.157668
     28          1           0        0.593362   -1.013113    2.411779
     29          1           0       -0.182146   -0.569596    0.883780
     30          1           0       -0.286118    0.519159    2.277736
     31          6           0        3.889711    0.231413    0.074850
     32          6           0        4.827400   -0.714832   -0.675713
     33          6           0        6.116679   -0.030895   -1.131543
     34          1           0        3.644190    1.083791   -0.573660
     35          1           0        4.415906    0.643497    0.946774
     36          1           0        4.298848   -1.124859   -1.545844
     37          1           0        5.069974   -1.565871   -0.026478
     38          1           0        6.668349    0.363278   -0.271956
     39          1           0        5.892841    0.806795   -1.799955
     40          1           0        6.772320   -0.725477   -1.665912
 ---------------------------------------------------------------------

 SCF Done:  E(RHF) =  -470.732250181     A.U. after   11 cycles
 E2 =    -0.1583820799D+01 EUMP2 =    -0.47231607097969D+03

 The electronic state is 1-A.
 Alpha  occ. eigenvalues --  -11.21598 -11.21592 -11.21583 -11.21550 -11.21393
 Alpha  occ. eigenvalues --  -11.21376 -11.21333 -11.21298 -11.21081 -11.21069
 Alpha  occ. eigenvalues --  -11.21063 -11.20897  -1.08445  -1.08386  -1.03524
 Alpha  occ. eigenvalues --   -1.03491  -0.96008  -0.95905  -0.87011  -0.86939
 Alpha  occ. eigenvalues --   -0.79591  -0.79584  -0.78303  -0.78136  -0.65137
 Alpha  occ. eigenvalues --   -0.64974  -0.60930  -0.60895  -0.59389  -0.59268
 Alpha  occ. eigenvalues --   -0.57597  -0.57546  -0.55338  -0.55174  -0.52732
 Alpha  occ. eigenvalues --   -0.52622  -0.52376  -0.52342  -0.49972  -0.49868
 Alpha  occ. eigenvalues --   -0.47987  -0.47817  -0.46730  -0.46609  -0.45886
 Alpha  occ. eigenvalues --   -0.45718  -0.45700  -0.45320  -0.43779  -0.43714
 Alpha virt. eigenvalues --    0.21209   0.23172   0.23670   0.24136   0.25593
 Alpha virt. eigenvalues --    0.26136   0.26882   0.27533   0.28173   0.29729
 Alpha virt. eigenvalues --    0.30325   0.31101   0.31752   0.31837   0.32303

 Mulliken charges:
               1
     1  C   -0.298449
     2  C   -0.301519
     3  C   -0.475576
     4  H    0.149494
     5  H    0.148908
     6  H    0.153586
     7  H    0.152518
     8  H    0.154933
     9  H    0.155216
    10  H    0.160416
    11  C   -0.300322
    12  C   -0.299456
    13  C   -0.475681
    14  H    0.151613
    15  H    0.152131
    16  H    0.151740
    17  H    0.151457
    18  H    0.154789
    19  H    0.155021
    20  H    0.160320
    21  C   -0.298033
    22  C   -0.300975
    23  C   -0.479655
    24  H    0.148481
    25  H    0.149683
    26  H    0.151371
    27  H    0.151779
    28  H    0.153597
    29  H    0.162446
    30  H    0.160317
    31  C   -0.298182
    32  C   -0.299608
    33  C   -0.475687
    34  H    0.149294
    35  H    0.149781
    36  H    0.151721
    37  H    0.151958
    38  H    0.155227
    39  H    0.155131
    40  H    0.160213
 Sum of Mulliken charges =  -0.00000

 Dipole moment (field-independent basis, Debye):
    X=             -0.0323    Y=             -0.0087    Z=              0.0116  Tot=              0.0354
 Quadrupole moment (field-independent basis, Debye-Ang):
   XX=            -85.5052   YY=            -85.8353   ZZ=            -83.5530
   XY=             -0.9872   XZ=              0.0995   YZ=             -0.2117

 Normal termination of Gaussian 16 at Thu May  6 02:26:03 2021.
