 Gaussian 16, Revision A.03,
 Gaussian 16:  EM64L-G16RevA.03 25-Dec-2016

 -------------
 #p 6-31g* mp2
 -------------

 ------------------------------------------------------
 Input file generated by CHIRIPA (05-May-2021 14:53:13)
 ------------------------------------------------------
 Symbolic Z-matrix:
 Charge =  0 Multiplicity = 1

                         Standard orientation:
 ---------------------------------------------------------------------
 Center     Atomic      Atomic             Coordinates (Angstroms)
 Number     Number       Type             X           Y           Z
 ---------------------------------------------------------------------
      1          6           0        3.817794   -0.044276   -0.122328
      2          6           0        3.507907   -1.331081   -0.887891
      3          6           0        4.724271   -2.248093   -1.019582
      4          1           0        4.629537    0.492005   -0.632643
      5          1           0        4.193680   -0.302168    0.877470
      6          1           0        3.131411   -1.070817   -1.885453
      7          1           0        2.696677   -1.864266   -0.375802
      8          1           0        5.098008   -2.536533   -0.031795
      9          1           0        5.535212   -1.738576   -1.550023
     10          1           0        4.480323   -3.161992   -1.570162
     11          6           0        2.611684    0.882788    0.017598
     12          6           0        2.921570    2.169594    0.783161
     13          6           0        1.705207    3.086606    0.914852
     14          1           0        2.235798    1.140681   -0.982200
     15          1           0        1.799940    0.346508    0.527912
     16          1           0        3.732801    2.702778    0.271072
     17          1           0        3.298067    1.909330    1.780723
     18          1           0        0.894266    2.577089    1.445293
     19          1           0        1.331470    3.375046   -0.072936
     20          1           0        1.949154    4.000505    1.465432
     21          6           0       -1.563453   -2.377961    1.164695
     22          6           0       -0.791594   -1.215972    1.062040
     23          6           0       -1.306647   -0.073990    0.441440
     24          6           0       -2.603170   -0.129317   -0.067733
     25          6           0       -3.396931   -1.271991    0.019042
     26          6           0       -2.861369   -2.402219    0.643787
     27          1           0       -1.155382   -3.260515    1.648401
     28          1           0        0.216697   -1.194252    1.465676
     29          1           0       -0.730930    0.838858    0.348289
     30          1           0       -4.398756   -1.263276   -0.392893
     31          1           0       -3.463092   -3.303243    0.722076
     32          7           0       -3.159289    1.073427   -0.726929
     33          8           0       -4.304305    0.999046   -1.167429
     34          8           0       -2.439628    2.067745   -0.790622
 ---------------------------------------------------------------------

 SCF Done:  E(RHF) =  -669.534871456     A.U. after   15 cycles
 E2 =    -0.2093016811D+01 EUMP2 =    -0.67162788826654D+03

 The electronic state is 1-A.
 Alpha  occ. eigenvalues --  -20.60711 -20.60706 -15.85763 -11.31116 -11.27707
 Alpha  occ. eigenvalues --  -11.27648 -11.27456 -11.26719 -11.26697 -11.22175
 Alpha  occ. eigenvalues --  -11.22102 -11.22025 -11.21953 -11.21553 -11.21350
 Alpha  occ. eigenvalues --   -1.59786  -1.39339  -1.19300  -1.09016  -1.08699
 Alpha  occ. eigenvalues --   -1.04709  -1.04017  -0.96461  -0.95533  -0.87470
 Alpha  occ. eigenvalues --   -0.86105  -0.82382  -0.80077  -0.78889  -0.77385
 Alpha  occ. eigenvalues --   -0.71983  -0.71109  -0.70417  -0.65706  -0.64948
 Alpha  occ. eigenvalues --   -0.64712  -0.62098  -0.61376  -0.59823  -0.58078
 Alpha  occ. eigenvalues --   -0.55763  -0.55217  -0.53117  -0.53051  -0.52933
 Alpha  occ. eigenvalues --   -0.52725  -0.50400  -0.48745  -0.48736  -0.48371
 Alpha  occ. eigenvalues --   -0.47115  -0.46369  -0.46275  -0.44747  -0.44297
 Alpha  occ. eigenvalues --   -0.37287  -0.36292
 Alpha virt. eigenvalues --    0.05107   0.11294   0.16540   0.19426   0.22625
 Alpha virt. eigenvalues --    0.23414   0.25000   0.26294   0.26706   0.28396
 Alpha virt. eigenvalues --    0.30081   0.31066   0.31450   0.31621   0.31871

 Mulliken charges:
               1
     1  C   -0.298585
     2  C   -0.299552
     3  C   -0.476084
     4  H    0.153869
     5  H    0.148377
     6  H    0.156065
     7  H    0.145309
     8  H    0.154416
     9  H    0.157723
    10  H    0.161314
    11  C   -0.304741
    12  C   -0.300151
    13  C   -0.479757
    14  H    0.156891
    15  H    0.139256
    16  H    0.155715
    17  H    0.150785
    18  H    0.149836
    19  H    0.165965
    20  H    0.164643
    21  C   -0.170638
    22  C   -0.223928
    23  C   -0.176876
    24  C    0.157475
    25  C   -0.170154
    26  C   -0.219134
    27  H    0.225343
    28  H    0.225586
    29  H    0.285892
    30  H    0.275375
    31  H    0.223207
    32  N    0.487749
    33  O   -0.460774
    34  O   -0.460420
 Sum of Mulliken charges =  -0.00000

 Dipole moment (field-independent basis, Debye):
    X=              2.1054    Y=             -4.0885    Z=              2.2057  Tot=              5.1004
 Quadrupole moment (field-independent basis, Debye-Ang):
   XX=           -101.6010   YY=            -92.7709   ZZ=            -94.9839
   XY=             14.3099   XZ=             -5.7507   YZ=             -0.1442

 Normal termination of Gaussian 16 at Thu May  6 13:43:15 2021.
