 Gaussian 16, Revision A.03,
 Gaussian 16:  EM64L-G16RevA.03 25-Dec-2016

 -------------
 #p 6-31g* mp2
 -------------

 ------------------------------------------------------
 Input file generated by CHIRIPA (05-May-2021 14:57:25)
 ------------------------------------------------------
 Symbolic Z-matrix:
 Charge =  0 Multiplicity = 1

                         Standard orientation:
 ---------------------------------------------------------------------
 Center     Atomic      Atomic             Coordinates (Angstroms)
 Number     Number       Type             X           Y           Z
 ---------------------------------------------------------------------
      1          6           0       -4.795242   -1.925766    0.788910
      2          6           0       -5.536435   -0.739566    0.779755
      3          6           0       -4.955803    0.457156    0.349324
      4          6           0       -3.625682    0.431284   -0.067090
      5          6           0       -2.861110   -0.734355   -0.069580
      6          6           0       -3.462295   -1.919386    0.364961
      7          1           0       -5.254274   -2.850868    1.124876
      8          1           0       -6.571811   -0.741540    1.108446
      9          1           0       -5.506576    1.389768    0.331990
     10          1           0       -1.831016   -0.700977   -0.403061
     11          1           0       -2.884261   -2.839106    0.370997
     12          7           0       -3.000114    1.692011   -0.524943
     13          8           0       -1.826571    1.642700   -0.886887
     14          8           0       -3.695181    2.705609   -0.513196
     15          6           0        5.721035    0.816982    1.138040
     16          6           0        5.839372    0.333054   -0.168992
     17          6           0        4.742144   -0.245396   -0.814000
     18          6           0        3.536181   -0.324090   -0.119200
     19          6           0        3.386716    0.148988    1.183546
     20          6           0        4.497242    0.723569    1.808954
     21          1           0        6.578553    1.264832    1.631486
     22          1           0        6.788553    0.404270   -0.692469
     23          1           0        4.805908   -0.628040   -1.825403
     24          1           0        2.427533    0.063986    1.679693
     25          1           0        4.402421    1.098554    2.824060
     26          7           0        2.367555   -0.934421   -0.791668
     27          8           0        1.316068   -0.991923   -0.157867
     28          8           0        2.525204   -1.343741   -1.939814
 ---------------------------------------------------------------------

 SCF Done:  E(RHF) =  -868.339525397     A.U. after   16 cycles
 E2 =    -0.2598595222D+01 EUMP2 =    -0.87093812061903D+03

 The electronic state is 1-A.
 Alpha  occ. eigenvalues --  -20.60855 -20.60849 -20.59955 -20.59919 -15.85887
 Alpha  occ. eigenvalues --  -15.84989 -11.31107 -11.30273 -11.27666 -11.27657
 Alpha  occ. eigenvalues --  -11.27399 -11.26947 -11.26677 -11.26667 -11.26661
 Alpha  occ. eigenvalues --  -11.26648 -11.25960 -11.25800  -1.59901  -1.59024
 Alpha  occ. eigenvalues --   -1.39463  -1.38572  -1.19268  -1.18472  -1.08694
 Alpha  occ. eigenvalues --   -1.07903  -1.04656  -1.03846  -0.95554  -0.94731
 Alpha  occ. eigenvalues --   -0.86062  -0.85258  -0.82397  -0.81551  -0.77453
 Alpha  occ. eigenvalues --   -0.76583  -0.72133  -0.71220  -0.71179  -0.70388
 Alpha  occ. eigenvalues --   -0.70351  -0.69580  -0.64933  -0.64667  -0.64123
 Alpha  occ. eigenvalues --   -0.63852  -0.62007  -0.61152  -0.55175  -0.54404
 Alpha  occ. eigenvalues --   -0.52985  -0.52753  -0.52219  -0.51923  -0.48886
 Alpha  occ. eigenvalues --   -0.48854  -0.47985  -0.47947  -0.44890  -0.43996
 Alpha  occ. eigenvalues --   -0.37243  -0.36505  -0.36248  -0.35456
 Alpha virt. eigenvalues --    0.05081   0.05914   0.11409   0.12186   0.16584
 Alpha virt. eigenvalues --    0.17392   0.21508   0.22341   0.27441   0.28162
 Alpha virt. eigenvalues --    0.28443   0.29297   0.31078   0.31836   0.32600

 Mulliken charges:
               1
     1  C   -0.171230
     2  C   -0.219925
     3  C   -0.171861
     4  C    0.155360
     5  C   -0.177690
     6  C   -0.221893
     7  H    0.222379
     8  H    0.219640
     9  H    0.272332
    10  H    0.298611
    11  H    0.226321
    12  N    0.486969
    13  O   -0.455806
    14  O   -0.466114
    15  C   -0.170233
    16  C   -0.218613
    17  C   -0.170111
    18  C    0.159012
    19  C   -0.168717
    20  C   -0.218451
    21  H    0.225667
    22  H    0.223432
    23  H    0.275584
    24  H    0.275621
    25  H    0.223697
    26  N    0.492711
    27  O   -0.467892
    28  O   -0.458801
 Sum of Mulliken charges =  -0.00000

 Dipole moment (field-independent basis, Debye):
    X=              2.3141    Y=             -2.3413    Z=              3.9137  Tot=              5.1141
 Quadrupole moment (field-independent basis, Debye-Ang):
   XX=            -56.4046   YY=           -110.3442   ZZ=           -103.1386
   XY=             19.1776   XZ=             -1.0476   YZ=              1.3555

 Normal termination of Gaussian 16 at Thu May  6 00:23:00 2021.
