 Gaussian 16, Revision A.03,
 Gaussian 16:  EM64L-G16RevA.03 25-Dec-2016

 -------------
 #p 6-31g* mp2
 -------------

 ------------------------------------------------------
 Input file generated by CHIRIPA (05-May-2021 14:51:08)
 ------------------------------------------------------
 Symbolic Z-matrix:
 Charge =  0 Multiplicity = 1

                         Standard orientation:
 ---------------------------------------------------------------------
 Center     Atomic      Atomic             Coordinates (Angstroms)
 Number     Number       Type             X           Y           Z
 ---------------------------------------------------------------------
      1          6           0       -3.136189   -0.356530   -0.104337
      2          6           0       -2.593108   -1.454753    0.810514
      3          6           0       -1.204207   -1.938858    0.392914
      4          1           0       -3.172115   -0.732122   -1.136125
      5          1           0       -2.436255    0.490515   -0.104238
      6          1           0       -3.294543   -2.298912    0.809771
      7          1           0       -2.558651   -1.076568    1.840274
      8          1           0       -0.486452   -1.112369    0.411503
      9          1           0       -1.226526   -2.341659   -0.624856
     10          1           0       -0.835142   -2.723781    1.060407
     11          6           0       -4.523872    0.137780    0.300288
     12          6           0       -5.066954    1.236003   -0.614564
     13          6           0       -6.455855    1.720108   -0.196963
     14          1           0       -5.223807   -0.709265    0.300189
     15          1           0       -4.487946    0.513372    1.332075
     16          1           0       -5.101411    0.857818   -1.644323
     17          1           0       -4.365519    2.080162   -0.613820
     18          1           0       -6.433536    2.122909    0.820806
     19          1           0       -7.173609    0.893619   -0.215552
     20          1           0       -6.824920    2.505031   -0.864456
     21          6           0        3.719070    0.864297   -0.132800
     22          6           0        4.946199    1.677270    0.280978
     23          6           0        4.708631    3.185827    0.206080
     24          1           0        3.431703    1.141298   -1.156341
     25          1           0        2.873031    1.135727    0.513682
     26          1           0        5.790035    1.403380   -0.365196
     27          1           0        5.230794    1.398162    1.303583
     28          1           0        3.884275    3.479131    0.864115
     29          1           0        4.446694    3.484377   -0.814144
     30          1           0        5.598612    3.747779    0.506088
     31          6           0        3.940992   -0.645547   -0.063150
     32          6           0        2.713862   -1.458520   -0.476929
     33          6           0        2.951430   -2.967078   -0.402032
     34          1           0        4.787030   -0.916977   -0.709633
     35          1           0        4.228359   -0.922548    0.960391
     36          1           0        2.429268   -1.179412   -1.499533
     37          1           0        1.870025   -1.184630    0.169245
     38          1           0        3.213367   -3.265628    0.618193
     39          1           0        3.775787   -3.260380   -1.060066
     40          1           0        2.061450   -3.529028   -0.702039
 ---------------------------------------------------------------------

 SCF Done:  E(RHF) =  -470.733115169     A.U. after   11 cycles
 E2 =    -0.1582600390D+01 EUMP2 =    -0.47231571555814D+03

 The electronic state is 1-A.
 Alpha  occ. eigenvalues --  -11.21605 -11.21604 -11.21587 -11.21482 -11.21409
 Alpha  occ. eigenvalues --  -11.21372 -11.21350 -11.21301 -11.21073 -11.21065
 Alpha  occ. eigenvalues --  -11.21062 -11.20986  -1.08436  -1.08385  -1.03547
 Alpha  occ. eigenvalues --   -1.03467  -0.96001  -0.95917  -0.87008  -0.86947
 Alpha  occ. eigenvalues --   -0.79664  -0.79488  -0.78269  -0.78175  -0.65089
 Alpha  occ. eigenvalues --   -0.65001  -0.61012  -0.60814  -0.59368  -0.59288
 Alpha  occ. eigenvalues --   -0.57638  -0.57501  -0.55317  -0.55190  -0.52711
 Alpha  occ. eigenvalues --   -0.52597  -0.52413  -0.52350  -0.50022  -0.49819
 Alpha  occ. eigenvalues --   -0.48043  -0.47752  -0.46759  -0.46451  -0.45859
 Alpha  occ. eigenvalues --   -0.45739  -0.45710  -0.45494  -0.43786  -0.43732
 Alpha virt. eigenvalues --    0.22105   0.23008   0.23586   0.24706   0.25799
 Alpha virt. eigenvalues --    0.26702   0.26981   0.27489   0.27765   0.29015
 Alpha virt. eigenvalues --    0.30546   0.31162   0.31653   0.31793   0.32352

 Mulliken charges:
               1
     1  C   -0.298403
     2  C   -0.300014
     3  C   -0.478606
     4  H    0.149718
     5  H    0.149662
     6  H    0.151860
     7  H    0.151686
     8  H    0.158753
     9  H    0.155323
    10  H    0.160347
    11  C   -0.298270
    12  C   -0.299659
    13  C   -0.475707
    14  H    0.149546
    15  H    0.149579
    16  H    0.151959
    17  H    0.151973
    18  H    0.155162
    19  H    0.155181
    20  H    0.160277
    21  C   -0.298090
    22  C   -0.299562
    23  C   -0.475674
    24  H    0.149628
    25  H    0.148492
    26  H    0.152013
    27  H    0.151895
    28  H    0.154952
    29  H    0.155155
    30  H    0.160220
    31  C   -0.297790
    32  C   -0.305049
    33  C   -0.476142
    34  H    0.149208
    35  H    0.149261
    36  H    0.151280
    37  H    0.159121
    38  H    0.154497
    39  H    0.154534
    40  H    0.161680
 Sum of Mulliken charges =  -0.00000

 Dipole moment (field-independent basis, Debye):
    X=             -0.0235    Y=             -0.0082    Z=             -0.0024  Tot=              0.0250
 Quadrupole moment (field-independent basis, Debye-Ang):
   XX=            -85.6743   YY=            -85.7615   ZZ=            -83.5067
   XY=              0.7905   XZ=              0.1382   YZ=              0.3589

 Normal termination of Gaussian 16 at Thu May  6 08:26:56 2021.
