 Gaussian 16, Revision A.03,
 Gaussian 16:  EM64L-G16RevA.03 25-Dec-2016

 -------------
 #p 6-31g* mp2
 -------------

 ------------------------------------------------------
 Input file generated by CHIRIPA (05-May-2021 14:51:12)
 ------------------------------------------------------
 Symbolic Z-matrix:
 Charge =  0 Multiplicity = 1

                         Standard orientation:
 ---------------------------------------------------------------------
 Center     Atomic      Atomic             Coordinates (Angstroms)
 Number     Number       Type             X           Y           Z
 ---------------------------------------------------------------------
      1          6           0       -2.730649    0.422061   -0.092573
      2          6           0       -3.156079   -0.459937    1.081767
      3          6           0       -4.163867   -1.536499    0.677822
      4          1           0       -3.620853    0.896080   -0.528218
      5          1           0       -2.296965   -0.210838   -0.879182
      6          1           0       -3.587566    0.174593    1.866500
      7          1           0       -2.264737   -0.931761    1.514787
      8          1           0       -3.739504   -2.193409   -0.088328
      9          1           0       -5.069850   -1.080769    0.265383
     10          1           0       -4.454311   -2.155461    1.532449
     11          6           0       -1.723378    1.503071    0.295436
     12          6           0       -1.297948    2.385068   -0.878904
     13          6           0       -0.290160    3.461630   -0.474959
     14          1           0       -2.157062    2.135969    1.082045
     15          1           0       -0.833174    1.029051    0.731081
     16          1           0       -2.189290    2.856893   -1.311924
     17          1           0       -0.866461    1.750538   -1.663637
     18          1           0        0.615823    3.005900   -0.062520
     19          1           0       -0.714523    4.118541    0.291191
     20          1           0        0.000283    4.080592   -1.329586
     21          6           0        2.563189   -0.349345    0.205778
     22          6           0        4.089069   -0.443999    0.232593
     23          6           0        4.747162    0.790276    0.850065
     24          1           0        2.267568    0.546180   -0.357770
     25          1           0        2.193365   -0.209701    1.231022
     26          1           0        4.455815   -0.584810   -0.792241
     27          1           0        4.381089   -1.339508    0.795980
     28          1           0        4.409532    0.931310    1.881916
     29          1           0        4.484682    1.690295    0.284670
     30          1           0        5.837981    0.701438    0.859173
     31          6           0        1.890837   -1.575787   -0.408642
     32          6           0        0.364958   -1.481132   -0.435456
     33          6           0       -0.293135   -2.715407   -1.052927
     34          1           0        2.260661   -1.715431   -1.433885
     35          1           0        2.186459   -2.471312    0.154908
     36          1           0        0.072938   -0.585624   -0.998843
     37          1           0       -0.001788   -1.340322    0.589378
     38          1           0       -0.030655   -3.615427   -0.487533
     39          1           0        0.044496   -2.856441   -2.084778
     40          1           0       -1.383954   -2.626570   -1.062036
 ---------------------------------------------------------------------

 SCF Done:  E(RHF) =  -470.730773497     A.U. after   11 cycles
 E2 =    -0.1587244524D+01 EUMP2 =    -0.47231801802018D+03

 The electronic state is 1-A.
 Alpha  occ. eigenvalues --  -11.21669 -11.21654 -11.21579 -11.21551 -11.21497
 Alpha  occ. eigenvalues --  -11.21433 -11.21276 -11.21208 -11.21162 -11.21115
 Alpha  occ. eigenvalues --  -11.21061 -11.21049  -1.08598  -1.08308  -1.03634
 Alpha  occ. eigenvalues --   -1.03486  -0.96077  -0.95932  -0.87085  -0.86956
 Alpha  occ. eigenvalues --   -0.79720  -0.79566  -0.78402  -0.78165  -0.65257
 Alpha  occ. eigenvalues --   -0.65026  -0.61197  -0.60829  -0.59371  -0.59280
 Alpha  occ. eigenvalues --   -0.57629  -0.57551  -0.55439  -0.55159  -0.52769
 Alpha  occ. eigenvalues --   -0.52646  -0.52497  -0.52361  -0.50077  -0.49826
 Alpha  occ. eigenvalues --   -0.48025  -0.47884  -0.46896  -0.46602  -0.46205
 Alpha  occ. eigenvalues --   -0.45953  -0.45379  -0.45125  -0.43855  -0.43721
 Alpha virt. eigenvalues --    0.20109   0.21328   0.23506   0.24464   0.24979
 Alpha virt. eigenvalues --    0.25992   0.26966   0.27718   0.28525   0.29786
 Alpha virt. eigenvalues --    0.30064   0.31278   0.31556   0.31777   0.32522

 Mulliken charges:
               1
     1  C   -0.302415
     2  C   -0.302760
     3  C   -0.478636
     4  H    0.149642
     5  H    0.154426
     6  H    0.152079
     7  H    0.154566
     8  H    0.156933
     9  H    0.155401
    10  H    0.160245
    11  C   -0.303617
    12  C   -0.301505
    13  C   -0.478085
    14  H    0.149483
    15  H    0.156041
    16  H    0.152186
    17  H    0.151393
    18  H    0.157290
    19  H    0.155491
    20  H    0.159715
    21  C   -0.302201
    22  C   -0.299532
    23  C   -0.475976
    24  H    0.151964
    25  H    0.149552
    26  H    0.152264
    27  H    0.152313
    28  H    0.155354
    29  H    0.155437
    30  H    0.160596
    31  C   -0.297084
    32  C   -0.309319
    33  C   -0.481963
    34  H    0.149600
    35  H    0.149794
    36  H    0.158755
    37  H    0.155771
    38  H    0.155978
    39  H    0.155643
    40  H    0.165184
 Sum of Mulliken charges =  -0.00000

 Dipole moment (field-independent basis, Debye):
    X=              0.0487    Y=             -0.0313    Z=              0.0068  Tot=              0.0583
 Quadrupole moment (field-independent basis, Debye-Ang):
   XX=            -85.1902   YY=            -85.6269   ZZ=            -84.0894
   XY=             -1.5595   XZ=             -0.5363   YZ=             -0.7163

 Normal termination of Gaussian 16 at Wed May  5 15:19:23 2021.
