 Gaussian 16, Revision A.03,
 Gaussian 16:  EM64L-G16RevA.03 25-Dec-2016

 -------------
 #p 6-31g* mp2
 -------------

 ------------------------------------------------------
 Input file generated by CHIRIPA (05-May-2021 14:53:17)
 ------------------------------------------------------
 Symbolic Z-matrix:
 Charge =  0 Multiplicity = 1

                         Standard orientation:
 ---------------------------------------------------------------------
 Center     Atomic      Atomic             Coordinates (Angstroms)
 Number     Number       Type             X           Y           Z
 ---------------------------------------------------------------------
      1          6           0       -3.203437    0.391250   -0.243694
      2          6           0       -3.244331    1.918273   -0.310867
      3          6           0       -1.853654    2.542134   -0.431739
      4          1           0       -2.586785    0.084610    0.612259
      5          1           0       -2.704120    0.004861   -1.143017
      6          1           0       -3.744655    2.301603    0.587659
      7          1           0       -3.861115    2.221314   -1.166647
      8          1           0       -1.349823    2.187811   -1.336842
      9          1           0       -1.232702    2.268557    0.427432
     10          1           0       -1.906272    3.634347   -0.478233
     11          6           0       -4.586056   -0.247070   -0.122695
     12          6           0       -4.545163   -1.774093   -0.055522
     13          6           0       -5.935839   -2.397954    0.065350
     14          1           0       -5.085374    0.139319    0.776628
     15          1           0       -5.202709    0.059570   -0.978649
     16          1           0       -3.928379   -2.077134    0.800258
     17          1           0       -4.044838   -2.157423   -0.954049
     18          1           0       -6.556791   -2.124377   -0.793821
     19          1           0       -6.439670   -2.043631    0.970453
     20          1           0       -5.883221   -3.490167    0.111844
     21          6           0        4.715833   -1.725715   -0.740003
     22          6           0        4.184292   -1.880022    0.544588
     23          6           0        3.256606   -0.961153    1.044215
     24          6           0        2.881025    0.105070    0.228498
     25          6           0        3.392677    0.286007   -1.055544
     26          6           0        4.319029   -0.645098   -1.534569
     27          1           0        5.435964   -2.444266   -1.120124
     28          1           0        4.490628   -2.718278    1.163884
     29          1           0        2.829280   -1.056615    2.035022
     30          1           0        3.068044    1.131781   -1.649430
     31          1           0        4.730172   -0.522745   -2.532585
     32          7           0        1.899632    1.084312    0.746525
     33          8           0        1.585008    2.015083    0.008071
     34          8           0        1.463623    0.902530    1.881201
 ---------------------------------------------------------------------

 SCF Done:  E(RHF) =  -669.536073729     A.U. after   15 cycles
 E2 =    -0.2091394771D+01 EUMP2 =    -0.67162746850078D+03

 The electronic state is 1-A.
 Alpha  occ. eigenvalues --  -20.60954 -20.60932 -15.85955 -11.31286 -11.27847
 Alpha  occ. eigenvalues --  -11.27843 -11.27585 -11.26855 -11.26845 -11.21092
 Alpha  occ. eigenvalues --  -11.20698 -11.20667 -11.20475 -11.20396 -11.19321
 Alpha  occ. eigenvalues --   -1.59995  -1.39550  -1.19452  -1.08857  -1.07608
 Alpha  occ. eigenvalues --   -1.04849  -1.02611  -0.95701  -0.95023  -0.86250
 Alpha  occ. eigenvalues --   -0.86032  -0.82531  -0.78713  -0.77586  -0.77374
 Alpha  occ. eigenvalues --   -0.72170  -0.71305  -0.70562  -0.65107  -0.64853
 Alpha  occ. eigenvalues --   -0.64248  -0.62196  -0.60011  -0.58493  -0.56641
 Alpha  occ. eigenvalues --   -0.55357  -0.54308  -0.53182  -0.52941  -0.51721
 Alpha  occ. eigenvalues --   -0.51465  -0.49177  -0.48940  -0.48737  -0.46968
 Alpha  occ. eigenvalues --   -0.45756  -0.45065  -0.44813  -0.44733  -0.42880
 Alpha  occ. eigenvalues --   -0.37429  -0.36449
 Alpha virt. eigenvalues --    0.04927   0.11206   0.16421   0.21339   0.23618
 Alpha virt. eigenvalues --    0.25268   0.27253   0.27441   0.28142   0.28300
 Alpha virt. eigenvalues --    0.29090   0.30922   0.32257   0.32488   0.32557

 Mulliken charges:
               1
     1  C   -0.298060
     2  C   -0.300698
     3  C   -0.475447
     4  H    0.153222
     5  H    0.145165
     6  H    0.149341
     7  H    0.145465
     8  H    0.149981
     9  H    0.177365
    10  H    0.154896
    11  C   -0.297313
    12  C   -0.298916
    13  C   -0.475144
    14  H    0.149177
    15  H    0.147592
    16  H    0.151588
    17  H    0.149564
    18  H    0.154252
    19  H    0.155059
    20  H    0.157804
    21  C   -0.170578
    22  C   -0.218565
    23  C   -0.170735
    24  C    0.159252
    25  C   -0.170805
    26  C   -0.218575
    27  H    0.225961
    28  H    0.223783
    29  H    0.275719
    30  H    0.275917
    31  H    0.223798
    32  N    0.488212
    33  O   -0.456865
    34  O   -0.461411
 Sum of Mulliken charges =  -0.00000

 Dipole moment (field-independent basis, Debye):
    X=              3.7940    Y=             -3.3919    Z=             -1.7371  Tot=              5.3774
 Quadrupole moment (field-independent basis, Debye-Ang):
   XX=            -77.4691   YY=            -95.2296   ZZ=            -91.1451
   XY=            -10.2416   XZ=             -5.0537   YZ=             -3.2730

 Normal termination of Gaussian 16 at Thu May  6 15:37:36 2021.
