 Gaussian 16, Revision A.03,
 Gaussian 16:  EM64L-G16RevA.03 25-Dec-2016

 -------------
 #p 6-31g* mp2
 -------------

 ------------------------------------------------------
 Input file generated by CHIRIPA (05-May-2021 14:51:12)
 ------------------------------------------------------
 Symbolic Z-matrix:
 Charge =  0 Multiplicity = 1

                         Standard orientation:
 ---------------------------------------------------------------------
 Center     Atomic      Atomic             Coordinates (Angstroms)
 Number     Number       Type             X           Y           Z
 ---------------------------------------------------------------------
      1          6           0       -4.969432   -0.264343   -0.343894
      2          6           0       -5.916085   -1.150012    0.466924
      3          6           0       -7.118211   -1.630476   -0.346612
      4          1           0       -5.525675    0.602657   -0.725798
      5          1           0       -4.618901   -0.822731   -1.222942
      6          1           0       -6.263642   -0.590600    1.344920
      7          1           0       -5.357480   -2.014905    0.847102
      8          1           0       -6.788881   -2.211281   -1.214258
      9          1           0       -7.700192   -0.778883   -0.713611
     10          1           0       -7.781772   -2.261986    0.252338
     11          6           0       -3.762787    0.223861    0.455726
     12          6           0       -2.816134    1.109529   -0.355092
     13          6           0       -1.614008    1.589994    0.458444
     14          1           0       -4.113318    0.782249    1.334774
     15          1           0       -3.206544   -0.643139    0.837629
     16          1           0       -3.374739    1.974423   -0.735270
     17          1           0       -2.468577    0.550117   -1.233089
     18          1           0       -1.032027    0.738400    0.825442
     19          1           0       -1.943339    2.170798    1.326090
     20          1           0       -0.950447    2.221504   -0.140507
     21          6           0        3.685049    0.305825   -0.250929
     22          6           0        3.520583    1.782356    0.110719
     23          6           0        2.152930    2.339290   -0.285699
     24          1           0        3.536088    0.180925   -1.332205
     25          1           0        2.894183   -0.275709    0.242777
     26          1           0        4.312351    2.360750   -0.382411
     27          1           0        3.670142    1.903783    1.191230
     28          1           0        1.351919    1.787715    0.217040
     29          1           0        1.997778    2.247278   -1.365543
     30          1           0        2.056887    3.396157   -0.017992
     31          6           0        5.047170   -0.265342    0.139098
     32          6           0        5.211636   -1.741874   -0.222551
     33          6           0        6.579289   -2.298808    0.173867
     34          1           0        5.838036    0.316190   -0.354608
     35          1           0        5.196132   -0.140443    1.220373
     36          1           0        5.062077   -1.863301   -1.303062
     37          1           0        4.419868   -2.320268    0.270580
     38          1           0        6.734441   -2.206797    1.253711
     39          1           0        7.380300   -1.747232   -0.328871
     40          1           0        6.675331   -3.355675   -0.093840
 ---------------------------------------------------------------------

 SCF Done:  E(RHF) =  -470.732688002     A.U. after   11 cycles
 E2 =    -0.1582530798D+01 EUMP2 =    -0.47231521880022D+03

 The electronic state is 1-A.
 Alpha  occ. eigenvalues --  -11.21595 -11.21589 -11.21574 -11.21538 -11.21392
 Alpha  occ. eigenvalues --  -11.21378 -11.21332 -11.21318 -11.21066 -11.21062
 Alpha  occ. eigenvalues --  -11.21011 -11.20930  -1.08419  -1.08395  -1.03535
 Alpha  occ. eigenvalues --   -1.03470  -0.96026  -0.95885  -0.87093  -0.86860
 Alpha  occ. eigenvalues --   -0.79669  -0.79474  -0.78239  -0.78202  -0.65059
 Alpha  occ. eigenvalues --   -0.65019  -0.60977  -0.60846  -0.59360  -0.59306
 Alpha  occ. eigenvalues --   -0.57640  -0.57489  -0.55369  -0.55137  -0.52911
 Alpha  occ. eigenvalues --   -0.52590  -0.52397  -0.52157  -0.50016  -0.49747
 Alpha  occ. eigenvalues --   -0.47927  -0.47826  -0.46682  -0.46510  -0.45784
 Alpha  occ. eigenvalues --   -0.45749  -0.45703  -0.45653  -0.43796  -0.43659
 Alpha virt. eigenvalues --    0.22556   0.22968   0.23759   0.24661   0.26301
 Alpha virt. eigenvalues --    0.26758   0.26950   0.27438   0.27682   0.29043
 Alpha virt. eigenvalues --    0.30050   0.31056   0.31617   0.31820   0.32351

 Mulliken charges:
               1
     1  C   -0.298259
     2  C   -0.299607
     3  C   -0.475692
     4  H    0.149646
     5  H    0.149517
     6  H    0.151890
     7  H    0.151867
     8  H    0.155176
     9  H    0.155178
    10  H    0.160210
    11  C   -0.298548
    12  C   -0.299607
    13  C   -0.480615
    14  H    0.149431
    15  H    0.149461
    16  H    0.151889
    17  H    0.152079
    18  H    0.153591
    19  H    0.154853
    20  H    0.168527
    21  C   -0.298124
    22  C   -0.299997
    23  C   -0.482148
    24  H    0.149445
    25  H    0.149044
    26  H    0.151340
    27  H    0.151746
    28  H    0.164802
    29  H    0.153765
    30  H    0.159371
    31  C   -0.298232
    32  C   -0.299593
    33  C   -0.475682
    34  H    0.149536
    35  H    0.149624
    36  H    0.151854
    37  H    0.151745
    38  H    0.155174
    39  H    0.155188
    40  H    0.160155
 Sum of Mulliken charges =  -0.00000

 Dipole moment (field-independent basis, Debye):
    X=             -0.0265    Y=              0.0133    Z=              0.0022  Tot=              0.0297
 Quadrupole moment (field-independent basis, Debye-Ang):
   XX=            -86.3324   YY=            -84.5272   ZZ=            -84.1377
   XY=             -0.3053   XZ=             -1.0920   YZ=             -0.0596

 Normal termination of Gaussian 16 at Wed May  5 21:32:55 2021.
