 Gaussian 16, Revision A.03,
 Gaussian 16:  EM64L-G16RevA.03 25-Dec-2016

 -------------
 #p 6-31g* mp2
 -------------

 ------------------------------------------------------
 Input file generated by CHIRIPA (05-May-2021 14:57:24)
 ------------------------------------------------------
 Symbolic Z-matrix:
 Charge =  0 Multiplicity = 1

                         Standard orientation:
 ---------------------------------------------------------------------
 Center     Atomic      Atomic             Coordinates (Angstroms)
 Number     Number       Type             X           Y           Z
 ---------------------------------------------------------------------
      1          6           0        1.865295    1.613810   -0.810311
      2          6           0        1.659601    0.252586   -1.057861
      3          6           0        2.625262   -0.689583   -0.691304
      4          6           0        3.790169   -0.233452   -0.076303
      5          6           0        4.024292    1.115934    0.183763
      6          6           0        3.044904    2.040387   -0.191380
      7          1           0        1.109815    2.338829   -1.098397
      8          1           0        0.744460   -0.081577   -1.538378
      9          1           0        2.491773   -1.749428   -0.871102
     10          1           0        4.946652    1.418715    0.664380
     11          1           0        3.207347    3.096899    0.002112
     12          7           0        4.819737   -1.221507    0.316300
     13          8           0        5.837493   -0.794049    0.856754
     14          8           0        4.589462   -2.404694    0.076134
     15          6           0       -1.634033    1.583981    0.501060
     16          6           0       -1.986550    1.187587   -0.793205
     17          6           0       -3.085246    0.349282   -1.004539
     18          6           0       -3.812527   -0.075699    0.106201
     19          6           0       -3.486384    0.301870    1.407877
     20          6           0       -2.383753    1.140640    1.595542
     21          1           0       -0.779011    2.235377    0.656035
     22          1           0       -1.406129    1.530344   -1.645070
     23          1           0       -3.380282    0.027079   -1.995780
     24          1           0       -4.084160   -0.056114    2.237293
     25          1           0       -2.112302    1.446879    2.601810
     26          7           0       -4.977750   -0.963420   -0.105000
     27          8           0       -5.602290   -1.324061    0.890251
     28          8           0       -5.244448   -1.281766   -1.261791
 ---------------------------------------------------------------------

 SCF Done:  E(RHF) =  -868.335492631     A.U. after   16 cycles
 E2 =    -0.2602103508D+01 EUMP2 =    -0.87093759613877D+03

 The electronic state is 1-A.
 Alpha  occ. eigenvalues --  -20.61351 -20.61342 -20.61321 -20.61312 -15.86414
 Alpha  occ. eigenvalues --  -15.86375 -11.31944 -11.31930 -11.28629 -11.28522
 Alpha  occ. eigenvalues --  -11.28488 -11.28453 -11.28418 -11.28381 -11.27749
 Alpha  occ. eigenvalues --  -11.27634 -11.27569 -11.27529  -1.60423  -1.60389
 Alpha  occ. eigenvalues --   -1.39971  -1.39937  -1.20180  -1.20114  -1.09614
 Alpha  occ. eigenvalues --   -1.09459  -1.05625  -1.05517  -0.96419  -0.96247
 Alpha  occ. eigenvalues --   -0.87107  -0.86860  -0.83216  -0.83090  -0.78213
 Alpha  occ. eigenvalues --   -0.78083  -0.72636  -0.72590  -0.71750  -0.71714
 Alpha  occ. eigenvalues --   -0.71671  -0.70989  -0.65970  -0.65800  -0.65744
 Alpha  occ. eigenvalues --   -0.65313  -0.63025  -0.62766  -0.56430  -0.55894
 Alpha  occ. eigenvalues --   -0.54064  -0.53803  -0.53718  -0.53512  -0.49405
 Alpha  occ. eigenvalues --   -0.49370  -0.49364  -0.49334  -0.45340  -0.45300
 Alpha  occ. eigenvalues --   -0.38502  -0.37871  -0.37255  -0.37007
 Alpha virt. eigenvalues --    0.04223   0.04498   0.10076   0.10760   0.15539
 Alpha virt. eigenvalues --    0.15829   0.18273   0.22216   0.24973   0.25807
 Alpha virt. eigenvalues --    0.27584   0.29288   0.30039   0.30363   0.32111

 Mulliken charges:
               1
     1  C   -0.179364
     2  C   -0.214325
     3  C   -0.170989
     4  C    0.160053
     5  C   -0.170719
     6  C   -0.219010
     7  H    0.215814
     8  H    0.224867
     9  H    0.279357
    10  H    0.277847
    11  H    0.224288
    12  N    0.487743
    13  O   -0.458682
    14  O   -0.457447
    15  C   -0.165834
    16  C   -0.226499
    17  C   -0.170986
    18  C    0.158802
    19  C   -0.168445
    20  C   -0.218865
    21  H    0.222841
    22  H    0.214837
    23  H    0.277283
    24  H    0.279031
    25  H    0.227174
    26  N    0.488046
    27  O   -0.457571
    28  O   -0.459248
 Sum of Mulliken charges =  -0.00000

 Dipole moment (field-independent basis, Debye):
    X=              0.4628    Y=              6.3828    Z=             -0.4459  Tot=              6.4150
 Quadrupole moment (field-independent basis, Debye-Ang):
   XX=           -161.4189   YY=           -105.4374   ZZ=            -99.5584
   XY=              4.1750   XZ=             -7.4243   YZ=              2.0442

 Normal termination of Gaussian 16 at Fri May  7 01:55:15 2021.
