 Gaussian 16, Revision A.03,
 Gaussian 16:  EM64L-G16RevA.03 25-Dec-2016

 -------------
 #p 6-31g* mp2
 -------------

 ------------------------------------------------------
 Input file generated by CHIRIPA (05-May-2021 14:57:26)
 ------------------------------------------------------
 Symbolic Z-matrix:
 Charge =  0 Multiplicity = 1

                         Standard orientation:
 ---------------------------------------------------------------------
 Center     Atomic      Atomic             Coordinates (Angstroms)
 Number     Number       Type             X           Y           Z
 ---------------------------------------------------------------------
      1          6           0        1.795111   -1.989401    0.729247
      2          6           0        1.573098   -0.708800    1.246249
      3          6           0        2.416536    0.351798    0.902312
      4          6           0        3.477192    0.095019    0.034923
      5          6           0        3.724467   -1.169694   -0.496722
      6          6           0        2.868196   -2.215363   -0.139058
      7          1           0        1.134924   -2.807501    1.001757
      8          1           0        0.740511   -0.530388    1.920796
      9          1           0        2.267671    1.353063    1.287961
     10          1           0        4.562699   -1.316701   -1.166926
     11          1           0        3.043026   -3.208860   -0.542098
     12          7           0        4.376895    1.209924   -0.336454
     13          8           0        5.304353    0.957663   -1.102498
     14          8           0        4.137588    2.314938    0.145536
     15          6           0       -3.943142    2.532160    0.039137
     16          6           0       -2.626915    2.126694    0.283399
     17          6           0       -2.275224    0.775526    0.211242
     18          6           0       -3.269528   -0.147491   -0.109208
     19          6           0       -4.589563    0.225253   -0.357923
     20          6           0       -4.918546    1.581820   -0.280182
     21          1           0       -4.207525    3.583876    0.097359
     22          1           0       -1.867324    2.862536    0.531597
     23          1           0       -1.263872    0.434072    0.395618
     24          1           0       -5.324847   -0.531494   -0.603096
     25          1           0       -5.941546    1.893821   -0.470374
     26          7           0       -2.909228   -1.580770   -0.188553
     27          8           0       -3.803713   -2.374343   -0.472763
     28          8           0       -1.739163   -1.883461    0.034970
 ---------------------------------------------------------------------

 SCF Done:  E(RHF) =  -868.339638008     A.U. after   16 cycles
 E2 =    -0.2600029657D+01 EUMP2 =    -0.87093966766428D+03

 The electronic state is 1-A.
 Alpha  occ. eigenvalues --  -20.61593 -20.61533 -20.60613 -20.60596 -15.86607
 Alpha  occ. eigenvalues --  -15.85661 -11.31752 -11.30862 -11.28299 -11.28273
 Alpha  occ. eigenvalues --  -11.27966 -11.27534 -11.27435 -11.27250 -11.27235
 Alpha  occ. eigenvalues --  -11.26953 -11.26383 -11.26277  -1.60631  -1.59689
 Alpha  occ. eigenvalues --   -1.40195  -1.39248  -1.19897  -1.19024  -1.09327
 Alpha  occ. eigenvalues --   -1.08383  -1.05271  -1.04437  -0.96206  -0.95252
 Alpha  occ. eigenvalues --   -0.86678  -0.85796  -0.83054  -0.82124  -0.78136
 Alpha  occ. eigenvalues --   -0.77237  -0.72861  -0.71938  -0.71878  -0.71016
 Alpha  occ. eigenvalues --   -0.71000  -0.69984  -0.65555  -0.65283  -0.64653
 Alpha  occ. eigenvalues --   -0.64403  -0.62641  -0.61781  -0.55762  -0.54733
 Alpha  occ. eigenvalues --   -0.53606  -0.53387  -0.52701  -0.52488  -0.49602
 Alpha  occ. eigenvalues --   -0.49561  -0.48648  -0.48617  -0.45648  -0.44693
 Alpha  occ. eigenvalues --   -0.37853  -0.36865  -0.36852  -0.36067
 Alpha virt. eigenvalues --    0.04383   0.05323   0.10776   0.11521   0.15938
 Alpha virt. eigenvalues --    0.16749   0.20441   0.22180   0.26048   0.27370
 Alpha virt. eigenvalues --    0.28860   0.29014   0.30439   0.31202   0.32440

 Mulliken charges:
               1
     1  C   -0.159825
     2  C   -0.221841
     3  C   -0.176248
     4  C    0.157490
     5  C   -0.169951
     6  C   -0.221107
     7  H    0.241519
     8  H    0.220786
     9  H    0.268832
    10  H    0.274695
    11  H    0.225111
    12  N    0.488468
    13  O   -0.460600
    14  O   -0.464717
    15  C   -0.169556
    16  C   -0.220177
    17  C   -0.175164
    18  C    0.156557
    19  C   -0.169856
    20  C   -0.218626
    21  H    0.228534
    22  H    0.226232
    23  H    0.275843
    24  H    0.276405
    25  H    0.225520
    26  N    0.491038
    27  O   -0.456574
    28  O   -0.472787
 Sum of Mulliken charges =  -0.00000

 Dipole moment (field-independent basis, Debye):
    X=             -4.7124    Y=              0.9024    Z=              1.5301  Tot=              5.0361
 Quadrupole moment (field-independent basis, Debye-Ang):
   XX=           -112.9242   YY=           -105.0693   ZZ=           -104.3404
   XY=            -32.1592   XZ=              3.2741   YZ=              1.5839

 Normal termination of Gaussian 16 at Thu May  6 18:07:36 2021.
