 Gaussian 16, Revision A.03,
 Gaussian 16:  EM64L-G16RevA.03 25-Dec-2016

 -------------
 #p 6-31g* mp2
 -------------

 ------------------------------------------------------
 Input file generated by CHIRIPA (05-May-2021 14:53:12)
 ------------------------------------------------------
 Symbolic Z-matrix:
 Charge =  0 Multiplicity = 1

                         Standard orientation:
 ---------------------------------------------------------------------
 Center     Atomic      Atomic             Coordinates (Angstroms)
 Number     Number       Type             X           Y           Z
 ---------------------------------------------------------------------
      1          6           0       -3.016423   -0.153514   -0.272968
      2          6           0       -4.320527   -0.947224   -0.187407
      3          6           0       -4.275739   -2.246411   -0.992331
      4          1           0       -2.801029    0.073211   -1.326129
      5          1           0       -2.189257   -0.780770    0.087227
      6          1           0       -5.145192   -0.318180   -0.546359
      7          1           0       -4.532941   -1.171920    0.865687
      8          1           0       -3.472407   -2.896277   -0.630486
      9          1           0       -4.088137   -2.037686   -2.050556
     10          1           0       -5.218099   -2.797929   -0.917187
     11          6           0       -3.045715    1.147875    0.526568
     12          6           0       -1.741610    1.941585    0.441006
     13          6           0       -1.786398    3.240771    1.245930
     14          1           0       -3.872881    1.775131    0.166372
     15          1           0       -3.261109    0.921150    1.579728
     16          1           0       -1.529196    2.166281   -0.612088
     17          1           0       -0.916945    1.312540    0.799958
     18          1           0       -1.974001    3.032046    2.304155
     19          1           0       -2.589730    3.890638    0.884085
     20          1           0       -0.844039    3.792290    1.170786
     21          6           0        1.678876   -2.615974    0.864792
     22          6           0        2.985168   -2.149360    1.044776
     23          6           0        3.378064   -0.916606    0.515152
     24          6           0        2.434647   -0.173070   -0.192244
     25          6           0        1.125773   -0.610816   -0.388504
     26          6           0        0.754976   -1.846569    0.149986
     27          1           0        1.382250   -3.574771    1.279660
     28          1           0        3.704800   -2.744758    1.599460
     29          1           0        4.382836   -0.531410    0.639545
     30          1           0        0.430738    0.005162   -0.946102
     31          1           0       -0.260189   -2.206436    0.008643
     32          7           0        2.838889    1.133578   -0.757627
     33          8           0        1.988886    1.769676   -1.376908
     34          8           0        3.998084    1.496890   -0.570786
 ---------------------------------------------------------------------

 SCF Done:  E(RHF) =  -669.535074867     A.U. after   15 cycles
 E2 =    -0.2093544971D+01 EUMP2 =    -0.67162861983758D+03

 The electronic state is 1-A.
 Alpha  occ. eigenvalues --  -20.60754 -20.60747 -15.85802 -11.31150 -11.27741
 Alpha  occ. eigenvalues --  -11.27671 -11.27478 -11.26748 -11.26707 -11.22188
 Alpha  occ. eigenvalues --  -11.22066 -11.21743 -11.21689 -11.21604 -11.20924
 Alpha  occ. eigenvalues --   -1.59825  -1.39378  -1.19334  -1.08865  -1.08730
 Alpha  occ. eigenvalues --   -1.04734  -1.03842  -0.96316  -0.95566  -0.87332
 Alpha  occ. eigenvalues --   -0.86131  -0.82406  -0.79955  -0.78736  -0.77394
 Alpha  occ. eigenvalues --   -0.72020  -0.71147  -0.70439  -0.65539  -0.64975
 Alpha  occ. eigenvalues --   -0.64734  -0.62077  -0.61234  -0.59699  -0.57905
 Alpha  occ. eigenvalues --   -0.55630  -0.55243  -0.53099  -0.52965  -0.52890
 Alpha  occ. eigenvalues --   -0.52649  -0.50265  -0.48783  -0.48779  -0.48235
 Alpha  occ. eigenvalues --   -0.46997  -0.46177  -0.46080  -0.44776  -0.44120
 Alpha  occ. eigenvalues --   -0.37319  -0.36296
 Alpha virt. eigenvalues --    0.05048   0.11245   0.16454   0.19849   0.22901
 Alpha virt. eigenvalues --    0.23412   0.25252   0.25423   0.27337   0.28462
 Alpha virt. eigenvalues --    0.29877   0.30123   0.31477   0.31778   0.32384

 Mulliken charges:
               1
     1  C   -0.306234
     2  C   -0.299509
     3  C   -0.475853
     4  H    0.151548
     5  H    0.141836
     6  H    0.156271
     7  H    0.153001
     8  H    0.147291
     9  H    0.157604
    10  H    0.163635
    11  C   -0.296891
    12  C   -0.306776
    13  C   -0.476720
    14  H    0.152317
    15  H    0.149650
    16  H    0.159911
    17  H    0.151224
    18  H    0.152826
    19  H    0.155196
    20  H    0.168910
    21  C   -0.170741
    22  C   -0.218734
    23  C   -0.170611
    24  C    0.156334
    25  C   -0.172428
    26  C   -0.225170
    27  H    0.225608
    28  H    0.223284
    29  H    0.275459
    30  H    0.282805
    31  H    0.227950
    32  N    0.488426
    33  O   -0.460798
    34  O   -0.460621
 Sum of Mulliken charges =  -0.00000

 Dipole moment (field-independent basis, Debye):
    X=             -1.5039    Y=             -4.4412    Z=              1.9616  Tot=              5.0827
 Quadrupole moment (field-independent basis, Debye-Ang):
   XX=            -96.9758   YY=            -94.1112   ZZ=            -95.1852
   XY=            -12.1824   XZ=              7.5241   YZ=             -0.7214

 Normal termination of Gaussian 16 at Wed May  5 17:01:18 2021.
