 Gaussian 16, Revision A.03,
 Gaussian 16:  EM64L-G16RevA.03 25-Dec-2016

 -------------
 #p 6-31g* mp2
 -------------

 ------------------------------------------------------
 Input file generated by CHIRIPA (05-May-2021 14:51:14)
 ------------------------------------------------------
 Symbolic Z-matrix:
 Charge =  0 Multiplicity = 1

                         Standard orientation:
 ---------------------------------------------------------------------
 Center     Atomic      Atomic             Coordinates (Angstroms)
 Number     Number       Type             X           Y           Z
 ---------------------------------------------------------------------
      1          6           0        3.734469    0.481748   -0.318307
      2          6           0        2.894257    1.560445    0.366121
      3          6           0        1.524347    1.745855   -0.287151
      4          1           0        3.864110    0.743877   -1.377282
      5          1           0        3.185164   -0.469670   -0.296792
      6          1           0        3.445579    2.509230    0.344545
      7          1           0        2.766763    1.295815    1.423633
      8          1           0        0.951640    0.813436   -0.252468
      9          1           0        1.634314    2.033747   -1.337687
     10          1           0        0.940427    2.521639    0.217881
     11          6           0        5.106740    0.284732    0.323399
     12          6           0        5.946952   -0.793965   -0.361029
     13          6           0        7.316861   -0.979375    0.292243
     14          1           0        5.656045    1.236150    0.301884
     15          1           0        4.977099    0.022603    1.382374
     16          1           0        6.074446   -0.529335   -1.418541
     17          1           0        5.395630   -1.742750   -0.339454
     18          1           0        7.206895   -1.267267    1.342779
     19          1           0        7.889569   -0.046956    0.257560
     20          1           0        7.900782   -1.755159   -0.212789
     21          6           0       -3.877187   -0.909669    0.102347
     22          6           0       -2.480172   -0.424894   -0.286660
     23          6           0       -1.403811   -1.489223   -0.071149
     24          1           0       -3.870820   -1.218540    1.156626
     25          1           0       -4.123402   -1.805533   -0.484338
     26          1           0       -2.237224    0.470596    0.299590
     27          1           0       -2.489914   -0.116960   -1.340082
     28          1           0       -1.619070   -2.381245   -0.668275
     29          1           0       -1.364944   -1.790350    0.980712
     30          1           0       -0.412982   -1.121523   -0.355606
     31          6           0       -4.964021    0.143189   -0.107440
     32          6           0       -6.361037   -0.341586    0.281568
     33          6           0       -7.437399    0.722743    0.066057
     34          1           0       -4.717806    1.039053    0.479247
     35          1           0       -4.970388    0.452061   -1.161717
     36          1           0       -6.351295   -0.649519    1.334990
     37          1           0       -6.603986   -1.237076   -0.304682
     38          1           0       -7.476264    1.023870   -0.985804
     39          1           0       -7.222139    1.614765    0.663185
     40          1           0       -8.428227    0.355043    0.350514
 ---------------------------------------------------------------------

 SCF Done:  E(RHF) =  -470.733307770     A.U. after   11 cycles
 E2 =    -0.1582376188D+01 EUMP2 =    -0.47231568395784D+03

 The electronic state is 1-A.
 Alpha  occ. eigenvalues --  -11.21595 -11.21593 -11.21593 -11.21582 -11.21401
 Alpha  occ. eigenvalues --  -11.21394 -11.21342 -11.21335 -11.21083 -11.21064
 Alpha  occ. eigenvalues --  -11.21063 -11.21048  -1.08428  -1.08416  -1.03544
 Alpha  occ. eigenvalues --   -1.03503  -0.96013  -0.95940  -0.87031  -0.86955
 Alpha  occ. eigenvalues --   -0.79592  -0.79576  -0.78241  -0.78226  -0.65066
 Alpha  occ. eigenvalues --   -0.65040  -0.60976  -0.60894  -0.59400  -0.59309
 Alpha  occ. eigenvalues --   -0.57714  -0.57480  -0.55302  -0.55214  -0.52753
 Alpha  occ. eigenvalues --   -0.52662  -0.52478  -0.52258  -0.49921  -0.49883
 Alpha  occ. eigenvalues --   -0.47976  -0.47823  -0.46624  -0.46593  -0.45777
 Alpha  occ. eigenvalues --   -0.45773  -0.45707  -0.45689  -0.43791  -0.43752
 Alpha virt. eigenvalues --    0.21418   0.23029   0.23434   0.24951   0.26193
 Alpha virt. eigenvalues --    0.26632   0.27053   0.27409   0.27841   0.28912
 Alpha virt. eigenvalues --    0.30358   0.31280   0.31720   0.31805   0.32182

 Mulliken charges:
               1
     1  C   -0.298515
     2  C   -0.299229
     3  C   -0.483300
     4  H    0.149657
     5  H    0.149311
     6  H    0.151913
     7  H    0.151921
     8  H    0.162695
     9  H    0.155201
    10  H    0.160246
    11  C   -0.298285
    12  C   -0.299701
    13  C   -0.475710
    14  H    0.149544
    15  H    0.149714
    16  H    0.151907
    17  H    0.152096
    18  H    0.155193
    19  H    0.155141
    20  H    0.160255
    21  C   -0.298364
    22  C   -0.299774
    23  C   -0.481135
    24  H    0.149512
    25  H    0.149480
    26  H    0.153169
    27  H    0.152378
    28  H    0.155500
    29  H    0.155016
    30  H    0.164056
    31  C   -0.298269
    32  C   -0.299654
    33  C   -0.475703
    34  H    0.149600
    35  H    0.149752
    36  H    0.151886
    37  H    0.151900
    38  H    0.155202
    39  H    0.155186
    40  H    0.160211
 Sum of Mulliken charges =  -0.00000

 Dipole moment (field-independent basis, Debye):
    X=             -0.0068    Y=              0.0029    Z=             -0.0033  Tot=              0.0081
 Quadrupole moment (field-independent basis, Debye-Ang):
   XX=            -86.4876   YY=            -84.7074   ZZ=            -83.5983
   XY=              1.1504   XZ=             -0.5543   YZ=              0.0408

 Normal termination of Gaussian 16 at Wed May  5 18:24:20 2021.
