 Gaussian 16, Revision A.03,
 Gaussian 16:  EM64L-G16RevA.03 25-Dec-2016

 -------------
 #p 6-31g* mp2
 -------------

 ------------------------------------------------------
 Input file generated by CHIRIPA (05-May-2021 14:57:25)
 ------------------------------------------------------
 Symbolic Z-matrix:
 Charge =  0 Multiplicity = 1

                         Standard orientation:
 ---------------------------------------------------------------------
 Center     Atomic      Atomic             Coordinates (Angstroms)
 Number     Number       Type             X           Y           Z
 ---------------------------------------------------------------------
      1          6           0        4.184653    2.487228    0.364235
      2          6           0        2.974300    2.060414   -0.191999
      3          6           0        2.735523    0.701041   -0.414796
      4          6           0        3.733552   -0.208323   -0.067973
      5          6           0        4.949713    0.185764    0.487848
      6          6           0        5.166765    1.550193    0.701788
      7          1           0        4.361703    3.545185    0.533869
      8          1           0        2.209773    2.785887   -0.455120
      9          1           0        1.807559    0.343122   -0.843976
     10          1           0        5.692802   -0.561035    0.739895
     11          1           0        6.107690    1.878781    1.133917
     12          7           0        3.492268   -1.650106   -0.299150
     13          8           0        4.387599   -2.431322    0.015051
     14          8           0        2.412389   -1.971660   -0.790169
     15          6           0       -6.231679    0.525911    0.148711
     16          6           0       -5.334499    1.438306   -0.416200
     17          6           0       -3.970226    1.141238   -0.487318
     18          6           0       -3.535652   -0.082976    0.018383
     19          6           0       -4.404760   -1.012761    0.587104
     20          6           0       -5.764770   -0.694559    0.647680
     21          1           0       -7.289823    0.764889    0.199862
     22          1           0       -5.694275    2.386900   -0.804498
     23          1           0       -3.253797    1.829282   -0.919458
     24          1           0       -4.016276   -1.950344    0.965832
     25          1           0       -6.459240   -1.405054    1.086942
     26          7           0       -2.093614   -0.408655   -0.051327
     27          8           0       -1.735950   -1.493964    0.401244
     28          8           0       -1.348315    0.427552   -0.557215
 ---------------------------------------------------------------------

 SCF Done:  E(RHF) =  -868.338497437     A.U. after   16 cycles
 E2 =    -0.2599165883D+01 EUMP2 =    -0.87093766332056D+03

 The electronic state is 1-A.
 Alpha  occ. eigenvalues --  -20.60967 -20.60911 -20.59537 -20.59459 -15.85972
 Alpha  occ. eigenvalues --  -15.84552 -11.31307 -11.29967 -11.27898 -11.27838
 Alpha  occ. eigenvalues --  -11.27605 -11.26892 -11.26854 -11.26670 -11.26444
 Alpha  occ. eigenvalues --  -11.26383 -11.25715 -11.25572  -1.59984  -1.58582
 Alpha  occ. eigenvalues --   -1.39545  -1.38125  -1.19471  -1.18187  -1.08871
 Alpha  occ. eigenvalues --   -1.07598  -1.04871  -1.03585  -0.95713  -0.94402
 Alpha  occ. eigenvalues --   -0.86271  -0.84993  -0.82551  -0.81221  -0.77600
 Alpha  occ. eigenvalues --   -0.76229  -0.72196  -0.71298  -0.70771  -0.70581
 Alpha  occ. eigenvalues --   -0.69909  -0.69307  -0.65129  -0.64874  -0.63841
 Alpha  occ. eigenvalues --   -0.63606  -0.62220  -0.60894  -0.55373  -0.54155
 Alpha  occ. eigenvalues --   -0.53200  -0.52965  -0.51948  -0.51678  -0.48961
 Alpha  occ. eigenvalues --   -0.48898  -0.47561  -0.47505  -0.44957  -0.43516
 Alpha  occ. eigenvalues --   -0.37449  -0.36472  -0.36234  -0.35197
 Alpha virt. eigenvalues --    0.04940   0.06283   0.11183   0.12444   0.16439
 Alpha virt. eigenvalues --    0.17723   0.21307   0.22523   0.27223   0.28129
 Alpha virt. eigenvalues --    0.28475   0.29495   0.30880   0.32026   0.32429

 Mulliken charges:
               1
     1  C   -0.171647
     2  C   -0.221643
     3  C   -0.173837
     4  C    0.156065
     5  C   -0.171780
     6  C   -0.220017
     7  H    0.220457
     8  H    0.222674
     9  H    0.297212
    10  H    0.272161
    11  H    0.218576
    12  N    0.486962
    13  O   -0.467871
    14  O   -0.450711
    15  C   -0.170632
    16  C   -0.218444
    17  C   -0.170913
    18  C    0.158523
    19  C   -0.170307
    20  C   -0.218527
    21  H    0.225977
    22  H    0.222927
    23  H    0.272583
    24  H    0.277999
    25  H    0.224538
    26  N    0.490004
    27  O   -0.448775
    28  O   -0.471556
 Sum of Mulliken charges =  -0.00000

 Dipole moment (field-independent basis, Debye):
    X=             -4.7293    Y=              6.0023    Z=              1.0254  Tot=              7.7101
 Quadrupole moment (field-independent basis, Debye-Ang):
   XX=            -60.7048   YY=           -104.1169   ZZ=           -104.7966
   XY=             15.0730   XZ=              3.0884   YZ=             -3.3031

 Normal termination of Gaussian 16 at Wed May  5 16:26:59 2021.
