 Gaussian 16, Revision A.03,
 Gaussian 16:  EM64L-G16RevA.03 25-Dec-2016

 -------------
 #p 6-31g* mp2
 -------------

 ------------------------------------------------------
 Input file generated by CHIRIPA (05-May-2021 14:51:10)
 ------------------------------------------------------
 Symbolic Z-matrix:
 Charge =  0 Multiplicity = 1

                         Standard orientation:
 ---------------------------------------------------------------------
 Center     Atomic      Atomic             Coordinates (Angstroms)
 Number     Number       Type             X           Y           Z
 ---------------------------------------------------------------------
      1          6           0        4.189511   -0.490631    0.174721
      2          6           0        4.977678    0.412571   -0.774491
      3          6           0        6.475398    0.104957   -0.775843
      4          1           0        4.588937   -0.379942    1.192144
      5          1           0        4.349092   -1.539490   -0.111329
      6          1           0        4.815552    1.459480   -0.487588
      7          1           0        4.576204    0.299862   -1.789740
      8          1           0        6.655794   -0.930175   -1.083349
      9          1           0        6.896502    0.236031    0.226201
     10          1           0        7.019618    0.762213   -1.461189
     11          6           0        2.690736   -0.195257    0.187167
     12          6           0        1.902568   -1.098459    1.136378
     13          6           0        0.404848   -0.790845    1.137731
     14          1           0        2.531154    0.853602    0.473217
     15          1           0        2.291309   -0.305946   -0.830257
     16          1           0        2.304043   -0.985750    2.151628
     17          1           0        2.064694   -2.145368    0.849476
     18          1           0       -0.016256   -0.921919    0.135687
     19          1           0        0.224453    0.244287    1.445237
     20          1           0       -0.139371   -1.448101    1.823077
     21          6           0       -3.455733   -0.390477    0.031851
     22          6           0       -4.363543   -1.256299   -0.842345
     23          6           0       -4.384258   -2.720998   -0.404142
     24          1           0       -2.435482   -0.797085    0.005332
     25          1           0       -3.791717   -0.457090    1.075917
     26          1           0       -4.026791   -1.186979   -1.884654
     27          1           0       -5.381710   -0.847470   -0.813894
     28          1           0       -4.741090   -2.809577    0.627084
     29          1           0       -3.378473   -3.151016   -0.449761
     30          1           0       -5.039389   -3.321836   -1.042622
     31          6           0       -3.424513    1.076365   -0.393739
     32          6           0       -2.516704    1.942187    0.480457
     33          6           0       -2.495988    3.406886    0.042254
     34          1           0       -3.088529    1.142978   -1.437805
     35          1           0       -4.444764    1.482974   -0.367220
     36          1           0       -1.498535    1.533358    0.452006
     37          1           0       -2.853454    1.872867    1.522767
     38          1           0       -3.501774    3.836903    0.087873
     39          1           0       -2.139156    3.495465   -0.988971
     40          1           0       -1.840857    4.007724    0.680735
 ---------------------------------------------------------------------

 SCF Done:  E(RHF) =  -470.732306193     A.U. after   11 cycles
 E2 =    -0.1583682766D+01 EUMP2 =    -0.47231598895930D+03

 The electronic state is 1-A.
 Alpha  occ. eigenvalues --  -11.21640 -11.21630 -11.21524 -11.21451 -11.21450
 Alpha  occ. eigenvalues --  -11.21388 -11.21288 -11.21205 -11.21119 -11.21093
 Alpha  occ. eigenvalues --  -11.21022 -11.20999  -1.08477  -1.08327  -1.03578
 Alpha  occ. eigenvalues --   -1.03444  -0.96038  -0.95894  -0.87060  -0.86915
 Alpha  occ. eigenvalues --   -0.79692  -0.79499  -0.78330  -0.78072  -0.65110
 Alpha  occ. eigenvalues --   -0.64973  -0.61036  -0.60811  -0.59402  -0.59264
 Alpha  occ. eigenvalues --   -0.57640  -0.57515  -0.55414  -0.55111  -0.52763
 Alpha  occ. eigenvalues --   -0.52626  -0.52444  -0.52316  -0.50097  -0.49745
 Alpha  occ. eigenvalues --   -0.48126  -0.47764  -0.46773  -0.46397  -0.46008
 Alpha  occ. eigenvalues --   -0.45740  -0.45641  -0.45270  -0.43808  -0.43684
 Alpha virt. eigenvalues --    0.21889   0.22997   0.24094   0.24416   0.25611
 Alpha virt. eigenvalues --    0.26453   0.27070   0.27548   0.27924   0.29557
 Alpha virt. eigenvalues --    0.30300   0.31594   0.31640   0.32045   0.32216

 Mulliken charges:
               1
     1  C   -0.298244
     2  C   -0.299680
     3  C   -0.475737
     4  H    0.149823
     5  H    0.149629
     6  H    0.152025
     7  H    0.151896
     8  H    0.155219
     9  H    0.155252
    10  H    0.160357
    11  C   -0.298528
    12  C   -0.300153
    13  C   -0.480120
    14  H    0.149409
    15  H    0.149345
    16  H    0.152148
    17  H    0.151930
    18  H    0.154955
    19  H    0.160029
    20  H    0.161762
    21  C   -0.306352
    22  C   -0.299122
    23  C   -0.475515
    24  H    0.160111
    25  H    0.148654
    26  H    0.151124
    27  H    0.151590
    28  H    0.155051
    29  H    0.154763
    30  H    0.159905
    31  C   -0.297419
    32  C   -0.306847
    33  C   -0.475138
    34  H    0.148370
    35  H    0.149052
    36  H    0.160703
    37  H    0.150875
    38  H    0.154828
    39  H    0.154773
    40  H    0.159278
 Sum of Mulliken charges =  -0.00000

 Dipole moment (field-independent basis, Debye):
    X=              0.0660    Y=             -0.0242    Z=              0.0304  Tot=              0.0766
 Quadrupole moment (field-independent basis, Debye-Ang):
   XX=            -85.6597   YY=            -85.6491   ZZ=            -83.8577
   XY=             -0.0143   XZ=             -0.2823   YZ=              0.8303

 Normal termination of Gaussian 16 at Wed May  5 19:47:27 2021.
