 Gaussian 16, Revision A.03,
 Gaussian 16:  EM64L-G16RevA.03 25-Dec-2016

 -------------
 #p 6-31g* mp2
 -------------

 ------------------------------------------------------
 Input file generated by CHIRIPA (05-May-2021 14:53:13)
 ------------------------------------------------------
 Symbolic Z-matrix:
 Charge =  0 Multiplicity = 1

                         Standard orientation:
 ---------------------------------------------------------------------
 Center     Atomic      Atomic             Coordinates (Angstroms)
 Number     Number       Type             X           Y           Z
 ---------------------------------------------------------------------
      1          6           0       -4.277830   -0.046095    0.516776
      2          6           0       -3.167282   -0.861079   -0.146902
      3          6           0       -1.884918   -0.900086    0.684853
      4          1           0       -3.919472    0.978054    0.688951
      5          1           0       -4.494311   -0.471993    1.506292
      6          1           0       -2.953919   -0.434609   -1.135444
      7          1           0       -3.528391   -1.883354   -0.317691
      8          1           0       -2.075931   -1.345309    1.666633
      9          1           0       -1.498194    0.111667    0.844233
     10          1           0       -1.104351   -1.487889    0.191840
     11          6           0       -5.566193    0.002231   -0.302684
     12          6           0       -6.676741    0.817215    0.360995
     13          6           0       -7.959104    0.856223   -0.470760
     14          1           0       -5.349711    0.428129   -1.292200
     15          1           0       -5.924550   -1.021917   -0.474858
     16          1           0       -6.315631    1.839491    0.531784
     17          1           0       -6.890103    0.390746    1.349537
     18          1           0       -8.345828   -0.155530   -0.630140
     19          1           0       -7.768092    1.301446   -1.452540
     20          1           0       -8.739672    1.444026    0.022252
     21          6           0        5.249009    2.106591    0.088857
     22          6           0        3.873705    2.204682   -0.146596
     23          6           0        3.086174    1.053660   -0.244027
     24          6           0        3.709618   -0.184867   -0.100305
     25          6           0        5.077445   -0.315346    0.134887
     26          6           0        5.845438    0.849108    0.228600
     27          1           0        5.853193    3.005950    0.163099
     28          1           0        3.407809    3.179934   -0.255539
     29          1           0        2.019321    1.100702   -0.425774
     30          1           0        5.513408   -1.301496    0.239109
     31          1           0        6.913293    0.769901    0.411513
     32          7           0        2.886236   -1.410512   -0.201483
     33          8           0        3.459523   -2.489861   -0.071169
     34          8           0        1.683172   -1.268614   -0.409186
 ---------------------------------------------------------------------

 SCF Done:  E(RHF) =  -669.535984660     A.U. after   15 cycles
 E2 =    -0.2090637539D+01 EUMP2 =    -0.67162662219966D+03

 The electronic state is 1-A.
 Alpha  occ. eigenvalues --  -20.60877 -20.60869 -15.85918 -11.31250 -11.27816
 Alpha  occ. eigenvalues --  -11.27811 -11.27558 -11.26828 -11.26818 -11.21262
 Alpha  occ. eigenvalues --  -11.20933 -11.20812 -11.20793 -11.20751 -11.19868
 Alpha  occ. eigenvalues --   -1.59941  -1.39497  -1.19420  -1.08823  -1.07882
 Alpha  occ. eigenvalues --   -1.04819  -1.02904  -0.95667  -0.95328  -0.86346
 Alpha  occ. eigenvalues --   -0.86218  -0.82498  -0.78990  -0.77687  -0.77542
 Alpha  occ. eigenvalues --   -0.72148  -0.71257  -0.70530  -0.65078  -0.64823
 Alpha  occ. eigenvalues --   -0.64526  -0.62166  -0.60319  -0.58712  -0.56918
 Alpha  occ. eigenvalues --   -0.55324  -0.54647  -0.53151  -0.52912  -0.51953
 Alpha  occ. eigenvalues --   -0.51761  -0.49317  -0.48898  -0.48884  -0.47285
 Alpha  occ. eigenvalues --   -0.46059  -0.45220  -0.45156  -0.44908  -0.43110
 Alpha  occ. eigenvalues --   -0.37401  -0.36421
 Alpha virt. eigenvalues --    0.04980   0.11233   0.16470   0.21294   0.23350
 Alpha virt. eigenvalues --    0.24861   0.26984   0.27278   0.27839   0.28040
 Alpha virt. eigenvalues --    0.29003   0.30904   0.31790   0.32253   0.32759

 Mulliken charges:
               1
     1  C   -0.297093
     2  C   -0.299638
     3  C   -0.482433
     4  H    0.146007
     5  H    0.148507
     6  H    0.149819
     7  H    0.151547
     8  H    0.150278
     9  H    0.145111
    10  H    0.189049
    11  C   -0.297623
    12  C   -0.299022
    13  C   -0.475353
    14  H    0.148252
    15  H    0.149717
    16  H    0.150276
    17  H    0.151539
    18  H    0.155241
    19  H    0.154438
    20  H    0.158880
    21  C   -0.170644
    22  C   -0.218576
    23  C   -0.170816
    24  C    0.157805
    25  C   -0.170625
    26  C   -0.218618
    27  H    0.225815
    28  H    0.223646
    29  H    0.276162
    30  H    0.275759
    31  H    0.223645
    32  N    0.493192
    33  O   -0.459588
    34  O   -0.464653
 Sum of Mulliken charges =  -0.00000

 Dipole moment (field-independent basis, Debye):
    X=              3.1612    Y=              4.2214    Z=              0.3173  Tot=              5.2834
 Quadrupole moment (field-independent basis, Debye-Ang):
   XX=            -71.8845   YY=            -94.3794   ZZ=            -95.7717
   XY=             13.7429   XZ=              1.2733   YZ=             -1.3527

 Normal termination of Gaussian 16 at Thu May  6 01:00:09 2021.
