 Gaussian 16, Revision A.03,
 Gaussian 16:  EM64L-G16RevA.03 25-Dec-2016

 -------------
 #p 6-31g* mp2
 -------------

 ------------------------------------------------------
 Input file generated by CHIRIPA (05-May-2021 14:55:19)
 ------------------------------------------------------
 Symbolic Z-matrix:
 Charge =  0 Multiplicity = 1

                         Standard orientation:
 ---------------------------------------------------------------------
 Center     Atomic      Atomic             Coordinates (Angstroms)
 Number     Number       Type             X           Y           Z
 ---------------------------------------------------------------------
      1          6           0       -1.305128    1.139207    0.784786
      2          6           0       -1.623221   -0.198153    1.043257
      3          6           0       -2.872543   -0.712949    0.684469
      4          6           0       -3.783915    0.141573    0.066017
      5          6           0       -3.496655    1.478507   -0.204870
      6          6           0       -2.241210    1.971800    0.162645
      7          1           0       -0.332247    1.530761    1.066891
      8          1           0       -0.898215   -0.847067    1.526291
      9          1           0       -3.144974   -1.744326    0.872775
     10          1           0       -4.240105    2.101024   -0.687749
     11          1           0       -1.996918    3.010827   -0.039323
     12          7           0       -5.109757   -0.392037   -0.318436
     13          8           0       -5.895178    0.381358   -0.862138
     14          8           0       -5.338427   -1.573571   -0.068787
     15          6           0        4.021575   -0.819020   -0.048789
     16          6           0        2.626203   -0.353351   -0.466009
     17          6           0        1.552397   -1.415057   -0.226190
     18          1           0        4.277130   -1.732700   -0.602707
     19          1           0        4.006295   -1.092578    1.015320
     20          1           0        2.644449   -0.079440   -1.528674
     21          1           0        2.374019    0.559434    0.088827
     22          1           0        1.505014   -1.682346    0.834429
     23          1           0        1.776980   -2.324851   -0.792261
     24          1           0        0.562711   -1.061196   -0.531421
     25          6           0        5.105850    0.231453   -0.282422
     26          6           0        6.501222   -0.234215    0.134799
     27          6           0        7.575028    0.827490   -0.105021
     28          1           0        5.121130    0.505011   -1.346531
     29          1           0        4.850295    1.145133    0.271496
     30          1           0        6.753406   -1.147001   -0.420037
     31          1           0        6.482976   -0.508126    1.197464
     32          1           0        7.350445    1.737284    0.461051
     33          1           0        7.622411    1.094779   -1.165640
     34          1           0        8.564713    0.473630    0.200211
 ---------------------------------------------------------------------

 SCF Done:  E(RHF) =  -669.534521989     A.U. after   15 cycles
 E2 =    -0.2092365388D+01 EUMP2 =    -0.67162688737669D+03

 The electronic state is 1-A.
 Alpha  occ. eigenvalues --  -20.60753 -20.60747 -15.85805 -11.31179 -11.27736
 Alpha  occ. eigenvalues --  -11.27716 -11.27469 -11.26765 -11.26692 -11.22505
 Alpha  occ. eigenvalues --  -11.22113 -11.22094 -11.21978 -11.21918 -11.21510
 Alpha  occ. eigenvalues --   -1.59828  -1.39381  -1.19350  -1.09117  -1.08743
 Alpha  occ. eigenvalues --   -1.04757  -1.04215  -0.96669  -0.95573  -0.87706
 Alpha  occ. eigenvalues --   -0.86133  -0.82405  -0.80299  -0.78907  -0.77450
 Alpha  occ. eigenvalues --   -0.72024  -0.71151  -0.70451  -0.65766  -0.64996
 Alpha  occ. eigenvalues --   -0.64774  -0.62155  -0.61580  -0.60027  -0.58271
 Alpha  occ. eigenvalues --   -0.55959  -0.55252  -0.53605  -0.53186  -0.52855
 Alpha  occ. eigenvalues --   -0.52678  -0.50594  -0.48781  -0.48778  -0.48599
 Alpha  occ. eigenvalues --   -0.47333  -0.46452  -0.46365  -0.44785  -0.44461
 Alpha  occ. eigenvalues --   -0.37296  -0.36313
 Alpha virt. eigenvalues --    0.05063   0.11231   0.16524   0.19863   0.22557
 Alpha virt. eigenvalues --    0.23967   0.25362   0.25723   0.26822   0.28103
 Alpha virt. eigenvalues --    0.28710   0.29660   0.31165   0.31567   0.31907

 Mulliken charges:
               1
     1  C   -0.173339
     2  C   -0.219596
     3  C   -0.173455
     4  C    0.158800
     5  C   -0.171294
     6  C   -0.218340
     7  H    0.227387
     8  H    0.230227
     9  H    0.275900
    10  H    0.275508
    11  H    0.223490
    12  N    0.488054
    13  O   -0.460483
    14  O   -0.460283
    15  C   -0.298533
    16  C   -0.298889
    17  C   -0.486664
    18  H    0.152754
    19  H    0.149043
    20  H    0.156416
    21  H    0.142992
    22  H    0.147042
    23  H    0.160959
    24  H    0.169674
    25  C   -0.298488
    26  C   -0.300099
    27  C   -0.476009
    28  H    0.150951
    29  H    0.147976
    30  H    0.153371
    31  H    0.152138
    32  H    0.154938
    33  H    0.156005
    34  H    0.161848
 Sum of Mulliken charges =  -0.00000

 Dipole moment (field-independent basis, Debye):
    X=              4.7922    Y=              1.8465    Z=              1.2870  Tot=              5.2945
 Quadrupole moment (field-independent basis, Debye-Ang):
   XX=           -130.7063   YY=            -90.6081   ZZ=            -93.7449
   XY=             -8.5381   XZ=             -4.5712   YZ=             -1.0681

 Normal termination of Gaussian 16 at Wed May  5 18:52:32 2021.
