 Gaussian 16, Revision A.03,
 Gaussian 16:  EM64L-G16RevA.03 25-Dec-2016

 -------------
 #p 6-31g* mp2
 -------------

 ------------------------------------------------------
 Input file generated by CHIRIPA (05-May-2021 14:55:20)
 ------------------------------------------------------
 Symbolic Z-matrix:
 Charge =  0 Multiplicity = 1

                         Standard orientation:
 ---------------------------------------------------------------------
 Center     Atomic      Atomic             Coordinates (Angstroms)
 Number     Number       Type             X           Y           Z
 ---------------------------------------------------------------------
      1          6           0        5.601498    1.673455    0.203695
      2          6           0        5.746820    0.329831    0.564357
      3          6           0        4.677044   -0.560487    0.432217
      4          6           0        3.470715   -0.071016   -0.066257
      5          6           0        3.294738    1.262004   -0.434195
      6          6           0        4.378077    2.134440   -0.293553
      7          1           0        6.437793    2.358130    0.309646
      8          1           0        6.695780   -0.030968    0.950809
      9          1           0        4.762029   -1.605674    0.703841
     10          1           0        2.336494    1.592255   -0.816453
     11          1           0        4.262333    3.177392   -0.574444
     12          7           0        2.331011   -1.004091   -0.210648
     13          8           0        1.278596   -0.548035   -0.652317
     14          8           0        2.511708   -2.173823    0.120581
     15          6           0       -5.441694   -0.019418    0.038611
     16          6           0       -5.889574    1.434273    0.194080
     17          6           0       -7.410119    1.591171    0.160605
     18          1           0       -5.832057   -0.417456   -0.908028
     19          1           0       -5.891143   -0.621975    0.840058
     20          1           0       -5.438304    2.034163   -0.606610
     21          1           0       -5.497938    1.828955    1.140369
     22          1           0       -7.874525    1.017096    0.968915
     23          1           0       -7.814551    1.223469   -0.787989
     24          1           0       -7.708259    2.638189    0.273414
     25          6           0       -3.924198   -0.192462    0.070086
     26          6           0       -3.476317   -1.646153   -0.085381
     27          6           0       -1.955773   -1.803051   -0.051907
     28          1           0       -3.474748    0.410094   -0.731360
     29          1           0       -3.533835    0.205576    1.016725
     30          1           0       -3.867954   -2.040835   -1.031671
     31          1           0       -3.927588   -2.246043    0.715308
     32          1           0       -1.551341   -1.435349    0.896686
     33          1           0       -1.491367   -1.228976   -0.860218
     34          1           0       -1.657633   -2.850069   -0.164717
 ---------------------------------------------------------------------

 SCF Done:  E(RHF) =  -669.535622874     A.U. after   15 cycles
 E2 =    -0.2090971075D+01 EUMP2 =    -0.67162659394934D+03

 The electronic state is 1-A.
 Alpha  occ. eigenvalues --  -20.60870 -20.60856 -15.85903 -11.31257 -11.27824
 Alpha  occ. eigenvalues --  -11.27820 -11.27566 -11.26838 -11.26828 -11.21046
 Alpha  occ. eigenvalues --  -11.20651 -11.20623 -11.20420 -11.20301 -11.19158
 Alpha  occ. eigenvalues --   -1.59926  -1.39483  -1.19428  -1.08826  -1.07550
 Alpha  occ. eigenvalues --   -1.04829  -1.02532  -0.95666  -0.94935  -0.86229
 Alpha  occ. eigenvalues --   -0.85938  -0.82497  -0.78633  -0.77546  -0.77303
 Alpha  occ. eigenvalues --   -0.72123  -0.71245  -0.70537  -0.65083  -0.64832
 Alpha  occ. eigenvalues --   -0.64196  -0.62176  -0.59939  -0.58415  -0.56545
 Alpha  occ. eigenvalues --   -0.55332  -0.54229  -0.53160  -0.52922  -0.51614
 Alpha  occ. eigenvalues --   -0.51374  -0.49029  -0.48874  -0.48728  -0.46873
 Alpha  occ. eigenvalues --   -0.45696  -0.44943  -0.44766  -0.44732  -0.42787
 Alpha  occ. eigenvalues --   -0.37409  -0.36432
 Alpha virt. eigenvalues --    0.04986   0.11222   0.16480   0.21355   0.23657
 Alpha virt. eigenvalues --    0.25347   0.27270   0.27477   0.28184   0.28325
 Alpha virt. eigenvalues --    0.29160   0.30924   0.32355   0.32463   0.32610

 Mulliken charges:
               1
     1  C   -0.170715
     2  C   -0.218580
     3  C   -0.170654
     4  C    0.157761
     5  C   -0.170916
     6  C   -0.218530
     7  H    0.225829
     8  H    0.223673
     9  H    0.275813
    10  H    0.275592
    11  H    0.223675
    12  N    0.490527
    13  O   -0.460591
    14  O   -0.459285
    15  C   -0.297262
    16  C   -0.298758
    17  C   -0.475131
    18  H    0.148347
    19  H    0.148059
    20  H    0.150564
    21  H    0.150520
    22  H    0.154521
    23  H    0.154552
    24  H    0.157970
    25  C   -0.296498
    26  C   -0.302013
    27  C   -0.470117
    28  H    0.148670
    29  H    0.147482
    30  H    0.147484
    31  H    0.146355
    32  H    0.151775
    33  H    0.170584
    34  H    0.159294
 Sum of Mulliken charges =  -0.00000

 Dipole moment (field-independent basis, Debye):
    X=              4.3787    Y=              3.2657    Z=              0.4558  Tot=              5.4814
 Quadrupole moment (field-independent basis, Debye-Ang):
   XX=            -68.4075   YY=            -92.9454   ZZ=            -94.0098
   XY=              9.1925   XZ=              2.8238   YZ=             -1.8859

 Normal termination of Gaussian 16 at Thu May  6 01:23:00 2021.
