 Gaussian 16, Revision A.03,
 Gaussian 16:  EM64L-G16RevA.03 25-Dec-2016

 -------------
 #p 6-31g* mp2
 -------------

 ------------------------------------------------------
 Input file generated by CHIRIPA (05-May-2021 14:55:23)
 ------------------------------------------------------
 Symbolic Z-matrix:
 Charge =  0 Multiplicity = 1

                         Standard orientation:
 ---------------------------------------------------------------------
 Center     Atomic      Atomic             Coordinates (Angstroms)
 Number     Number       Type             X           Y           Z
 ---------------------------------------------------------------------
      1          6           0        3.613001   -2.145666   -0.960218
      2          6           0        3.272787   -1.034227   -1.738344
      3          6           0        2.734499    0.110857   -1.143722
      4          6           0        2.548985    0.110143    0.237898
      5          6           0        2.877982   -0.981380    1.040162
      6          6           0        3.414862   -2.115748    0.424111
      7          1           0        4.030609   -3.031032   -1.430459
      8          1           0        3.425564   -1.054639   -2.813653
      9          1           0        2.462323    0.985263   -1.722299
     10          1           0        2.714092   -0.931288    2.109764
     11          1           0        3.678155   -2.977441    1.030910
     12          7           0        1.979869    1.316720    0.878742
     13          8           0        1.826219    1.290979    2.097908
     14          8           0        1.698222    2.265330    0.149734
     15          6           0       -4.011577   -0.318409   -0.207123
     16          6           0       -3.841301   -1.694839    0.436639
     17          6           0       -5.107827   -2.547315    0.353043
     18          1           0       -4.842518    0.207939    0.282204
     19          1           0       -4.299488   -0.446738   -1.259755
     20          1           0       -3.552448   -1.563954    1.487377
     21          1           0       -3.010546   -2.217896   -0.054150
     22          1           0       -5.396267   -2.707362   -0.690886
     23          1           0       -5.941248   -2.049705    0.859400
     24          1           0       -4.963852   -3.526999    0.819255
     25          6           0       -2.753945    0.545518   -0.131512
     26          6           0       -2.924221    1.921949   -0.775276
     27          6           0       -1.657694    2.774426   -0.691680
     28          1           0       -2.466034    0.673849    0.921119
     29          1           0       -1.923005    0.019171   -0.620840
     30          1           0       -3.754977    2.445006   -0.284487
     31          1           0       -3.213074    1.791066   -1.826013
     32          1           0       -0.824274    2.276816   -1.198035
     33          1           0       -1.369255    2.934473    0.352250
     34          1           0       -1.801671    3.754108   -1.157890
 ---------------------------------------------------------------------

 SCF Done:  E(RHF) =  -669.535691692     A.U. after   15 cycles
 E2 =    -0.2091552598D+01 EUMP2 =    -0.67162724428940D+03

 The electronic state is 1-A.
 Alpha  occ. eigenvalues --  -20.60878 -20.60846 -15.85886 -11.31251 -11.27820
 Alpha  occ. eigenvalues --  -11.27811 -11.27558 -11.26833 -11.26823 -11.21324
 Alpha  occ. eigenvalues --  -11.20973 -11.20874 -11.20814 -11.20755 -11.19762
 Alpha  occ. eigenvalues --   -1.59922  -1.39478  -1.19421  -1.08818  -1.07905
 Alpha  occ. eigenvalues --   -1.04823  -1.02922  -0.95661  -0.95334  -0.86347
 Alpha  occ. eigenvalues --   -0.86221  -0.82489  -0.79008  -0.77701  -0.77526
 Alpha  occ. eigenvalues --   -0.72114  -0.71235  -0.70530  -0.65076  -0.64827
 Alpha  occ. eigenvalues --   -0.64545  -0.62171  -0.60324  -0.58782  -0.56950
 Alpha  occ. eigenvalues --   -0.55326  -0.54622  -0.53154  -0.52916  -0.52034
 Alpha  occ. eigenvalues --   -0.51748  -0.49310  -0.48877  -0.48849  -0.47317
 Alpha  occ. eigenvalues --   -0.46066  -0.45340  -0.45137  -0.44662  -0.43195
 Alpha  occ. eigenvalues --   -0.37399  -0.36426
 Alpha virt. eigenvalues --    0.04973   0.11215   0.16445   0.21299   0.23316
 Alpha virt. eigenvalues --    0.24832   0.26918   0.27305   0.27789   0.28088
 Alpha virt. eigenvalues --    0.28931   0.30755   0.31737   0.32227   0.32538

 Mulliken charges:
               1
     1  C   -0.170748
     2  C   -0.218528
     3  C   -0.171732
     4  C    0.158896
     5  C   -0.170692
     6  C   -0.218478
     7  H    0.225825
     8  H    0.223645
     9  H    0.275680
    10  H    0.275792
    11  H    0.223720
    12  N    0.488461
    13  O   -0.460317
    14  O   -0.457591
    15  C   -0.297480
    16  C   -0.299113
    17  C   -0.475264
    18  H    0.149817
    19  H    0.147370
    20  H    0.152757
    21  H    0.149027
    22  H    0.154060
    23  H    0.155604
    24  H    0.158313
    25  C   -0.297720
    26  C   -0.301100
    27  C   -0.473466
    28  H    0.153691
    29  H    0.144204
    30  H    0.149611
    31  H    0.146222
    32  H    0.156856
    33  H    0.167611
    34  H    0.155068
 Sum of Mulliken charges =  -0.00000

 Dipole moment (field-independent basis, Debye):
    X=              2.2089    Y=             -4.1591    Z=             -2.1606  Tot=              5.1813
 Quadrupole moment (field-independent basis, Debye-Ang):
   XX=            -86.5589   YY=            -95.5659   ZZ=            -91.2455
   XY=            -11.8112   XZ=             -5.6324   YZ=             -2.9864

 Normal termination of Gaussian 16 at Wed May  5 16:03:15 2021.
