 Gaussian 16, Revision A.03,
 Gaussian 16:  EM64L-G16RevA.03 25-Dec-2016

 -------------
 #p 6-31g* mp2
 -------------

 ------------------------------------------------------
 Input file generated by CHIRIPA (05-May-2021 14:55:23)
 ------------------------------------------------------
 Symbolic Z-matrix:
 Charge =  0 Multiplicity = 1

                         Standard orientation:
 ---------------------------------------------------------------------
 Center     Atomic      Atomic             Coordinates (Angstroms)
 Number     Number       Type             X           Y           Z
 ---------------------------------------------------------------------
      1          6           0        1.689085    1.407202    0.435703
      2          6           0        2.289998    0.747768    1.513001
      3          6           0        3.422144   -0.048459    1.315983
      4          6           0        3.929221   -0.163596    0.022574
      5          6           0        3.353066    0.480836   -1.071064
      6          6           0        2.221598    1.271869   -0.850624
      7          1           0        0.809870    2.023713    0.597849
      8          1           0        1.878613    0.851047    2.513072
      9          1           0        3.907248   -0.570068    2.132080
     10          1           0        3.786037    0.358686   -2.056474
     11          1           0        1.757006    1.782831   -1.689145
     12          7           0        5.127414   -1.003776   -0.198399
     13          8           0        5.554831   -1.089005   -1.347611
     14          8           0        5.616453   -1.561172    0.781799
     15          6           0       -5.308457   -0.401486   -0.410992
     16          6           0       -6.458780   -0.780750    0.522228
     17          6           0       -7.514730   -1.648332   -0.163386
     18          1           0       -5.712446    0.130686   -1.283075
     19          1           0       -4.838893   -1.318078   -0.794089
     20          1           0       -6.925153    0.136284    0.904535
     21          1           0       -6.051984   -1.311913    1.392284
     22          1           0       -7.069824   -2.579083   -0.529943
     23          1           0       -7.947954   -1.122656   -1.020464
     24          1           0       -8.327776   -1.907770    0.521820
     25          6           0       -4.244808    0.465803    0.259971
     26          6           0       -3.094485    0.845067   -0.673249
     27          6           0       -2.038535    1.712649    0.012365
     28          1           0       -4.714372    1.382395    0.643068
     29          1           0       -3.840818   -0.066369    1.132054
     30          1           0       -3.501281    1.376230   -1.543306
     31          1           0       -2.628111   -0.071967   -1.055556
     32          1           0       -1.605310    1.186973    0.869442
     33          1           0       -2.483440    2.643399    0.378922
     34          1           0       -1.225489    1.972087   -0.672841
 ---------------------------------------------------------------------

 SCF Done:  E(RHF) =  -669.534909338     A.U. after   15 cycles
 E2 =    -0.2091353955D+01 EUMP2 =    -0.67162626329255D+03

 The electronic state is 1-A.
 Alpha  occ. eigenvalues --  -20.60708 -20.60703 -15.85763 -11.31105 -11.27692
 Alpha  occ. eigenvalues --  -11.27688 -11.27324 -11.26680 -11.26666 -11.22497
 Alpha  occ. eigenvalues --  -11.22346 -11.22091 -11.22050 -11.21912 -11.21433
 Alpha  occ. eigenvalues --   -1.59785  -1.39339  -1.19281  -1.09101  -1.08669
 Alpha  occ. eigenvalues --   -1.04687  -1.04252  -0.96745  -0.95504  -0.87775
 Alpha  occ. eigenvalues --   -0.86082  -0.82351  -0.80335  -0.78865  -0.77404
 Alpha  occ. eigenvalues --   -0.71981  -0.71109  -0.70393  -0.65720  -0.64931
 Alpha  occ. eigenvalues --   -0.64703  -0.62044  -0.61639  -0.60160  -0.58312
 Alpha  occ. eigenvalues --   -0.56085  -0.55192  -0.53366  -0.53157  -0.52977
 Alpha  occ. eigenvalues --   -0.52776  -0.50641  -0.48740  -0.48737  -0.48637
 Alpha  occ. eigenvalues --   -0.47322  -0.46421  -0.46309  -0.44750  -0.44490
 Alpha  occ. eigenvalues --   -0.37226  -0.36302
 Alpha virt. eigenvalues --    0.05130   0.11316   0.16591   0.20589   0.22362
 Alpha virt. eigenvalues --    0.23849   0.25784   0.26152   0.26540   0.27324
 Alpha virt. eigenvalues --    0.28825   0.29880   0.30593   0.31208   0.31855

 Mulliken charges:
               1
     1  C   -0.172039
     2  C   -0.221610
     3  C   -0.170624
     4  C    0.157845
     5  C   -0.170761
     6  C   -0.221840
     7  H    0.235624
     8  H    0.222922
     9  H    0.275196
    10  H    0.275249
    11  H    0.222492
    12  N    0.488129
    13  O   -0.460766
    14  O   -0.460765
    15  C   -0.299071
    16  C   -0.300121
    17  C   -0.476105
    18  H    0.150593
    19  H    0.151142
    20  H    0.152238
    21  H    0.152487
    22  H    0.156156
    23  H    0.155710
    24  H    0.161545
    25  C   -0.299426
    26  C   -0.299789
    27  C   -0.480191
    28  H    0.150277
    29  H    0.150319
    30  H    0.154456
    31  H    0.155768
    32  H    0.153818
    33  H    0.158612
    34  H    0.152532
 Sum of Mulliken charges =  -0.00000

 Dipole moment (field-independent basis, Debye):
    X=             -4.4837    Y=              2.9264    Z=              0.7708  Tot=              5.4094
 Quadrupole moment (field-independent basis, Debye-Ang):
   XX=           -128.5213   YY=            -95.9956   ZZ=            -90.0500
   XY=             11.4813   XZ=              3.0489   YZ=             -1.7299

 Normal termination of Gaussian 16 at Wed May  5 20:44:58 2021.
