 Gaussian 16, Revision A.03,
 Gaussian 16:  EM64L-G16RevA.03 25-Dec-2016

 -------------
 #p 6-31g* mp2
 -------------

 ------------------------------------------------------
 Input file generated by CHIRIPA (05-May-2021 14:51:11)
 ------------------------------------------------------
 Symbolic Z-matrix:
 Charge =  0 Multiplicity = 1

                         Standard orientation:
 ---------------------------------------------------------------------
 Center     Atomic      Atomic             Coordinates (Angstroms)
 Number     Number       Type             X           Y           Z
 ---------------------------------------------------------------------
      1          6           0       -3.807843    1.012415   -0.081104
      2          6           0       -2.279812    0.958320   -0.094479
      3          6           0       -1.638633    2.344976   -0.032275
      4          1           0       -4.154456    1.616665   -0.930625
      5          1           0       -4.141479    1.531213    0.828253
      6          1           0       -1.949195    0.438558   -1.002859
      7          1           0       -1.936803    0.353969    0.755063
      8          1           0       -1.939904    2.868087    0.881066
      9          1           0       -1.952366    2.953156   -0.886844
     10          1           0       -0.545980    2.282893   -0.042964
     11          6           0       -4.463398   -0.366051   -0.142813
     12          6           0       -5.991430   -0.311957   -0.129438
     13          6           0       -6.632608   -1.698612   -0.191642
     14          1           0       -4.129762   -0.884850   -1.052169
     15          1           0       -4.116785   -0.970301    0.706708
     16          1           0       -6.334438    0.292394   -0.978980
     17          1           0       -6.322046    0.207806    0.778942
     18          1           0       -6.318875   -2.306793    0.662928
     19          1           0       -6.331338   -2.221724   -1.104983
     20          1           0       -7.725262   -1.636530   -0.180952
     21          6           0        4.727062   -0.444550   -0.355907
     22          6           0        6.055814    0.067533    0.201027
     23          6           0        7.229554   -0.182556   -0.746381
     24          1           0        4.812630   -1.520664   -0.559879
     25          1           0        4.530293    0.041898   -1.321332
     26          1           0        6.249343   -0.418705    1.165773
     27          1           0        5.967012    1.142513    0.403877
     28          1           0        7.062734    0.316414   -1.706485
     29          1           0        7.346669   -1.253675   -0.940260
     30          1           0        8.169477    0.191341   -0.328520
     31          6           0        3.544179   -0.201813    0.579824
     32          6           0        2.215427   -0.713896    0.022889
     33          6           0        1.041687   -0.463808    0.970297
     34          1           0        3.740948   -0.688261    1.545248
     35          1           0        3.458611    0.874299    0.783796
     36          1           0        2.304229   -1.788876   -0.179960
     37          1           0        2.021898   -0.227658   -0.941857
     38          1           0        0.924572    0.607311    1.164176
     39          1           0        1.208507   -0.962778    1.930402
     40          1           0        0.101764   -0.837704    0.552438
 ---------------------------------------------------------------------

 SCF Done:  E(RHF) =  -470.732291306     A.U. after   11 cycles
 E2 =    -0.1583263473D+01 EUMP2 =    -0.47231555477891D+03

 The electronic state is 1-A.
 Alpha  occ. eigenvalues --  -11.21593 -11.21587 -11.21577 -11.21519 -11.21392
 Alpha  occ. eigenvalues --  -11.21378 -11.21332 -11.21312 -11.21065 -11.21061
 Alpha  occ. eigenvalues --  -11.21034 -11.20967  -1.08429  -1.08389  -1.03569
 Alpha  occ. eigenvalues --   -1.03447  -0.96036  -0.95882  -0.86987  -0.86972
 Alpha  occ. eigenvalues --   -0.79677  -0.79486  -0.78252  -0.78194  -0.65064
 Alpha  occ. eigenvalues --   -0.65024  -0.60998  -0.60871  -0.59531  -0.59151
 Alpha  occ. eigenvalues --   -0.57646  -0.57510  -0.55293  -0.55169  -0.52726
 Alpha  occ. eigenvalues --   -0.52611  -0.52462  -0.52288  -0.49894  -0.49868
 Alpha  occ. eigenvalues --   -0.48046  -0.47719  -0.46650  -0.46552  -0.45774
 Alpha  occ. eigenvalues --   -0.45759  -0.45707  -0.45665  -0.43813  -0.43624
 Alpha virt. eigenvalues --    0.21611   0.23032   0.23515   0.25141   0.26426
 Alpha virt. eigenvalues --    0.26566   0.26803   0.27282   0.27754   0.29218
 Alpha virt. eigenvalues --    0.30395   0.31053   0.31348   0.31793   0.32852

 Mulliken charges:
               1
     1  C   -0.297805
     2  C   -0.302200
     3  C   -0.478195
     4  H    0.149190
     5  H    0.149349
     6  H    0.150846
     7  H    0.157427
     8  H    0.154883
     9  H    0.154803
    10  H    0.162344
    11  C   -0.298381
    12  C   -0.299556
    13  C   -0.475703
    14  H    0.149217
    15  H    0.149454
    16  H    0.151934
    17  H    0.151951
    18  H    0.155162
    19  H    0.155109
    20  H    0.160215
    21  C   -0.298246
    22  C   -0.299620
    23  C   -0.475690
    24  H    0.149616
    25  H    0.149447
    26  H    0.151901
    27  H    0.151933
    28  H    0.155166
    29  H    0.155153
    30  H    0.160228
    31  C   -0.298399
    32  C   -0.300173
    33  C   -0.481844
    34  H    0.149518
    35  H    0.149360
    36  H    0.151818
    37  H    0.151659
    38  H    0.157425
    39  H    0.154060
    40  H    0.166645
 Sum of Mulliken charges =  -0.00000

 Dipole moment (field-independent basis, Debye):
    X=             -0.0069    Y=             -0.0077    Z=              0.0117  Tot=              0.0156
 Quadrupole moment (field-independent basis, Debye-Ang):
   XX=            -86.2386   YY=            -84.8750   ZZ=            -83.8858
   XY=             -0.5809   XZ=              0.5501   YZ=             -0.5495

 Normal termination of Gaussian 16 at Thu May  6 03:52:14 2021.
