 Gaussian 16, Revision A.03,
 Gaussian 16:  EM64L-G16RevA.03 25-Dec-2016

 -------------
 #p 6-31g* mp2
 -------------

 ------------------------------------------------------
 Input file generated by CHIRIPA (05-May-2021 14:57:22)
 ------------------------------------------------------
 Symbolic Z-matrix:
 Charge =  0 Multiplicity = 1

                         Standard orientation:
 ---------------------------------------------------------------------
 Center     Atomic      Atomic             Coordinates (Angstroms)
 Number     Number       Type             X           Y           Z
 ---------------------------------------------------------------------
      1          6           0        4.901666   -1.908610    0.486960
      2          6           0        4.049731   -1.419771    1.482833
      3          6           0        3.347442   -0.225870    1.293253
      4          6           0        3.521517    0.456572    0.090231
      5          6           0        4.362972   -0.004685   -0.920950
      6          6           0        5.055296   -1.200755   -0.709644
      7          1           0        5.443351   -2.836904    0.642669
      8          1           0        3.928477   -1.967390    2.413131
      9          1           0        2.681418    0.175326    2.047488
     10          1           0        4.463369    0.563441   -1.837777
     11          1           0        5.716240   -1.578010   -1.484807
     12          7           0        2.783310    1.721649   -0.121969
     13          8           0        2.953956    2.304112   -1.190732
     14          8           0        2.048035    2.106799    0.784489
     15          6           0       -1.294864   -0.899258   -0.778869
     16          6           0       -2.325977   -1.842322   -0.841770
     17          6           0       -3.630907   -1.492645   -0.482005
     18          6           0       -3.870210   -0.185117   -0.062011
     19          6           0       -2.864188    0.777084    0.011343
     20          6           0       -1.566781    0.405135   -0.353263
     21          1           0       -0.284085   -1.179546   -1.060223
     22          1           0       -2.117726   -2.856064   -1.171927
     23          1           0       -4.447956   -2.202790   -0.521276
     24          1           0       -3.102593    1.779905    0.344403
     25          1           0       -0.767975    1.139622   -0.303425
     26          7           0       -5.247698    0.196859    0.321420
     27          8           0       -5.432512    1.355316    0.688105
     28          8           0       -6.116478   -0.669438    0.248005
 ---------------------------------------------------------------------

 SCF Done:  E(RHF) =  -868.339331813     A.U. after   16 cycles
 E2 =    -0.2598907371D+01 EUMP2 =    -0.87093823918395D+03

 The electronic state is 1-A.
 Alpha  occ. eigenvalues --  -20.61898 -20.61879 -20.60377 -20.60363 -15.86913
 Alpha  occ. eigenvalues --  -15.85420 -11.32121 -11.30723 -11.28652 -11.28648
 Alpha  occ. eigenvalues --  -11.28343 -11.27612 -11.27601 -11.27311 -11.27185
 Alpha  occ. eigenvalues --  -11.27015 -11.26362 -11.26106  -1.60965  -1.59449
 Alpha  occ. eigenvalues --   -1.40515  -1.39003  -1.20272  -1.18876  -1.09692
 Alpha  occ. eigenvalues --   -1.08294  -1.05633  -1.04247  -0.96548  -0.95143
 Alpha  occ. eigenvalues --   -0.87035  -0.85654  -0.83373  -0.81957  -0.78449
 Alpha  occ. eigenvalues --   -0.77007  -0.73115  -0.72297  -0.71640  -0.71347
 Alpha  occ. eigenvalues --   -0.70771  -0.70013  -0.65909  -0.65612  -0.64523
 Alpha  occ. eigenvalues --   -0.64218  -0.62968  -0.61573  -0.56121  -0.54798
 Alpha  occ. eigenvalues --   -0.53990  -0.53703  -0.52611  -0.52312  -0.49895
 Alpha  occ. eigenvalues --   -0.49869  -0.48400  -0.48392  -0.45934  -0.44422
 Alpha  occ. eigenvalues --   -0.38247  -0.37237  -0.36884  -0.35847
 Alpha virt. eigenvalues --    0.04024   0.05491   0.10417   0.11796   0.15544
 Alpha virt. eigenvalues --    0.17004   0.20647   0.21901   0.26591   0.27406
 Alpha virt. eigenvalues --    0.27976   0.28627   0.30287   0.31468   0.31844

 Mulliken charges:
               1
     1  C   -0.170503
     2  C   -0.219040
     3  C   -0.172845
     4  C    0.154182
     5  C   -0.172020
     6  C   -0.219027
     7  H    0.228678
     8  H    0.226763
     9  H    0.277538
    10  H    0.277199
    11  H    0.226232
    12  N    0.485661
    13  O   -0.456292
    14  O   -0.462790
    15  C   -0.173244
    16  C   -0.218694
    17  C   -0.172752
    18  C    0.158479
    19  C   -0.172474
    20  C   -0.224463
    21  H    0.221469
    22  H    0.219664
    23  H    0.273372
    24  H    0.278051
    25  H    0.241213
    26  N    0.487972
    27  O   -0.459735
    28  O   -0.462592
 Sum of Mulliken charges =  -0.00000

 Dipole moment (field-independent basis, Debye):
    X=              7.8175    Y=             -5.7149    Z=             -0.5611  Tot=              9.6999
 Quadrupole moment (field-independent basis, Debye-Ang):
   XX=           -123.5086   YY=           -104.7127   ZZ=           -101.0477
   XY=             -9.1737   XZ=              5.9832   YZ=              0.6926

 Normal termination of Gaussian 16 at Thu May  6 04:57:51 2021.
