 Gaussian 16, Revision A.03,
 Gaussian 16:  EM64L-G16RevA.03 25-Dec-2016

 -------------
 #p 6-31g* mp2
 -------------

 ------------------------------------------------------
 Input file generated by CHIRIPA (05-May-2021 14:57:25)
 ------------------------------------------------------
 Symbolic Z-matrix:
 Charge =  0 Multiplicity = 1

                         Standard orientation:
 ---------------------------------------------------------------------
 Center     Atomic      Atomic             Coordinates (Angstroms)
 Number     Number       Type             X           Y           Z
 ---------------------------------------------------------------------
      1          6           0       -2.717134    2.310144    1.075037
      2          6           0       -1.947079    2.326785   -0.092550
      3          6           0       -1.744601    1.154117   -0.826308
      4          6           0       -2.329557   -0.022767   -0.361486
      5          6           0       -3.101930   -0.071557    0.797975
      6          6           0       -3.291090    1.113137    1.515796
      7          1           0       -2.869252    3.225772    1.638847
      8          1           0       -1.500125    3.254942   -0.437225
      9          1           0       -1.152991    1.138577   -1.733598
     10          1           0       -3.534698   -1.012115    1.116535
     11          1           0       -3.889601    1.097234    2.422204
     12          7           0       -2.122252   -1.270584   -1.129847
     13          8           0       -2.648387   -2.294482   -0.699206
     14          8           0       -1.437556   -1.201097   -2.148179
     15          6           0        1.534206   -1.800971    1.984031
     16          6           0        2.198840   -0.632446    2.370465
     17          6           0        2.662769    0.271240    1.409908
     18          6           0        2.443919   -0.026458    0.065747
     19          6           0        1.785170   -1.182233   -0.350817
     20          6           0        1.329852   -2.071658    0.627015
     21          1           0        1.177159   -2.497437    2.736924
     22          1           0        2.358954   -0.419637    3.423613
     23          1           0        3.180346    1.183334    1.681234
     24          1           0        1.640422   -1.367077   -1.408313
     25          1           0        0.814006   -2.978368    0.323988
     26          7           0        2.930502    0.922686   -0.960296
     27          8           0        2.725148    0.637370   -2.138032
     28          8           0        3.508026    1.933968   -0.567344
 ---------------------------------------------------------------------

 SCF Done:  E(RHF) =  -868.340191251     A.U. after   16 cycles
 E2 =    -0.2600709015D+01 EUMP2 =    -0.87094090026665D+03

 The electronic state is 1-A.
 Alpha  occ. eigenvalues --  -20.61253 -20.61247 -20.60688 -20.60664 -15.86269
 Alpha  occ. eigenvalues --  -15.85720 -11.31387 -11.30926 -11.27977 -11.27858
 Alpha  occ. eigenvalues --  -11.27643 -11.27568 -11.27342 -11.27235 -11.26945
 Alpha  occ. eigenvalues --  -11.26838 -11.26548 -11.26340  -1.60322  -1.59764
 Alpha  occ. eigenvalues --   -1.39880  -1.39315  -1.19542  -1.19102  -1.08989
 Alpha  occ. eigenvalues --   -1.08534  -1.04905  -1.04458  -0.95862  -0.95383
 Alpha  occ. eigenvalues --   -0.86317  -0.85864  -0.82699  -0.82202  -0.77773
 Alpha  occ. eigenvalues --   -0.77259  -0.72498  -0.71937  -0.71641  -0.71098
 Alpha  occ. eigenvalues --   -0.70651  -0.70187  -0.65200  -0.64904  -0.64741
 Alpha  occ. eigenvalues --   -0.64430  -0.62247  -0.61762  -0.55428  -0.54986
 Alpha  occ. eigenvalues --   -0.53304  -0.52989  -0.52784  -0.52516  -0.49268
 Alpha  occ. eigenvalues --   -0.49238  -0.48703  -0.48681  -0.45339  -0.44752
 Alpha  occ. eigenvalues --   -0.37533  -0.37147  -0.36468  -0.36038
 Alpha virt. eigenvalues --    0.04696   0.05218   0.10998   0.11720   0.16239
 Alpha virt. eigenvalues --    0.16724   0.21289   0.21862   0.27249   0.27684
 Alpha virt. eigenvalues --    0.28196   0.28777   0.30902   0.31305   0.32171

 Mulliken charges:
               1
     1  C   -0.170428
     2  C   -0.219248
     3  C   -0.173049
     4  C    0.159304
     5  C   -0.171995
     6  C   -0.219142
     7  H    0.226497
     8  H    0.228966
     9  H    0.282613
    10  H    0.272931
    11  H    0.222471
    12  N    0.487614
    13  O   -0.464212
    14  O   -0.460835
    15  C   -0.170715
    16  C   -0.219385
    17  C   -0.172053
    18  C    0.155201
    19  C   -0.174290
    20  C   -0.227251
    21  H    0.225275
    22  H    0.220595
    23  H    0.272528
    24  H    0.289006
    25  H    0.235820
    26  N    0.486420
    27  O   -0.458176
    28  O   -0.464463
 Sum of Mulliken charges =  -0.00000

 Dipole moment (field-independent basis, Debye):
    X=             -2.5289    Y=              1.0276    Z=              6.1737  Tot=              6.7503
 Quadrupole moment (field-independent basis, Debye-Ang):
   XX=           -109.4647   YY=           -102.3261   ZZ=           -102.2438
   XY=            -16.2391   XZ=              1.8071   YZ=             -1.4115

 Normal termination of Gaussian 16 at Thu May  6 21:17:53 2021.
