 Gaussian 16, Revision A.03,
 Gaussian 16:  EM64L-G16RevA.03 25-Dec-2016

 -------------
 #p 6-31g* mp2
 -------------

 ------------------------------------------------------
 Input file generated by CHIRIPA (05-May-2021 14:53:18)
 ------------------------------------------------------
 Symbolic Z-matrix:
 Charge =  0 Multiplicity = 1

                         Standard orientation:
 ---------------------------------------------------------------------
 Center     Atomic      Atomic             Coordinates (Angstroms)
 Number     Number       Type             X           Y           Z
 ---------------------------------------------------------------------
      1          6           0        4.025388    0.253511   -0.381135
      2          6           0        5.068012   -0.626689    0.308914
      3          6           0        6.024972   -1.294557   -0.679000
      4          1           0        3.452787   -0.356798   -1.092890
      5          1           0        4.539523    1.023664   -0.972678
      6          1           0        4.552052   -1.394099    0.900085
      7          1           0        5.638070   -0.014256    1.019249
      8          1           0        6.565723   -0.541092   -1.260791
      9          1           0        5.473534   -1.928774   -1.380631
     10          1           0        6.761899   -1.919007   -0.164354
     11          6           0        3.061450    0.928033    0.593325
     12          6           0        2.018825    1.808233   -0.096723
     13          6           0        1.061865    2.476101    0.891191
     14          1           0        2.547315    0.157879    1.184868
     15          1           0        3.634051    1.538342    1.305081
     16          1           0        1.448767    1.195800   -0.807059
     17          1           0        2.534785    2.575642   -0.687895
     18          1           0        1.613303    3.110318    1.592821
     19          1           0        0.521115    1.722636    1.472981
     20          1           0        0.324938    3.100551    0.376545
     21          6           0       -4.799643    1.014482   -0.329682
     22          6           0       -4.933995   -0.282203    0.177347
     23          6           0       -3.815371   -1.108837    0.318439
     24          6           0       -2.571912   -0.604237   -0.059028
     25          6           0       -2.405687    0.683104   -0.567371
     26          6           0       -3.538142    1.492155   -0.699770
     27          1           0       -5.673990    1.649801   -0.435910
     28          1           0       -5.912452   -0.655823    0.465571
     29          1           0       -3.890820   -2.116727    0.708160
     30          1           0       -1.417247    1.027594   -0.846170
     31          1           0       -3.430810    2.498754   -1.093830
     32          7           0       -1.380354   -1.470050    0.085739
     33          8           0       -0.295897   -1.001897   -0.253999
     34          8           0       -1.553431   -2.600432    0.536203
 ---------------------------------------------------------------------

 SCF Done:  E(RHF) =  -669.536346011     A.U. after   15 cycles
 E2 =    -0.2092213535D+01 EUMP2 =    -0.67162855954573D+03

 The electronic state is 1-A.
 Alpha  occ. eigenvalues --  -20.60990 -20.60977 -15.86016 -11.31278 -11.27845
 Alpha  occ. eigenvalues --  -11.27821 -11.27575 -11.26841 -11.26825 -11.20854
 Alpha  occ. eigenvalues --  -11.20781 -11.20719 -11.20489 -11.20427 -11.20363
 Alpha  occ. eigenvalues --   -1.60046  -1.39604  -1.19447  -1.08863  -1.07587
 Alpha  occ. eigenvalues --   -1.04834  -1.02826  -0.95715  -0.95299  -0.86335
 Alpha  occ. eigenvalues --   -0.86226  -0.82552  -0.78886  -0.77624  -0.77382
 Alpha  occ. eigenvalues --   -0.72256  -0.71356  -0.70558  -0.65117  -0.64849
 Alpha  occ. eigenvalues --   -0.64150  -0.62198  -0.60171  -0.58700  -0.56926
 Alpha  occ. eigenvalues --   -0.55346  -0.54566  -0.53169  -0.52917  -0.52053
 Alpha  occ. eigenvalues --   -0.51743  -0.49232  -0.49008  -0.48970  -0.47214
 Alpha  occ. eigenvalues --   -0.45859  -0.45078  -0.44919  -0.44767  -0.43054
 Alpha  occ. eigenvalues --   -0.37426  -0.36427
 Alpha virt. eigenvalues --    0.04896   0.11194   0.16391   0.20545   0.23456
 Alpha virt. eigenvalues --    0.24371   0.26905   0.27391   0.28012   0.28457
 Alpha virt. eigenvalues --    0.29324   0.30680   0.31728   0.32115   0.32278

 Mulliken charges:
               1
     1  C   -0.299501
     2  C   -0.299908
     3  C   -0.475557
     4  H    0.157884
     5  H    0.144049
     6  H    0.156258
     7  H    0.148377
     8  H    0.152324
     9  H    0.156836
    10  H    0.158134
    11  C   -0.298256
    12  C   -0.304499
    13  C   -0.478061
    14  H    0.161993
    15  H    0.143572
    16  H    0.166584
    17  H    0.145395
    18  H    0.154662
    19  H    0.160362
    20  H    0.145821
    21  C   -0.170146
    22  C   -0.218868
    23  C   -0.170418
    24  C    0.155912
    25  C   -0.171879
    26  C   -0.220368
    27  H    0.226008
    28  H    0.223723
    29  H    0.275597
    30  H    0.283141
    31  H    0.224186
    32  N    0.492345
    33  O   -0.466893
    34  O   -0.458812
 Sum of Mulliken charges =  -0.00000

 Dipole moment (field-independent basis, Debye):
    X=             -4.3692    Y=              2.8146    Z=             -0.5070  Tot=              5.2220
 Quadrupole moment (field-independent basis, Debye-Ang):
   XX=            -72.7108   YY=            -96.3923   ZZ=            -95.1921
   XY=             -2.5146   XZ=              0.9198   YZ=             -1.7915

 Normal termination of Gaussian 16 at Thu May  6 17:20:21 2021.
