 Gaussian 16, Revision A.03,
 Gaussian 16:  EM64L-G16RevA.03 25-Dec-2016

 -------------
 #p 6-31g* mp2
 -------------

 ------------------------------------------------------
 Input file generated by CHIRIPA (05-May-2021 14:57:27)
 ------------------------------------------------------
 Symbolic Z-matrix:
 Charge =  0 Multiplicity = 1

                         Standard orientation:
 ---------------------------------------------------------------------
 Center     Atomic      Atomic             Coordinates (Angstroms)
 Number     Number       Type             X           Y           Z
 ---------------------------------------------------------------------
      1          6           0       -1.920456    1.252277    0.320554
      2          6           0       -2.102611    0.248571   -0.636480
      3          6           0       -3.361395   -0.328211   -0.829700
      4          6           0       -4.420745    0.124769   -0.044922
      5          6           0       -4.271064    1.122963    0.916585
      6          6           0       -3.003355    1.685506    1.092671
      7          1           0       -0.939136    1.694805    0.463998
      8          1           0       -1.263428   -0.089854   -1.237549
      9          1           0       -3.530477   -1.106856   -1.563554
     10          1           0       -5.126676    1.439522    1.500655
     11          1           0       -2.864833    2.464829    1.836655
     12          7           0       -5.758087   -0.478307   -0.240406
     13          8           0       -6.675274   -0.061669    0.463737
     14          8           0       -5.863787   -1.356216   -1.094069
     15          6           0        6.392044    0.956317   -0.398143
     16          6           0        6.369064   -0.252114    0.305906
     17          6           0        5.160468   -0.914930    0.539397
     18          6           0        3.988448   -0.338288    0.052423
     19          6           0        3.978702    0.864369   -0.652426
     20          6           0        5.198894    1.509726   -0.874223
     21          1           0        7.335415    1.464428   -0.574983
     22          1           0        7.294131   -0.684236    0.676805
     23          1           0        5.113875   -1.851635    1.081460
     24          1           0        3.040230    1.270504   -1.009833
     25          1           0        5.213722    2.448087   -1.421311
     26          7           0        2.702824   -1.030742    0.293420
     27          8           0        1.684051   -0.501929   -0.146009
     28          8           0        2.738268   -2.089186    0.917179
 ---------------------------------------------------------------------

 SCF Done:  E(RHF) =  -868.339667445     A.U. after   16 cycles
 E2 =    -0.2598506740D+01 EUMP2 =    -0.87093817418482D+03

 The electronic state is 1-A.
 Alpha  occ. eigenvalues --  -20.61819 -20.61737 -20.60011 -20.60002 -15.86826
 Alpha  occ. eigenvalues --  -15.85054 -11.31977 -11.30240 -11.28557 -11.28484
 Alpha  occ. eigenvalues --  -11.28197 -11.27491 -11.27451 -11.26822 -11.26715
 Alpha  occ. eigenvalues --  -11.26407 -11.25812 -11.25571  -1.60838  -1.59088
 Alpha  occ. eigenvalues --   -1.40404  -1.38647  -1.20123  -1.18373  -1.09551
 Alpha  occ. eigenvalues --   -1.07785  -1.05496  -1.03742  -0.96426  -0.94661
 Alpha  occ. eigenvalues --   -0.86903  -0.85134  -0.83272  -0.81500  -0.78349
 Alpha  occ. eigenvalues --   -0.76584  -0.73063  -0.72145  -0.71278  -0.71226
 Alpha  occ. eigenvalues --   -0.70408  -0.69455  -0.65782  -0.65492  -0.64013
 Alpha  occ. eigenvalues --   -0.63704  -0.62851  -0.61087  -0.55989  -0.54209
 Alpha  occ. eigenvalues --   -0.53832  -0.53584  -0.52089  -0.51812  -0.49815
 Alpha  occ. eigenvalues --   -0.49761  -0.48043  -0.48015  -0.45855  -0.44094
 Alpha  occ. eigenvalues --   -0.38081  -0.37090  -0.36319  -0.35343
 Alpha virt. eigenvalues --    0.04170   0.05931   0.10568   0.12318   0.15707
 Alpha virt. eigenvalues --    0.17492   0.20643   0.22427   0.26598   0.27335
 Alpha virt. eigenvalues --    0.28463   0.29163   0.30517   0.31744   0.32314

 Mulliken charges:
               1
     1  C   -0.169427
     2  C   -0.216643
     3  C   -0.173080
     4  C    0.158071
     5  C   -0.172800
     6  C   -0.219308
     7  H    0.227103
     8  H    0.237090
     9  H    0.273628
    10  H    0.271976
    11  H    0.218843
    12  N    0.488203
    13  O   -0.463489
    14  O   -0.462043
    15  C   -0.169974
    16  C   -0.218290
    17  C   -0.170212
    18  C    0.158207
    19  C   -0.170948
    20  C   -0.218174
    21  H    0.228223
    22  H    0.226173
    23  H    0.277462
    24  H    0.270539
    25  H    0.224922
    26  N    0.492229
    27  O   -0.474900
    28  O   -0.453379
 Sum of Mulliken charges =  -0.00000

 Dipole moment (field-independent basis, Debye):
    X=              9.8607    Y=              4.4532    Z=             -0.1720  Tot=             10.8210
 Quadrupole moment (field-independent basis, Debye-Ang):
   XX=           -109.4966   YY=           -102.3625   ZZ=           -102.3559
   XY=             -3.6769   XZ=             -6.3703   YZ=              0.5869

 Normal termination of Gaussian 16 at Thu May  6 21:24:26 2021.
