 Gaussian 16, Revision A.03,
 Gaussian 16:  EM64L-G16RevA.03 25-Dec-2016

 -------------
 #p 6-31g* mp2
 -------------

 ------------------------------------------------------
 Input file generated by CHIRIPA (05-May-2021 14:53:12)
 ------------------------------------------------------
 Symbolic Z-matrix:
 Charge =  0 Multiplicity = 1

                         Standard orientation:
 ---------------------------------------------------------------------
 Center     Atomic      Atomic             Coordinates (Angstroms)
 Number     Number       Type             X           Y           Z
 ---------------------------------------------------------------------
      1          6           0        2.891381    1.136734    0.187703
      2          6           0        2.730996    2.330682   -0.753971
      3          6           0        2.358017    3.618011   -0.018127
      4          1           0        1.954485    0.986038    0.741293
      5          1           0        3.662278    1.369304    0.935382
      6          1           0        1.961608    2.095394   -1.500494
      7          1           0        3.668320    2.478435   -1.305522
      8          1           0        3.128173    3.879871    0.714600
      9          1           0        1.411764    3.494654    0.518520
     10          1           0        2.248405    4.458714   -0.710271
     11          6           0        3.264203   -0.157542   -0.533117
     12          6           0        3.424588   -1.351490    0.408557
     13          6           0        3.797567   -2.638818   -0.327287
     14          1           0        2.493306   -0.390112   -1.280796
     15          1           0        4.201099   -0.006846   -1.086706
     16          1           0        2.487264   -1.499242    0.960108
     17          1           0        4.193976   -1.116202    1.155080
     18          1           0        4.743820   -2.515461   -0.863934
     19          1           0        3.027411   -2.900678   -1.060014
     20          1           0        3.907179   -3.479521    0.364857
     21          6           0       -4.488402    0.942277   -0.383099
     22          6           0       -4.179715   -0.198132   -1.131898
     23          6           0       -3.027739   -0.939828   -0.853711
     24          6           0       -2.203063   -0.510571    0.185008
     25          6           0       -2.483477    0.621219    0.949016
     26          6           0       -3.640793    1.347599    0.653141
     27          1           0       -5.385359    1.512496   -0.606071
     28          1           0       -4.836147   -0.515261   -1.937237
     29          1           0       -2.764817   -1.826601   -1.417558
     30          1           0       -1.809799    0.912571    1.745690
     31          1           0       -3.878014    2.232845    1.236329
     32          7           0       -0.980692   -1.287664    0.488875
     33          8           0       -0.270458   -0.888570    1.409161
     34          8           0       -0.755977   -2.281130   -0.198996
 ---------------------------------------------------------------------

 SCF Done:  E(RHF) =  -669.537021872     A.U. after   15 cycles
 E2 =    -0.2092459838D+01 EUMP2 =    -0.67162948171028D+03

 The electronic state is 1-A.
 Alpha  occ. eigenvalues --  -20.61219 -20.61202 -15.86195 -11.31431 -11.27978
 Alpha  occ. eigenvalues --  -11.27974 -11.27697 -11.26963 -11.26953 -11.20921
 Alpha  occ. eigenvalues --  -11.20650 -11.20261 -11.20119 -11.19848 -11.19595
 Alpha  occ. eigenvalues --   -1.60241  -1.39801  -1.19586  -1.09008  -1.07289
 Alpha  occ. eigenvalues --   -1.04967  -1.02417  -0.95864  -0.94917  -0.86372
 Alpha  occ. eigenvalues --   -0.85949  -0.82702  -0.78530  -0.77768  -0.77013
 Alpha  occ. eigenvalues --   -0.72412  -0.71543  -0.70693  -0.65244  -0.64970
 Alpha  occ. eigenvalues --   -0.63908  -0.62315  -0.59806  -0.58350  -0.56497
 Alpha  occ. eigenvalues --   -0.55475  -0.54210  -0.53302  -0.53057  -0.51664
 Alpha  occ. eigenvalues --   -0.51343  -0.49274  -0.49175  -0.48844  -0.46832
 Alpha  occ. eigenvalues --   -0.45583  -0.45305  -0.44587  -0.44174  -0.42661
 Alpha  occ. eigenvalues --   -0.37557  -0.36562
 Alpha virt. eigenvalues --    0.04712   0.11089   0.16194   0.21169   0.23832
 Alpha virt. eigenvalues --    0.25394   0.27041   0.27500   0.28117   0.28818
 Alpha virt. eigenvalues --    0.29141   0.30983   0.32186   0.32517   0.32765

 Mulliken charges:
               1
     1  C   -0.304878
     2  C   -0.298330
     3  C   -0.473686
     4  H    0.162456
     5  H    0.145886
     6  H    0.147921
     7  H    0.150052
     8  H    0.155062
     9  H    0.150178
    10  H    0.156437
    11  C   -0.295464
    12  C   -0.311086
    13  C   -0.474698
    14  H    0.147773
    15  H    0.142961
    16  H    0.183177
    17  H    0.143218
    18  H    0.146418
    19  H    0.159558
    20  H    0.157619
    21  C   -0.170215
    22  C   -0.218568
    23  C   -0.170580
    24  C    0.158159
    25  C   -0.170802
    26  C   -0.218428
    27  H    0.226620
    28  H    0.224365
    29  H    0.276107
    30  H    0.275995
    31  H    0.224538
    32  N    0.488930
    33  O   -0.458969
    34  O   -0.457723
 Sum of Mulliken charges =  -0.00000

 Dipole moment (field-independent basis, Debye):
    X=             -4.7308    Y=              2.5648    Z=             -0.9552  Tot=              5.4655
 Quadrupole moment (field-independent basis, Debye-Ang):
   XX=            -76.3564   YY=            -97.4606   ZZ=            -93.0364
   XY=             -2.7846   XZ=              3.2001   YZ=              3.4729

 Normal termination of Gaussian 16 at Wed May  5 20:07:12 2021.
