 Gaussian 16, Revision A.03,
 Gaussian 16:  EM64L-G16RevA.03 25-Dec-2016

 -------------
 #p 6-31g* mp2
 -------------

 ------------------------------------------------------
 Input file generated by CHIRIPA (05-May-2021 14:53:18)
 ------------------------------------------------------
 Symbolic Z-matrix:
 Charge =  0 Multiplicity = 1

                         Standard orientation:
 ---------------------------------------------------------------------
 Center     Atomic      Atomic             Coordinates (Angstroms)
 Number     Number       Type             X           Y           Z
 ---------------------------------------------------------------------
      1          6           0        3.581698   -0.562620    0.799384
      2          6           0        2.111874   -0.458956    0.390906
      3          6           0        1.159043   -0.945957    1.483031
      4          1           0        3.813001   -1.606733    1.050923
      5          1           0        3.742627    0.022585    1.715372
      6          1           0        1.954061   -1.043056   -0.524812
      7          1           0        1.884092    0.584999    0.140126
      8          1           0        1.287360   -0.356985    2.396950
      9          1           0        1.357726   -1.994290    1.728234
     10          1           0        0.113592   -0.863021    1.169960
     11          6           0        4.546526   -0.079486   -0.282012
     12          6           0        6.016350   -0.183150    0.126467
     13          6           0        6.969181    0.303851   -0.965658
     14          1           0        4.385597   -0.664691   -1.197999
     15          1           0        4.315223    0.964628   -0.533550
     16          1           0        6.244132   -1.227104    0.377246
     17          1           0        6.174163    0.400950    1.042184
     18          1           0        6.770497    1.352184   -1.210861
     19          1           0        6.840864   -0.285121   -1.879577
     20          1           0        8.014631    0.220915   -0.652587
     21          6           0       -5.076796   -1.407274   -0.214185
     22          6           0       -3.859113   -1.734275   -0.819859
     23          6           0       -2.798567   -0.823348   -0.819198
     24          6           0       -2.991238    0.411121   -0.200930
     25          6           0       -4.192391    0.766294    0.410928
     26          6           0       -5.239262   -0.160231    0.398196
     27          1           0       -5.895341   -2.120963   -0.219388
     28          1           0       -3.730091   -2.702006   -1.296195
     29          1           0       -1.845245   -1.050584   -1.280670
     30          1           0       -4.290990    1.738763    0.877832
     31          1           0       -6.183815    0.096439    0.869349
     32          7           0       -1.875724    1.383736   -0.193840
     33          8           0       -2.070809    2.464729    0.357548
     34          8           0       -0.827421    1.046661   -0.739808
 ---------------------------------------------------------------------

 SCF Done:  E(RHF) =  -669.535940337     A.U. after   15 cycles
 E2 =    -0.2092248767D+01 EUMP2 =    -0.67162818910378D+03

 The electronic state is 1-A.
 Alpha  occ. eigenvalues --  -20.60984 -20.60967 -15.85984 -11.31305 -11.27860
 Alpha  occ. eigenvalues --  -11.27856 -11.27594 -11.26867 -11.26857 -11.21003
 Alpha  occ. eigenvalues --  -11.20628 -11.20557 -11.20502 -11.20363 -11.20164
 Alpha  occ. eigenvalues --   -1.60029  -1.39587  -1.19468  -1.08875  -1.07604
 Alpha  occ. eigenvalues --   -1.04861  -1.02702  -0.95724  -0.95203  -0.86273
 Alpha  occ. eigenvalues --   -0.86227  -0.82555  -0.78775  -0.77629  -0.77354
 Alpha  occ. eigenvalues --   -0.72218  -0.71350  -0.70574  -0.65126  -0.64864
 Alpha  occ. eigenvalues --   -0.64239  -0.62210  -0.60103  -0.58573  -0.56780
 Alpha  occ. eigenvalues --   -0.55365  -0.54518  -0.53192  -0.52953  -0.51933
 Alpha  occ. eigenvalues --   -0.51631  -0.49184  -0.48989  -0.48968  -0.47086
 Alpha  occ. eigenvalues --   -0.45808  -0.45035  -0.44931  -0.44703  -0.42973
 Alpha  occ. eigenvalues --   -0.37442  -0.36456
 Alpha virt. eigenvalues --    0.04897   0.11123   0.16366   0.21222   0.23606
 Alpha virt. eigenvalues --    0.24796   0.27077   0.27505   0.27783   0.28499
 Alpha virt. eigenvalues --    0.28866   0.30726   0.31731   0.32160   0.32491

 Mulliken charges:
               1
     1  C   -0.298864
     2  C   -0.297732
     3  C   -0.475710
     4  H    0.144045
     5  H    0.148064
     6  H    0.144674
     7  H    0.174279
     8  H    0.154021
     9  H    0.146424
    10  H    0.156242
    11  C   -0.297718
    12  C   -0.298932
    13  C   -0.475266
    14  H    0.147393
    15  H    0.152916
    16  H    0.149648
    17  H    0.151359
    18  H    0.155811
    19  H    0.153926
    20  H    0.158114
    21  C   -0.170505
    22  C   -0.218477
    23  C   -0.171882
    24  C    0.158028
    25  C   -0.170596
    26  C   -0.218434
    27  H    0.226091
    28  H    0.224081
    29  H    0.276691
    30  H    0.275870
    31  H    0.223905
    32  N    0.489829
    33  O   -0.458551
    34  O   -0.458744
 Sum of Mulliken charges =  -0.00000

 Dipole moment (field-independent basis, Debye):
    X=             -4.1938    Y=             -3.2263    Z=             -0.1194  Tot=              5.2925
 Quadrupole moment (field-independent basis, Debye-Ang):
   XX=            -71.3930   YY=            -95.1980   ZZ=            -94.7187
   XY=              6.8616   XZ=             -0.4024   YZ=              3.4143

 Normal termination of Gaussian 16 at Wed May  5 22:03:23 2021.
