 Gaussian 16, Revision A.03,
 Gaussian 16:  EM64L-G16RevA.03 25-Dec-2016

 -------------
 #p 6-31g* mp2
 -------------

 ------------------------------------------------------
 Input file generated by CHIRIPA (05-May-2021 14:51:08)
 ------------------------------------------------------
 Symbolic Z-matrix:
 Charge =  0 Multiplicity = 1

                         Standard orientation:
 ---------------------------------------------------------------------
 Center     Atomic      Atomic             Coordinates (Angstroms)
 Number     Number       Type             X           Y           Z
 ---------------------------------------------------------------------
      1          6           0       -3.139963   -0.464987    0.160164
      2          6           0       -4.375624   -1.360661    0.065857
      3          6           0       -4.481062   -2.346903    1.229474
      4          1           0       -2.240170   -1.094525    0.191789
      5          1           0       -3.168081    0.087968    1.109293
      6          1           0       -4.345885   -1.910727   -0.883437
      7          1           0       -5.272569   -0.728911    0.034261
      8          1           0       -4.535780   -1.812664    2.183516
      9          1           0       -3.603831   -3.001194    1.260604
     10          1           0       -5.371508   -2.977239    1.142060
     11          6           0       -3.020648    0.526355   -0.996008
     12          6           0       -1.784987    1.422029   -0.901700
     13          6           0       -1.679549    2.408270   -2.065317
     14          1           0       -2.992530   -0.026600   -1.945136
     15          1           0       -3.920441    1.155893   -1.027632
     16          1           0       -0.888042    0.790279   -0.870104
     17          1           0       -1.814726    1.972095    0.047594
     18          1           0       -2.556780    3.062562   -2.096447
     19          1           0       -1.624831    1.874032   -3.019359
     20          1           0       -0.789103    3.038607   -1.977903
     21          6           0        3.266428   -0.270463   -0.283004
     22          6           0        4.296799   -1.400207   -0.283708
     23          6           0        4.658967   -1.869107   -1.693233
     24          1           0        2.359696   -0.609428   -0.802508
     25          1           0        3.660464    0.576139   -0.862138
     26          1           0        3.901512   -2.243901    0.296416
     27          1           0        5.201112   -1.058578    0.236025
     28          1           0        5.077482   -1.043699   -2.278169
     29          1           0        3.770497   -2.235757   -2.217434
     30          1           0        5.396923   -2.677042   -1.670338
     31          6           0        2.894183    0.209095    1.118847
     32          6           0        1.863812    1.338839    1.119552
     33          6           0        1.501643    1.807739    2.529077
     34          1           0        2.500147   -0.637507    1.697982
     35          1           0        3.800915    0.548060    1.638350
     36          1           0        0.959499    0.997210    0.599818
     37          1           0        2.259100    2.182533    0.539427
     38          1           0        2.390114    2.174390    3.053278
     39          1           0        1.083130    0.982331    3.114012
     40          1           0        0.763689    2.615673    2.506181
 ---------------------------------------------------------------------

 SCF Done:  E(RHF) =  -470.733178043     A.U. after   11 cycles
 E2 =    -0.1582963007D+01 EUMP2 =    -0.47231614104955D+03

 The electronic state is 1-A.
 Alpha  occ. eigenvalues --  -11.21632 -11.21624 -11.21605 -11.21500 -11.21440
 Alpha  occ. eigenvalues --  -11.21396 -11.21380 -11.21326 -11.21098 -11.21081
 Alpha  occ. eigenvalues --  -11.21078 -11.21028  -1.08470  -1.08405  -1.03571
 Alpha  occ. eigenvalues --   -1.03491  -0.96005  -0.95957  -0.87022  -0.86973
 Alpha  occ. eigenvalues --   -0.79711  -0.79501  -0.78349  -0.78150  -0.65135
 Alpha  occ. eigenvalues --   -0.65009  -0.61007  -0.60864  -0.59438  -0.59265
 Alpha  occ. eigenvalues --   -0.57657  -0.57522  -0.55292  -0.55247  -0.52700
 Alpha  occ. eigenvalues --   -0.52648  -0.52430  -0.52383  -0.49972  -0.49890
 Alpha  occ. eigenvalues --   -0.48139  -0.47778  -0.46802  -0.46516  -0.46018
 Alpha  occ. eigenvalues --   -0.45757  -0.45725  -0.45323  -0.43810  -0.43757
 Alpha virt. eigenvalues --    0.21411   0.23235   0.23679   0.24633   0.25198
 Alpha virt. eigenvalues --    0.26634   0.26980   0.27926   0.28088   0.28963
 Alpha virt. eigenvalues --    0.30951   0.31059   0.31466   0.31981   0.32086

 Mulliken charges:
               1
     1  C   -0.298389
     2  C   -0.299619
     3  C   -0.475725
     4  H    0.148708
     5  H    0.149829
     6  H    0.151962
     7  H    0.152149
     8  H    0.155303
     9  H    0.155016
    10  H    0.160396
    11  C   -0.297598
    12  C   -0.304548
    13  C   -0.475687
    14  H    0.149441
    15  H    0.149821
    16  H    0.155876
    17  H    0.152603
    18  H    0.155163
    19  H    0.155097
    20  H    0.161093
    21  C   -0.298296
    22  C   -0.299610
    23  C   -0.475667
    24  H    0.148485
    25  H    0.149643
    26  H    0.151852
    27  H    0.152139
    28  H    0.155246
    29  H    0.154932
    30  H    0.160276
    31  C   -0.297800
    32  C   -0.308151
    33  C   -0.475226
    34  H    0.149174
    35  H    0.149448
    36  H    0.162094
    37  H    0.150930
    38  H    0.154807
    39  H    0.155034
    40  H    0.159800
 Sum of Mulliken charges =  -0.00000

 Dipole moment (field-independent basis, Debye):
    X=             -0.0308    Y=              0.0088    Z=             -0.0130  Tot=              0.0346
 Quadrupole moment (field-independent basis, Debye-Ang):
   XX=            -84.1153   YY=            -84.6390   ZZ=            -86.0534
   XY=              0.1214   XZ=              0.1651   YZ=              0.4808

 Normal termination of Gaussian 16 at Thu May  6 05:15:36 2021.
