 Gaussian 16, Revision A.03,
 Gaussian 16:  EM64L-G16RevA.03 25-Dec-2016

 -------------
 #p 6-31g* mp2
 -------------

 ------------------------------------------------------
 Input file generated by CHIRIPA (05-May-2021 14:57:22)
 ------------------------------------------------------
 Symbolic Z-matrix:
 Charge =  0 Multiplicity = 1

                         Standard orientation:
 ---------------------------------------------------------------------
 Center     Atomic      Atomic             Coordinates (Angstroms)
 Number     Number       Type             X           Y           Z
 ---------------------------------------------------------------------
      1          6           0       -6.301255   -0.086012   -0.743781
      2          6           0       -5.840520   -1.062854    0.145052
      3          6           0       -4.524650   -1.030204    0.616186
      4          6           0       -3.692905   -0.001812    0.175845
      5          6           0       -4.122444    0.985864   -0.709188
      6          6           0       -5.442261    0.933432   -1.167317
      7          1           0       -7.324987   -0.119060   -1.104718
      8          1           0       -6.505398   -1.855742    0.475674
      9          1           0       -4.141933   -1.773715    1.304762
     10          1           0       -3.436181    1.763883   -1.020873
     11          1           0       -5.797345    1.693394   -1.857547
     12          7           0       -2.297763    0.043225    0.667730
     13          8           0       -1.584818    0.959684    0.264680
     14          8           0       -1.943613   -0.838787    1.447005
     15          6           0        3.511295    2.467383    0.297731
     16          6           0        2.438485    1.569837    0.294248
     17          6           0        2.654754    0.205678    0.077810
     18          6           0        3.962628   -0.228410   -0.132722
     19          6           0        5.052257    0.641069   -0.135106
     20          6           0        4.812464    2.000956    0.083420
     21          1           0        3.334155    3.525435    0.466677
     22          1           0        1.426919    1.929238    0.460408
     23          1           0        1.842540   -0.511026    0.069948
     24          1           0        6.049442    0.252955   -0.303657
     25          1           0        5.647542    2.695710    0.085584
     26          7           0        4.204035   -1.670323   -0.362960
     27          8           0        5.365725   -2.027558   -0.545979
     28          8           0        3.226989   -2.415956   -0.356044
 ---------------------------------------------------------------------

 SCF Done:  E(RHF) =  -868.340545441     A.U. after   16 cycles
 E2 =    -0.2598350769D+01 EUMP2 =    -0.87093889621036D+03

 The electronic state is 1-A.
 Alpha  occ. eigenvalues --  -20.61580 -20.61541 -20.59816 -20.59796 -15.86576
 Alpha  occ. eigenvalues --  -15.84851 -11.31663 -11.30038 -11.28218 -11.28175
 Alpha  occ. eigenvalues --  -11.27893 -11.27163 -11.27134 -11.26664 -11.26417
 Alpha  occ. eigenvalues --  -11.26324 -11.25690 -11.25347  -1.60615  -1.58889
 Alpha  occ. eigenvalues --   -1.40175  -1.38444  -1.19809  -1.18191  -1.09258
 Alpha  occ. eigenvalues --   -1.07638  -1.05171  -1.03528  -0.96139  -0.94498
 Alpha  occ. eigenvalues --   -0.86582  -0.84954  -0.82983  -0.81304  -0.78058
 Alpha  occ. eigenvalues --   -0.76362  -0.72813  -0.71905  -0.71077  -0.70916
 Alpha  occ. eigenvalues --   -0.70209  -0.69323  -0.65468  -0.65173  -0.63831
 Alpha  occ. eigenvalues --   -0.63503  -0.62521  -0.60844  -0.55685  -0.54103
 Alpha  occ. eigenvalues --   -0.53513  -0.53261  -0.51927  -0.51586  -0.49584
 Alpha  occ. eigenvalues --   -0.49535  -0.47838  -0.47816  -0.45636  -0.43888
 Alpha  occ. eigenvalues --   -0.37772  -0.36759  -0.36218  -0.35134
 Alpha virt. eigenvalues --    0.04461   0.06111   0.10900   0.12498   0.16011
 Alpha virt. eigenvalues --    0.17639   0.21047   0.22685   0.26987   0.27855
 Alpha virt. eigenvalues --    0.28761   0.29458   0.30667   0.31999   0.32314

 Mulliken charges:
               1
     1  C   -0.169717
     2  C   -0.218542
     3  C   -0.169675
     4  C    0.157879
     5  C   -0.170346
     6  C   -0.218488
     7  H    0.227478
     8  H    0.225698
     9  H    0.277731
    10  H    0.273918
    11  H    0.224524
    12  N    0.491286
    13  O   -0.473402
    14  O   -0.455163
    15  C   -0.172551
    16  C   -0.225679
    17  C   -0.173268
    18  C    0.157463
    19  C   -0.173413
    20  C   -0.219032
    21  H    0.221660
    22  H    0.244002
    23  H    0.284754
    24  H    0.271403
    25  H    0.218454
    26  N    0.487915
    27  O   -0.465146
    28  O   -0.459743
 Sum of Mulliken charges =  -0.00000

 Dipole moment (field-independent basis, Debye):
    X=             -6.4116    Y=              4.8237    Z=             -0.8556  Tot=              8.0690
 Quadrupole moment (field-independent basis, Debye-Ang):
   XX=            -71.7226   YY=           -104.7267   ZZ=           -105.5470
   XY=             22.9618   XZ=              8.1823   YZ=             -3.7024

 Normal termination of Gaussian 16 at Thu May  6 17:54:26 2021.
