 Gaussian 16, Revision A.03,
 Gaussian 16:  EM64L-G16RevA.03 25-Dec-2016

 -------------
 #p 6-31g* mp2
 -------------

 ------------------------------------------------------
 Input file generated by CHIRIPA (05-May-2021 14:57:25)
 ------------------------------------------------------
 Symbolic Z-matrix:
 Charge =  0 Multiplicity = 1

                         Standard orientation:
 ---------------------------------------------------------------------
 Center     Atomic      Atomic             Coordinates (Angstroms)
 Number     Number       Type             X           Y           Z
 ---------------------------------------------------------------------
      1          6           0        4.644620    2.178844    0.579999
      2          6           0        4.220962    1.290339    1.573777
      3          6           0        3.571893    0.100113    1.232279
      4          6           0        3.361891   -0.171151   -0.118871
      5          6           0        3.772160    0.693940   -1.132077
      6          6           0        4.419264    1.878339   -0.767380
      7          1           0        5.148069    3.101177    0.854294
      8          1           0        4.394633    1.521113    2.620976
      9          1           0        3.233472   -0.605517    1.981262
     10          1           0        3.584880    0.436471   -2.167478
     11          1           0        4.747188    2.566500   -1.541296
     12          7           0        2.675791   -1.428105   -0.492679
     13          8           0        2.502730   -1.643938   -1.690219
     14          8           0        2.324078   -2.173672    0.418949
     15          6           0       -1.623930   -1.696558    0.484069
     16          6           0       -1.804340   -1.163168   -0.796349
     17          6           0       -2.826672   -0.242363   -1.044350
     18          6           0       -3.653920    0.124525    0.016001
     19          6           0       -3.499554   -0.389183    1.302688
     20          6           0       -2.470621   -1.308547    1.527660
     21          1           0       -0.827194   -2.411302    0.667777
     22          1           0       -1.148300   -1.462681   -1.608721
     23          1           0       -2.988735    0.186206   -2.025921
     24          1           0       -4.169443   -0.071418    2.092430
     25          1           0       -2.332859   -1.721146    2.523064
     26          7           0       -4.739712    1.098577   -0.234357
     27          8           0       -5.455082    1.405600    0.716757
     28          8           0       -4.854825    1.536573   -1.376963
 ---------------------------------------------------------------------

 SCF Done:  E(RHF) =  -868.340822235     A.U. after   16 cycles
 E2 =    -0.2598395570D+01 EUMP2 =    -0.87093921780576D+03

 The electronic state is 1-A.
 Alpha  occ. eigenvalues --  -20.61882 -20.61860 -20.60286 -20.60280 -15.86887
 Alpha  occ. eigenvalues --  -15.85333 -11.31898 -11.30509 -11.28436 -11.28417
 Alpha  occ. eigenvalues --  -11.28093 -11.27360 -11.27344 -11.27095 -11.27041
 Alpha  occ. eigenvalues --  -11.26551 -11.26008 -11.25869  -1.60935  -1.59367
 Alpha  occ. eigenvalues --   -1.40497  -1.38925  -1.20037  -1.18647  -1.09496
 Alpha  occ. eigenvalues --   -1.08033  -1.05387  -1.04026  -0.96390  -0.94906
 Alpha  occ. eigenvalues --   -0.86802  -0.85403  -0.83238  -0.81755  -0.78325
 Alpha  occ. eigenvalues --   -0.76866  -0.73121  -0.72237  -0.71552  -0.71140
 Alpha  occ. eigenvalues --   -0.70691  -0.69625  -0.65693  -0.65386  -0.64272
 Alpha  occ. eigenvalues --   -0.63984  -0.62742  -0.61377  -0.55895  -0.54365
 Alpha  occ. eigenvalues --   -0.53729  -0.53475  -0.52372  -0.52082  -0.49889
 Alpha  occ. eigenvalues --   -0.49847  -0.48321  -0.48291  -0.45970  -0.44374
 Alpha  occ. eigenvalues --   -0.37988  -0.36972  -0.36565  -0.35661
 Alpha virt. eigenvalues --    0.04151   0.05666   0.10688   0.12005   0.15706
 Alpha virt. eigenvalues --    0.17230   0.20854   0.22435   0.26791   0.27686
 Alpha virt. eigenvalues --    0.28151   0.29383   0.30514   0.31731   0.32307

 Mulliken charges:
               1
     1  C   -0.169240
     2  C   -0.218221
     3  C   -0.170040
     4  C    0.158084
     5  C   -0.170278
     6  C   -0.218220
     7  H    0.228625
     8  H    0.225536
     9  H    0.274178
    10  H    0.275907
    11  H    0.226207
    12  N    0.488851
    13  O   -0.461065
    14  O   -0.467109
    15  C   -0.177366
    16  C   -0.225631
    17  C   -0.172690
    18  C    0.157064
    19  C   -0.172494
    20  C   -0.220855
    21  H    0.245347
    22  H    0.234215
    23  H    0.273141
    24  H    0.272302
    25  H    0.221114
    26  N    0.488218
    27  O   -0.463050
    28  O   -0.462529
 Sum of Mulliken charges =  -0.00000

 Dipole moment (field-independent basis, Debye):
    X=              6.7191    Y=              1.0005    Z=              2.1631  Tot=              7.1293
 Quadrupole moment (field-independent basis, Debye-Ang):
   XX=           -117.9268   YY=           -107.9042   ZZ=            -95.8599
   XY=             28.8313   XZ=             -0.8025   YZ=             -2.2930

 Normal termination of Gaussian 16 at Fri May  7 12:39:37 2021.
