 Gaussian 16, Revision A.03,
 Gaussian 16:  EM64L-G16RevA.03 25-Dec-2016

 -------------
 #p 6-31g* mp2
 -------------

 ------------------------------------------------------
 Input file generated by CHIRIPA (05-May-2021 14:55:23)
 ------------------------------------------------------
 Symbolic Z-matrix:
 Charge =  0 Multiplicity = 1

                         Standard orientation:
 ---------------------------------------------------------------------
 Center     Atomic      Atomic             Coordinates (Angstroms)
 Number     Number       Type             X           Y           Z
 ---------------------------------------------------------------------
      1          6           0        1.947049    1.543525   -0.270448
      2          6           0        1.716070    0.165468   -0.206204
      3          6           0        2.783886   -0.728426   -0.082634
      4          6           0        4.075623   -0.207380   -0.025919
      5          6           0        4.338075    1.160327   -0.087447
      6          6           0        3.255009    2.035689   -0.210969
      7          1           0        1.111621    2.230726   -0.366421
      8          1           0        0.701347   -0.219591   -0.252160
      9          1           0        2.633588   -1.799935   -0.030710
     10          1           0        5.360726    1.514263   -0.039155
     11          1           0        3.437380    3.105418   -0.260633
     12          7           0        5.214144   -1.143896    0.104874
     13          8           0        6.342773   -0.659601    0.152746
     14          8           0        4.956330   -2.344499    0.157040
     15          6           0       -5.457917   -0.421936   -0.273690
     16          6           0       -6.847494   -0.437609    0.364130
     17          6           0       -7.799030   -1.422424   -0.315951
     18          1           0       -5.552831   -0.166717   -1.338021
     19          1           0       -5.031408   -1.433728   -0.231711
     20          1           0       -7.270686    0.574205    0.322202
     21          1           0       -6.749242   -0.692633    1.427109
     22          1           0       -7.402222   -2.441348   -0.261762
     23          1           0       -7.926628   -1.167313   -1.372947
     24          1           0       -8.786561   -1.417388    0.155871
     25          6           0       -4.495314    0.557695    0.395226
     26          6           0       -3.105737    0.573368   -0.242594
     27          6           0       -2.154200    1.558182    0.437488
     28          1           0       -4.921822    1.569487    0.353246
     29          1           0       -4.400399    0.302475    1.459556
     30          1           0       -3.203989    0.828391   -1.305573
     31          1           0       -2.682544   -0.438446   -0.200667
     32          1           0       -2.026602    1.303071    1.494483
     33          1           0       -2.551009    2.577107    0.383298
     34          1           0       -1.166669    1.553146   -0.034335
 ---------------------------------------------------------------------

 SCF Done:  E(RHF) =  -669.535145379     A.U. after   15 cycles
 E2 =    -0.2091307712D+01 EUMP2 =    -0.67162645309154D+03

 The electronic state is 1-A.
 Alpha  occ. eigenvalues --  -20.60722 -20.60717 -15.85776 -11.31131 -11.27700
 Alpha  occ. eigenvalues --  -11.27696 -11.27418 -11.26712 -11.26688 -11.22643
 Alpha  occ. eigenvalues --  -11.22374 -11.22166 -11.22096 -11.21981 -11.21472
 Alpha  occ. eigenvalues --   -1.59798  -1.39352  -1.19302  -1.09178  -1.08700
 Alpha  occ. eigenvalues --   -1.04706  -1.04319  -0.96784  -0.95537  -0.87806
 Alpha  occ. eigenvalues --   -0.86103  -0.82371  -0.80395  -0.78936  -0.77419
 Alpha  occ. eigenvalues --   -0.71995  -0.71121  -0.70442  -0.65801  -0.64963
 Alpha  occ. eigenvalues --   -0.64747  -0.62091  -0.61694  -0.60186  -0.58366
 Alpha  occ. eigenvalues --   -0.56042  -0.55246  -0.53487  -0.53207  -0.53028
 Alpha  occ. eigenvalues --   -0.52762  -0.50697  -0.48754  -0.48751  -0.48699
 Alpha  occ. eigenvalues --   -0.47406  -0.46489  -0.46379  -0.44760  -0.44563
 Alpha  occ. eigenvalues --   -0.37278  -0.36309
 Alpha virt. eigenvalues --    0.05117   0.11339   0.16611   0.19507   0.22453
 Alpha virt. eigenvalues --    0.23815   0.25692   0.26038   0.26458   0.27280
 Alpha virt. eigenvalues --    0.28607   0.29838   0.30694   0.31419   0.31793

 Mulliken charges:
               1
     1  C   -0.174212
     2  C   -0.221372
     3  C   -0.171154
     4  C    0.158318
     5  C   -0.170991
     6  C   -0.218450
     7  H    0.229133
     8  H    0.226338
     9  H    0.275371
    10  H    0.275371
    11  H    0.223393
    12  N    0.488062
    13  O   -0.460548
    14  O   -0.460620
    15  C   -0.298928
    16  C   -0.300259
    17  C   -0.476138
    18  H    0.150584
    19  H    0.150372
    20  H    0.152591
    21  H    0.152895
    22  H    0.155983
    23  H    0.155736
    24  H    0.161838
    25  C   -0.299330
    26  C   -0.300432
    27  C   -0.481789
    28  H    0.151348
    29  H    0.151584
    30  H    0.154363
    31  H    0.150383
    32  H    0.160860
    33  H    0.159939
    34  H    0.149761
 Sum of Mulliken charges =  -0.00000

 Dipole moment (field-independent basis, Debye):
    X=             -4.2828    Y=              3.3070    Z=             -0.4267  Tot=              5.4278
 Quadrupole moment (field-independent basis, Debye-Ang):
   XX=           -125.3453   YY=            -93.2438   ZZ=            -95.3398
   XY=             16.4459   XZ=             -1.9704   YZ=             -0.7094

 Normal termination of Gaussian 16 at Thu May  6 04:41:24 2021.
