 Gaussian 16, Revision A.03,
 Gaussian 16:  EM64L-G16RevA.03 25-Dec-2016

 -------------
 #p 6-31g* mp2
 -------------

 ------------------------------------------------------
 Input file generated by CHIRIPA (05-May-2021 14:57:21)
 ------------------------------------------------------
 Symbolic Z-matrix:
 Charge =  0 Multiplicity = 1

                         Standard orientation:
 ---------------------------------------------------------------------
 Center     Atomic      Atomic             Coordinates (Angstroms)
 Number     Number       Type             X           Y           Z
 ---------------------------------------------------------------------
      1          6           0        3.786292   -1.983221    1.222628
      2          6           0        4.594233   -0.841545    1.204547
      3          6           0        4.171066    0.317398    0.547029
      4          6           0        2.928634    0.299558   -0.084901
      5          6           0        2.100929   -0.822134   -0.084567
      6          6           0        2.544408   -1.969896    0.579148
      7          1           0        4.122908   -2.879173    1.735811
      8          1           0        5.559170   -0.849016    1.703433
      9          1           0        4.776487    1.215177    0.517430
     10          1           0        1.144014   -0.784362   -0.590832
     11          1           0        1.914847   -2.855076    0.591555
     12          7           0        2.469895    1.520560   -0.784266
     13          8           0        1.371105    1.479240   -1.333439
     14          8           0        3.217810    2.495781   -0.770012
     15          6           0       -3.710655    1.643669    1.652601
     16          6           0       -4.179082    0.330544    1.765732
     17          6           0       -3.794252   -0.642891    0.838974
     18          6           0       -2.935947   -0.266731   -0.193066
     19          6           0       -2.452256    1.033214   -0.332623
     20          6           0       -2.850254    1.990203    0.605631
     21          1           0       -4.014715    2.393469    2.376993
     22          1           0       -4.847380    0.058564    2.577797
     23          1           0       -4.141906   -1.666839    0.902872
     24          1           0       -1.787104    1.274224   -1.152930
     25          1           0       -2.484896    3.009220    0.515290
     26          7           0       -2.521575   -1.288558   -1.180268
     27          8           0       -1.764528   -0.931736   -2.080378
     28          8           0       -2.961681   -2.426937   -1.035234
 ---------------------------------------------------------------------

 SCF Done:  E(RHF) =  -868.340332784     A.U. after   16 cycles
 E2 =    -0.2599191614D+01 EUMP2 =    -0.87093952439800D+03

 The electronic state is 1-A.
 Alpha  occ. eigenvalues --  -20.60805 -20.60783 -20.60755 -20.60741 -15.85806
 Alpha  occ. eigenvalues --  -15.85794 -11.30959 -11.30922 -11.27561 -11.27559
 Alpha  occ. eigenvalues --  -11.27415 -11.27315 -11.27259 -11.27229 -11.26543
 Alpha  occ. eigenvalues --  -11.26520 -11.26438 -11.26360  -1.59870  -1.59823
 Alpha  occ. eigenvalues --   -1.39419  -1.39379  -1.19126  -1.19097  -1.08568
 Alpha  occ. eigenvalues --   -1.08554  -1.04491  -1.04439  -0.95438  -0.95400
 Alpha  occ. eigenvalues --   -0.85902  -0.85857  -0.82262  -0.82229  -0.77370
 Alpha  occ. eigenvalues --   -0.77243  -0.72067  -0.71978  -0.71197  -0.71138
 Alpha  occ. eigenvalues --   -0.70237  -0.70179  -0.64784  -0.64742  -0.64489
 Alpha  occ. eigenvalues --   -0.64428  -0.61827  -0.61744  -0.55024  -0.54984
 Alpha  occ. eigenvalues --   -0.52851  -0.52823  -0.52572  -0.52507  -0.48812
 Alpha  occ. eigenvalues --   -0.48791  -0.48763  -0.48728  -0.44861  -0.44826
 Alpha  occ. eigenvalues --   -0.37124  -0.37110  -0.36093  -0.36034
 Alpha virt. eigenvalues --    0.05118   0.05214   0.11513   0.11631   0.16640
 Alpha virt. eigenvalues --    0.16709   0.21549   0.21935   0.27453   0.27741
 Alpha virt. eigenvalues --    0.28176   0.28998   0.30931   0.31492   0.32235

 Mulliken charges:
               1
     1  C   -0.170531
     2  C   -0.219270
     3  C   -0.171425
     4  C    0.156281
     5  C   -0.174519
     6  C   -0.220267
     7  H    0.225239
     8  H    0.222158
     9  H    0.273860
    10  H    0.284962
    11  H    0.227921
    12  N    0.490175
    13  O   -0.465184
    14  O   -0.461740
    15  C   -0.170546
    16  C   -0.219719
    17  C   -0.172252
    18  C    0.152326
    19  C   -0.174214
    20  C   -0.221017
    21  H    0.225075
    22  H    0.221523
    23  H    0.272755
    24  H    0.294835
    25  H    0.228912
    26  N    0.485240
    27  O   -0.457240
    28  O   -0.463336
 Sum of Mulliken charges =  -0.00000

 Dipole moment (field-independent basis, Debye):
    X=              0.1635    Y=             -0.6096    Z=              5.8396  Tot=              5.8736
 Quadrupole moment (field-independent basis, Debye-Ang):
   XX=            -83.1383   YY=           -106.6053   ZZ=           -106.4395
   XY=            -18.7618   XZ=             -2.9870   YZ=             -1.7803

 Normal termination of Gaussian 16 at Thu May  6 03:19:25 2021.
