 Gaussian 16, Revision A.03,
 Gaussian 16:  EM64L-G16RevA.03 25-Dec-2016

 -------------
 #p 6-31g* mp2
 -------------

 ------------------------------------------------------
 Input file generated by CHIRIPA (05-May-2021 14:55:25)
 ------------------------------------------------------
 Symbolic Z-matrix:
 Charge =  0 Multiplicity = 1

                         Standard orientation:
 ---------------------------------------------------------------------
 Center     Atomic      Atomic             Coordinates (Angstroms)
 Number     Number       Type             X           Y           Z
 ---------------------------------------------------------------------
      1          6           0       -3.425899    1.634324    0.790101
      2          6           0       -2.190611    1.783323    0.151052
      3          6           0       -1.510931    0.668673   -0.349086
      4          6           0       -2.098278   -0.585792   -0.192140
      5          6           0       -3.327604   -0.766706    0.439775
      6          6           0       -3.989460    0.362028    0.932173
      7          1           0       -3.946967    2.505681    1.175614
      8          1           0       -1.750551    2.770188    0.039293
      9          1           0       -0.553358    0.755379   -0.848040
     10          1           0       -3.741078   -1.763282    0.536176
     11          1           0       -4.948669    0.243311    1.428024
     12          7           0       -1.388166   -1.773277   -0.717517
     13          8           0       -1.926895   -2.867638   -0.566579
     14          8           0       -0.306298   -1.587182   -1.270297
     15          6           0        3.033272   -0.025074    0.654132
     16          6           0        3.498068   -1.344378    0.036570
     17          6           0        3.890111   -2.383364    1.087573
     18          1           0        3.834411    0.377651    1.288903
     19          1           0        2.177900   -0.219309    1.315953
     20          1           0        4.351436   -1.147517   -0.624962
     21          1           0        2.695801   -1.743913   -0.596957
     22          1           0        3.041603   -2.608821    1.741640
     23          1           0        4.706645   -2.009036    1.713474
     24          1           0        4.219203   -3.318704    0.624217
     25          6           0        2.637929    1.023679   -0.383920
     26          6           0        2.173133    2.342984    0.233643
     27          6           0        1.781090    3.381968   -0.817360
     28          1           0        3.493301    1.217914   -1.045740
     29          1           0        1.836790    0.620954   -1.018691
     30          1           0        2.975400    2.742517    0.867169
     31          1           0        1.319766    2.146121    0.895175
     32          1           0        0.964556    3.007641   -1.443262
     33          1           0        2.629599    3.607426   -1.471426
     34          1           0        1.451998    4.317308   -0.354004
 ---------------------------------------------------------------------

 SCF Done:  E(RHF) =  -669.536021295     A.U. after   15 cycles
 E2 =    -0.2093677205D+01 EUMP2 =    -0.67162969849964D+03

 The electronic state is 1-A.
 Alpha  occ. eigenvalues --  -20.60979 -20.60972 -15.86006 -11.31286 -11.27850
 Alpha  occ. eigenvalues --  -11.27821 -11.27572 -11.26850 -11.26822 -11.21882
 Alpha  occ. eigenvalues --  -11.21661 -11.21243 -11.20981 -11.20739 -11.20368
 Alpha  occ. eigenvalues --   -1.60034  -1.39592  -1.19453  -1.08863  -1.08231
 Alpha  occ. eigenvalues --   -1.04844  -1.03338  -0.95827  -0.95712  -0.86858
 Alpha  occ. eigenvalues --   -0.86243  -0.82547  -0.79455  -0.77937  -0.77582
 Alpha  occ. eigenvalues --   -0.72234  -0.71346  -0.70580  -0.65111  -0.65078
 Alpha  occ. eigenvalues --   -0.64692  -0.62196  -0.60664  -0.59281  -0.57381
 Alpha  occ. eigenvalues --   -0.55343  -0.55147  -0.53176  -0.52930  -0.52555
 Alpha  occ. eigenvalues --   -0.52236  -0.49814  -0.48999  -0.48979  -0.47739
 Alpha  occ. eigenvalues --   -0.46482  -0.45496  -0.45348  -0.44889  -0.43563
 Alpha  occ. eigenvalues --   -0.37429  -0.36430
 Alpha virt. eigenvalues --    0.04865   0.11186   0.16314   0.19093   0.23320
 Alpha virt. eigenvalues --    0.24164   0.26055   0.26918   0.27410   0.28335
 Alpha virt. eigenvalues --    0.30202   0.30884   0.31406   0.31603   0.32375

 Mulliken charges:
               1
     1  C   -0.170221
     2  C   -0.224436
     3  C   -0.175561
     4  C    0.155505
     5  C   -0.169670
     6  C   -0.218963
     7  H    0.226216
     8  H    0.227450
     9  H    0.287659
    10  H    0.275786
    11  H    0.223858
    12  N    0.489725
    13  O   -0.458445
    14  O   -0.465288
    15  C   -0.294952
    16  C   -0.308843
    17  C   -0.475056
    18  H    0.146307
    19  H    0.147768
    20  H    0.147706
    21  H    0.176773
    22  H    0.155498
    23  H    0.150182
    24  H    0.161345
    25  C   -0.309467
    26  C   -0.304735
    27  C   -0.477381
    28  H    0.151228
    29  H    0.161386
    30  H    0.155398
    31  H    0.147462
    32  H    0.146201
    33  H    0.161713
    34  H    0.157853
 Sum of Mulliken charges =  -0.00000

 Dipole moment (field-independent basis, Debye):
    X=             -2.5544    Y=              4.0206    Z=              1.7732  Tot=              5.0827
 Quadrupole moment (field-independent basis, Debye-Ang):
   XX=            -80.8973   YY=            -99.0028   ZZ=            -96.2370
   XY=             -4.3600   XZ=             -5.5257   YZ=             -2.2788

 Normal termination of Gaussian 16 at Thu May  6 16:04:51 2021.
