 Gaussian 16, Revision A.03,
 Gaussian 16:  EM64L-G16RevA.03 25-Dec-2016

 -------------
 #p 6-31g* mp2
 -------------

 ------------------------------------------------------
 Input file generated by CHIRIPA (05-May-2021 14:51:11)
 ------------------------------------------------------
 Symbolic Z-matrix:
 Charge =  0 Multiplicity = 1

                         Standard orientation:
 ---------------------------------------------------------------------
 Center     Atomic      Atomic             Coordinates (Angstroms)
 Number     Number       Type             X           Y           Z
 ---------------------------------------------------------------------
      1          6           0       -3.684527    0.094190    0.011543
      2          6           0       -3.247337    1.527399    0.316112
      3          6           0       -1.733498    1.717495    0.216360
      4          1           0       -3.180848   -0.591565    0.706520
      5          1           0       -3.345491   -0.178590   -0.997436
      6          1           0       -3.588298    1.797874    1.323686
      7          1           0       -3.752262    2.209841   -0.379545
      8          1           0       -1.380250    1.474332   -0.790958
      9          1           0       -1.215354    1.060024    0.921951
     10          1           0       -1.442966    2.749172    0.437927
     11          6           0       -5.195228   -0.111631    0.107191
     12          6           0       -5.632417   -1.544840   -0.197379
     13          6           0       -7.146256   -1.734935   -0.097626
     14          1           0       -5.534263    0.161150    1.116170
     15          1           0       -5.698906    0.574125   -0.587786
     16          1           0       -5.127492   -2.227281    0.498279
     17          1           0       -5.291456   -1.815314   -1.204952
     18          1           0       -7.664400   -1.077464   -0.803217
     19          1           0       -7.499504   -1.491772    0.909692
     20          1           0       -7.436788   -2.766612   -0.319193
     21          6           0        5.185835   -0.137697    0.015075
     22          6           0        5.510965   -1.631559    0.040574
     23          6           0        7.007232   -1.908431    0.189974
     24          1           0        5.732196    0.335914   -0.812044
     25          1           0        5.555031    0.326640    0.939997
     26          1           0        5.140036   -2.093195   -0.883504
     27          1           0        4.963616   -2.101703    0.867611
     28          1           0        7.388360   -1.474325    1.119972
     29          1           0        7.565783   -1.465770   -0.641092
     30          1           0        7.217145   -2.982461    0.205905
     31          6           0        3.693920    0.155137   -0.133809
     32          6           0        3.368789    1.648999   -0.159308
     33          6           0        1.872522    1.925870   -0.308708
     34          1           0        3.324723   -0.309199   -1.058731
     35          1           0        3.147557   -0.318473    0.693310
     36          1           0        3.916139    2.119143   -0.986344
     37          1           0        3.739717    2.110635    0.764771
     38          1           0        1.313971    1.483209    0.522359
     39          1           0        1.491394    1.491766   -1.238706
     40          1           0        1.662609    2.999902   -0.324638
 ---------------------------------------------------------------------

 SCF Done:  E(RHF) =  -470.732913593     A.U. after   11 cycles
 E2 =    -0.1582494387D+01 EUMP2 =    -0.47231540798002D+03

 The electronic state is 1-A.
 Alpha  occ. eigenvalues --  -11.21580 -11.21575 -11.21524 -11.21509 -11.21370
 Alpha  occ. eigenvalues --  -11.21361 -11.21309 -11.21300 -11.21055 -11.21051
 Alpha  occ. eigenvalues --  -11.20959 -11.20915  -1.08394  -1.08375  -1.03510
 Alpha  occ. eigenvalues --   -1.03441  -0.96008  -0.95842  -0.87089  -0.86795
 Alpha  occ. eigenvalues --   -0.79682  -0.79399  -0.78228  -0.78163  -0.65034
 Alpha  occ. eigenvalues --   -0.65000  -0.60941  -0.60812  -0.59357  -0.59231
 Alpha  occ. eigenvalues --   -0.57651  -0.57431  -0.55346  -0.55090  -0.52858
 Alpha  occ. eigenvalues --   -0.52555  -0.52452  -0.52072  -0.50021  -0.49707
 Alpha  occ. eigenvalues --   -0.48046  -0.47648  -0.46672  -0.46470  -0.45817
 Alpha  occ. eigenvalues --   -0.45691  -0.45643  -0.45622  -0.43822  -0.43626
 Alpha virt. eigenvalues --    0.22501   0.23008   0.23580   0.24820   0.26160
 Alpha virt. eigenvalues --    0.26340   0.26903   0.27496   0.27673   0.29443
 Alpha virt. eigenvalues --    0.29684   0.30438   0.31339   0.32223   0.32325

 Mulliken charges:
               1
     1  C   -0.298186
     2  C   -0.301547
     3  C   -0.473078
     4  H    0.149364
     5  H    0.149347
     6  H    0.151328
     7  H    0.151508
     8  H    0.156919
     9  H    0.154061
    10  H    0.160603
    11  C   -0.298170
    12  C   -0.299580
    13  C   -0.475675
    14  H    0.149420
    15  H    0.149581
    16  H    0.151849
    17  H    0.151858
    18  H    0.155146
    19  H    0.155135
    20  H    0.160163
    21  C   -0.298158
    22  C   -0.299575
    23  C   -0.475669
    24  H    0.149570
    25  H    0.149403
    26  H    0.151851
    27  H    0.151810
    28  H    0.155127
    29  H    0.155140
    30  H    0.160137
    31  C   -0.298074
    32  C   -0.301118
    33  C   -0.474640
    34  H    0.149306
    35  H    0.149246
    36  H    0.151221
    37  H    0.151336
    38  H    0.159393
    39  H    0.154273
    40  H    0.159375
 Sum of Mulliken charges =  -0.00000

 Dipole moment (field-independent basis, Debye):
    X=             -0.0092    Y=              0.0129    Z=             -0.0014  Tot=              0.0158
 Quadrupole moment (field-independent basis, Debye-Ang):
   XX=            -87.3775   YY=            -84.9842   ZZ=            -82.7516
   XY=              0.0169   XZ=             -0.0528   YZ=             -0.2037

 Normal termination of Gaussian 16 at Wed May  5 21:30:03 2021.
