 Gaussian 16, Revision A.03,
 Gaussian 16:  EM64L-G16RevA.03 25-Dec-2016

 -------------
 #p 6-31g* mp2
 -------------

 ------------------------------------------------------
 Input file generated by CHIRIPA (05-May-2021 14:55:23)
 ------------------------------------------------------
 Symbolic Z-matrix:
 Charge =  0 Multiplicity = 1

                         Standard orientation:
 ---------------------------------------------------------------------
 Center     Atomic      Atomic             Coordinates (Angstroms)
 Number     Number       Type             X           Y           Z
 ---------------------------------------------------------------------
      1          6           0        0.741650    0.603604   -0.880616
      2          6           0        1.721311    1.552272   -0.569466
      3          6           0        2.996058    1.148804   -0.161077
      4          6           0        3.257972   -0.217644   -0.074413
      5          6           0        2.303103   -1.186973   -0.377593
      6          6           0        1.035155   -0.760586   -0.783857
      7          1           0       -0.245963    0.925930   -1.197037
      8          1           0        1.496192    2.612392   -0.643710
      9          1           0        3.773177    1.861925    0.085829
     10          1           0        2.557249   -2.236666   -0.294092
     11          1           0        0.276298   -1.499567   -1.024869
     12          7           0        4.603890   -0.656910    0.356806
     13          8           0        4.809532   -1.866735    0.425144
     14          8           0        5.427695    0.216938    0.618291
     15          6           0       -3.513053    0.724524    0.578702
     16          6           0       -3.153186    1.948866   -0.263597
     17          6           0       -2.406892    3.017585    0.535579
     18          1           0       -4.127717    1.042247    1.432040
     19          1           0       -2.593517    0.294083    0.998906
     20          1           0       -4.072995    2.376054   -0.683214
     21          1           0       -2.539466    1.628165   -1.115134
     22          1           0       -1.473870    2.613580    0.941596
     23          1           0       -3.016112    3.365717    1.375970
     24          1           0       -2.159446    3.883863   -0.085865
     25          6           0       -4.259487   -0.352689   -0.206267
     26          6           0       -4.619353   -1.577031    0.636032
     27          6           0       -5.365647   -2.645750   -0.163143
     28          1           0       -5.179022    0.077752   -0.626471
     29          1           0       -3.644823   -0.670412   -1.059604
     30          1           0       -5.233073   -1.256330    1.487569
     31          1           0       -3.699545   -2.004219    1.055650
     32          1           0       -4.756428   -2.993882   -1.003534
     33          1           0       -6.298669   -2.241745   -0.569160
     34          1           0       -5.613094   -3.512028    0.458300
 ---------------------------------------------------------------------

 SCF Done:  E(RHF) =  -669.535606155     A.U. after   15 cycles
 E2 =    -0.2091821001D+01 EUMP2 =    -0.67162742715652D+03

 The electronic state is 1-A.
 Alpha  occ. eigenvalues --  -20.60767 -20.60762 -15.85821 -11.31195 -11.27766
 Alpha  occ. eigenvalues --  -11.27758 -11.27475 -11.26782 -11.26764 -11.22796
 Alpha  occ. eigenvalues --  -11.22365 -11.22341 -11.22262 -11.22141 -11.21708
 Alpha  occ. eigenvalues --   -1.59843  -1.39396  -1.19366  -1.09387  -1.08756
 Alpha  occ. eigenvalues --   -1.04770  -1.04459  -0.96883  -0.95591  -0.87897
 Alpha  occ. eigenvalues --   -0.86164  -0.82426  -0.80528  -0.79168  -0.77471
 Alpha  occ. eigenvalues --   -0.72038  -0.71166  -0.70513  -0.66035  -0.65016
 Alpha  occ. eigenvalues --   -0.64762  -0.62121  -0.61871  -0.60260  -0.58483
 Alpha  occ. eigenvalues --   -0.56197  -0.55223  -0.53574  -0.53291  -0.53092
 Alpha  occ. eigenvalues --   -0.52857  -0.50830  -0.48835  -0.48793  -0.48784
 Alpha  occ. eigenvalues --   -0.47583  -0.46708  -0.46628  -0.44799  -0.44703
 Alpha  occ. eigenvalues --   -0.37336  -0.36375
 Alpha virt. eigenvalues --    0.05041   0.11220   0.16449   0.18720   0.22764
 Alpha virt. eigenvalues --    0.23739   0.25153   0.26215   0.26400   0.28170
 Alpha virt. eigenvalues --    0.29233   0.30150   0.30834   0.30923   0.32185

 Mulliken charges:
               1
     1  C   -0.176670
     2  C   -0.222004
     3  C   -0.170695
     4  C    0.158415
     5  C   -0.170633
     6  C   -0.221791
     7  H    0.236897
     8  H    0.224948
     9  H    0.275734
    10  H    0.275609
    11  H    0.223421
    12  N    0.487995
    13  O   -0.460424
    14  O   -0.460323
    15  C   -0.300912
    16  C   -0.303129
    17  C   -0.480830
    18  H    0.154674
    19  H    0.150016
    20  H    0.158342
    21  H    0.141512
    22  H    0.155701
    23  H    0.161808
    24  H    0.160035
    25  C   -0.297737
    26  C   -0.300346
    27  C   -0.475971
    28  H    0.152613
    29  H    0.143642
    30  H    0.154804
    31  H    0.151517
    32  H    0.153899
    33  H    0.156843
    34  H    0.163042
 Sum of Mulliken charges =  -0.00000

 Dipole moment (field-independent basis, Debye):
    X=             -4.9491    Y=              1.5666    Z=             -1.4150  Tot=              5.3805
 Quadrupole moment (field-independent basis, Debye-Ang):
   XX=           -124.3557   YY=            -91.2092   ZZ=            -95.4813
   XY=              6.7603   XZ=             -5.2917   YZ=              0.5404

 Normal termination of Gaussian 16 at Thu May  6 03:07:12 2021.
