 Gaussian 16, Revision A.03,
 Gaussian 16:  EM64L-G16RevA.03 25-Dec-2016

 -------------
 #p 6-31g* mp2
 -------------

 ------------------------------------------------------
 Input file generated by CHIRIPA (05-May-2021 14:51:11)
 ------------------------------------------------------
 Symbolic Z-matrix:
 Charge =  0 Multiplicity = 1

                         Standard orientation:
 ---------------------------------------------------------------------
 Center     Atomic      Atomic             Coordinates (Angstroms)
 Number     Number       Type             X           Y           Z
 ---------------------------------------------------------------------
      1          6           0        4.541159    0.683647   -0.197308
      2          6           0        5.959648    0.610621    0.368855
      3          6           0        6.640012    1.978185    0.437170
      4          1           0        4.576421    1.127804   -1.201512
      5          1           0        3.940446    1.362455    0.423787
      6          1           0        6.557127   -0.068923   -0.252316
      7          1           0        5.921026    0.166410    1.371751
      8          1           0        6.068214    2.661588    1.073259
      9          1           0        6.707930    2.424917   -0.560035
     10          1           0        7.652921    1.902750    0.844828
     11          6           0        3.847913   -0.675610   -0.271872
     12          6           0        2.429424   -0.602584   -0.838036
     13          6           0        1.749060   -1.970148   -0.906350
     14          1           0        4.448625   -1.354418   -0.892967
     15          1           0        3.812651   -1.119767    0.732332
     16          1           0        2.468045   -0.158372   -1.840932
     17          1           0        1.831944    0.076961   -0.216865
     18          1           0        1.681142   -2.416880    0.090855
     19          1           0        2.320857   -2.653550   -1.542440
     20          1           0        0.736151   -1.894713   -1.314009
     21          6           0       -3.765065   -0.627832    0.135372
     22          6           0       -2.564755   -0.694215    1.080271
     23          6           0       -1.715221   -1.947898    0.869636
     24          1           0       -4.386718   -1.522159    0.279142
     25          1           0       -3.407504   -0.659362   -0.903162
     26          1           0       -2.924389   -0.661174    2.116702
     27          1           0       -1.945989    0.200467    0.934371
     28          1           0       -1.328648   -1.983787   -0.154021
     29          1           0       -2.312607   -2.850325    1.035028
     30          1           0       -0.862655   -1.975012    1.555389
     31          6           0       -4.624007    0.619794    0.333808
     32          6           0       -5.824316    0.686178   -0.611091
     33          6           0       -6.673851    1.939860   -0.400456
     34          1           0       -4.981567    0.651324    1.372341
     35          1           0       -4.002353    1.514121    0.190038
     36          1           0       -6.443083   -0.208505   -0.465190
     37          1           0       -5.464683    0.653137   -1.647522
     38          1           0       -6.076463    2.842287   -0.565848
     39          1           0       -7.060423    1.975751    0.623202
     40          1           0       -7.526416    1.966974   -1.086208
 ---------------------------------------------------------------------

 SCF Done:  E(RHF) =  -470.732817788     A.U. after   11 cycles
 E2 =    -0.1582542089D+01 EUMP2 =    -0.47231535987748D+03

 The electronic state is 1-A.
 Alpha  occ. eigenvalues --  -11.21600 -11.21598 -11.21588 -11.21579 -11.21400
 Alpha  occ. eigenvalues --  -11.21398 -11.21341 -11.21339 -11.21071 -11.21068
 Alpha  occ. eigenvalues --  -11.21004 -11.20991  -1.08429  -1.08413  -1.03547
 Alpha  occ. eigenvalues --   -1.03484  -0.96030  -0.95897  -0.87078  -0.86884
 Alpha  occ. eigenvalues --   -0.79647  -0.79510  -0.78244  -0.78225  -0.65082
 Alpha  occ. eigenvalues --   -0.65027  -0.61024  -0.60844  -0.59356  -0.59320
 Alpha  occ. eigenvalues --   -0.57652  -0.57514  -0.55388  -0.55120  -0.52800
 Alpha  occ. eigenvalues --   -0.52603  -0.52419  -0.52271  -0.50005  -0.49753
 Alpha  occ. eigenvalues --   -0.47964  -0.47823  -0.46673  -0.46536  -0.45779
 Alpha  occ. eigenvalues --   -0.45772  -0.45719  -0.45682  -0.43785  -0.43717
 Alpha virt. eigenvalues --    0.21594   0.23090   0.23526   0.25272   0.26308
 Alpha virt. eigenvalues --    0.26501   0.27008   0.27473   0.27548   0.28904
 Alpha virt. eigenvalues --    0.29432   0.31023   0.31486   0.32121   0.32360

 Mulliken charges:
               1
     1  C   -0.298255
     2  C   -0.299644
     3  C   -0.475699
     4  H    0.149577
     5  H    0.149433
     6  H    0.151946
     7  H    0.151944
     8  H    0.155159
     9  H    0.155151
    10  H    0.160257
    11  C   -0.298417
    12  C   -0.300169
    13  C   -0.476875
    14  H    0.149613
    15  H    0.149605
    16  H    0.151504
    17  H    0.151840
    18  H    0.156661
    19  H    0.154298
    20  H    0.162290
    21  C   -0.298294
    22  C   -0.299958
    23  C   -0.478147
    24  H    0.149727
    25  H    0.149199
    26  H    0.151617
    27  H    0.151471
    28  H    0.159625
    29  H    0.154569
    30  H    0.160032
    31  C   -0.298261
    32  C   -0.299648
    33  C   -0.475702
    34  H    0.149514
    35  H    0.149607
    36  H    0.151947
    37  H    0.151904
    38  H    0.155169
    39  H    0.155168
    40  H    0.160243
 Sum of Mulliken charges =  -0.00000

 Dipole moment (field-independent basis, Debye):
    X=              0.0038    Y=             -0.0156    Z=             -0.0027  Tot=              0.0163
 Quadrupole moment (field-independent basis, Debye-Ang):
   XX=            -85.3235   YY=            -86.0840   ZZ=            -83.4447
   XY=              0.2737   XZ=             -0.7655   YZ=             -0.3522

 Normal termination of Gaussian 16 at Thu May  6 02:16:32 2021.
