 Gaussian 16, Revision A.03,
 Gaussian 16:  EM64L-G16RevA.03 25-Dec-2016

 -------------
 #p 6-31g* mp2
 -------------

 ------------------------------------------------------
 Input file generated by CHIRIPA (05-May-2021 14:51:13)
 ------------------------------------------------------
 Symbolic Z-matrix:
 Charge =  0 Multiplicity = 1

                         Standard orientation:
 ---------------------------------------------------------------------
 Center     Atomic      Atomic             Coordinates (Angstroms)
 Number     Number       Type             X           Y           Z
 ---------------------------------------------------------------------
      1          6           0        3.529453   -0.568843   -0.117738
      2          6           0        4.914410   -1.196816   -0.277512
      3          6           0        4.952726   -2.662257    0.157008
      4          1           0        3.216042   -0.649798    0.932102
      5          1           0        2.802769   -1.145876   -0.706261
      6          1           0        5.638509   -0.617948    0.310033
      7          1           0        5.224642   -1.114185   -1.327057
      8          1           0        4.252236   -3.258526   -0.436606
      9          1           0        4.668455   -2.759469    1.209786
     10          1           0        5.952085   -3.091346    0.034430
     11          6           0        3.475148    0.895956   -0.548022
     12          6           0        2.090190    1.523929   -0.388247
     13          6           0        2.051874    2.989370   -0.822768
     14          1           0        4.201831    1.472989    0.040501
     15          1           0        3.788558    0.976911   -1.597862
     16          1           0        1.779958    1.441298    0.661297
     17          1           0        1.366091    0.945061   -0.975792
     18          1           0        2.336145    3.086582   -1.875545
     19          1           0        2.752364    3.585639   -0.229154
     20          1           0        1.052515    3.418459   -0.700190
     21          6           0       -3.155089    0.217329    0.896620
     22          6           0       -1.645478   -0.020024    0.948786
     23          6           0       -0.965001    0.748713    2.081830
     24          1           0       -3.346922    1.292645    0.778977
     25          1           0       -3.598784   -0.075972    1.858131
     26          1           0       -1.204950    0.272340   -0.013022
     27          1           0       -1.457212   -1.094921    1.066126
     28          1           0       -1.377133    0.450762    3.051352
     29          1           0       -1.123438    1.825792    1.966073
     30          1           0        0.113700    0.564571    2.100683
     31          6           0       -3.849511   -0.544442   -0.230860
     32          6           0       -5.359123   -0.307089   -0.283026
     33          6           0       -6.039599   -1.075826   -1.416071
     34          1           0       -3.405816   -0.251141   -1.192371
     35          1           0       -3.657679   -1.619758   -0.113217
     36          1           0       -5.547388    0.767808   -0.400366
     37          1           0       -5.799651   -0.599453    0.678782
     38          1           0       -5.881162   -2.152905   -1.300313
     39          1           0       -5.627467   -0.777876   -2.385593
     40          1           0       -7.118300   -0.891684   -1.434924
 ---------------------------------------------------------------------

 SCF Done:  E(RHF) =  -470.732983327     A.U. after   11 cycles
 E2 =    -0.1583108868D+01 EUMP2 =    -0.47231609219541D+03

 The electronic state is 1-A.
 Alpha  occ. eigenvalues --  -11.21606 -11.21595 -11.21560 -11.21557 -11.21407
 Alpha  occ. eigenvalues --  -11.21390 -11.21346 -11.21330 -11.21073 -11.21072
 Alpha  occ. eigenvalues --  -11.21068 -11.21024  -1.08442  -1.08401  -1.03561
 Alpha  occ. eigenvalues --   -1.03476  -0.95995  -0.95946  -0.87014  -0.86964
 Alpha  occ. eigenvalues --   -0.79599  -0.79570  -0.78274  -0.78199  -0.65068
 Alpha  occ. eigenvalues --   -0.65043  -0.60950  -0.60912  -0.59498  -0.59196
 Alpha  occ. eigenvalues --   -0.57665  -0.57488  -0.55281  -0.55230  -0.52739
 Alpha  occ. eigenvalues --   -0.52630  -0.52437  -0.52346  -0.49962  -0.49865
 Alpha  occ. eigenvalues --   -0.47947  -0.47865  -0.46728  -0.46495  -0.45848
 Alpha  occ. eigenvalues --   -0.45757  -0.45713  -0.45570  -0.43791  -0.43718
 Alpha virt. eigenvalues --    0.21257   0.23065   0.23596   0.24756   0.25520
 Alpha virt. eigenvalues --    0.26248   0.26862   0.27721   0.27880   0.29125
 Alpha virt. eigenvalues --    0.30341   0.31186   0.31468   0.31982   0.32511

 Mulliken charges:
               1
     1  C   -0.298527
     2  C   -0.299598
     3  C   -0.475723
     4  H    0.148971
     5  H    0.149824
     6  H    0.151953
     7  H    0.152049
     8  H    0.155226
     9  H    0.155166
    10  H    0.160268
    11  C   -0.297939
    12  C   -0.306844
    13  C   -0.475506
    14  H    0.149390
    15  H    0.149467
    16  H    0.159054
    17  H    0.153226
    18  H    0.154950
    19  H    0.155208
    20  H    0.159871
    21  C   -0.298300
    22  C   -0.301852
    23  C   -0.477802
    24  H    0.149441
    25  H    0.149465
    26  H    0.154811
    27  H    0.151765
    28  H    0.154601
    29  H    0.154522
    30  H    0.163143
    31  C   -0.298225
    32  C   -0.299620
    33  C   -0.475696
    34  H    0.149261
    35  H    0.149624
    36  H    0.151918
    37  H    0.151949
    38  H    0.155158
    39  H    0.155111
    40  H    0.160240
 Sum of Mulliken charges =  -0.00000

 Dipole moment (field-independent basis, Debye):
    X=              0.0130    Y=             -0.0011    Z=              0.0013  Tot=              0.0131
 Quadrupole moment (field-independent basis, Debye-Ang):
   XX=            -85.2359   YY=            -85.4620   ZZ=            -84.1804
   XY=              0.0771   XZ=             -0.3647   YZ=             -0.2992

 Normal termination of Gaussian 16 at Thu May  6 00:47:15 2021.
