 Gaussian 16, Revision A.03,
 Gaussian 16:  EM64L-G16RevA.03 25-Dec-2016

 -------------
 #p 6-31g* mp2
 -------------

 ------------------------------------------------------
 Input file generated by CHIRIPA (05-May-2021 14:55:23)
 ------------------------------------------------------
 Symbolic Z-matrix:
 Charge =  0 Multiplicity = 1

                         Standard orientation:
 ---------------------------------------------------------------------
 Center     Atomic      Atomic             Coordinates (Angstroms)
 Number     Number       Type             X           Y           Z
 ---------------------------------------------------------------------
      1          6           0        1.072691   -1.577035    0.759632
      2          6           0        0.985299   -0.629261   -0.265360
      3          6           0        2.128299    0.039823   -0.713052
      4          6           0        3.347982   -0.264825   -0.110680
      5          6           0        3.467435   -1.203999    0.912536
      6          6           0        2.311296   -1.860879    1.344278
      7          1           0        0.179678   -2.092054    1.101215
      8          1           0        0.024711   -0.406803   -0.721242
      9          1           0        2.089216    0.778072   -1.504809
     10          1           0        4.439001   -1.404465    1.347613
     11          1           0        2.382161   -2.596459    2.140484
     12          7           0        4.564979    0.437044   -0.576189
     13          8           0        5.627699    0.150674   -0.029147
     14          8           0        4.433098    1.260249   -1.479283
     15          6           0       -4.209414   -0.111133   -0.395798
     16          6           0       -5.617371   -0.649063   -0.138359
     17          6           0       -5.964263   -1.845643   -1.024733
     18          1           0       -4.120918    0.175704   -1.452603
     19          1           0       -3.480552   -0.916186   -0.228337
     20          1           0       -6.343258    0.157140   -0.304914
     21          1           0       -5.702586   -0.934474    0.918000
     22          1           0       -5.262764   -2.668453   -0.853030
     23          1           0       -5.907075   -1.570637   -2.082892
     24          1           0       -6.975105   -2.214181   -0.824134
     25          6           0       -3.847946    1.085216    0.482733
     26          6           0       -2.439990    1.623146    0.225295
     27          6           0       -2.093097    2.819725    1.111668
     28          1           0       -4.576809    1.890269    0.315272
     29          1           0       -3.936443    0.798379    1.539539
     30          1           0       -2.354775    1.908557   -0.831065
     31          1           0       -1.714103    0.816943    0.391849
     32          1           0       -2.150285    2.544719    2.169827
     33          1           0       -2.794597    3.642536    0.939966
     34          1           0       -1.082257    3.188264    0.911069
 ---------------------------------------------------------------------

 SCF Done:  E(RHF) =  -669.535462820     A.U. after   15 cycles
 E2 =    -0.2091406881D+01 EUMP2 =    -0.67162686970062D+03

 The electronic state is 1-A.
 Alpha  occ. eigenvalues --  -20.60756 -20.60751 -15.85809 -11.31179 -11.27748
 Alpha  occ. eigenvalues --  -11.27735 -11.27495 -11.26767 -11.26714 -11.22468
 Alpha  occ. eigenvalues --  -11.22278 -11.22209 -11.22126 -11.21678 -11.21671
 Alpha  occ. eigenvalues --   -1.59831  -1.39384  -1.19350  -1.09202  -1.08746
 Alpha  occ. eigenvalues --   -1.04752  -1.04238  -0.96660  -0.95580  -0.87676
 Alpha  occ. eigenvalues --   -0.86153  -0.82411  -0.80328  -0.79044  -0.77451
 Alpha  occ. eigenvalues --   -0.72027  -0.71154  -0.70462  -0.65858  -0.65000
 Alpha  occ. eigenvalues --   -0.64752  -0.62138  -0.61601  -0.60028  -0.58283
 Alpha  occ. eigenvalues --   -0.55943  -0.55258  -0.53345  -0.53097  -0.53075
 Alpha  occ. eigenvalues --   -0.52841  -0.50598  -0.48810  -0.48782  -0.48594
 Alpha  occ. eigenvalues --   -0.47354  -0.46551  -0.46494  -0.44789  -0.44501
 Alpha  occ. eigenvalues --   -0.37328  -0.36340
 Alpha virt. eigenvalues --    0.05075   0.11183   0.16551   0.20034   0.22541
 Alpha virt. eigenvalues --    0.23747   0.25115   0.26071   0.27271   0.28041
 Alpha virt. eigenvalues --    0.29275   0.30448   0.30829   0.31386   0.31873

 Mulliken charges:
               1
     1  C   -0.172299
     2  C   -0.219920
     3  C   -0.172432
     4  C    0.158663
     5  C   -0.170998
     6  C   -0.218369
     7  H    0.224995
     8  H    0.229083
     9  H    0.275778
    10  H    0.275586
    11  H    0.223308
    12  N    0.488061
    13  O   -0.460456
    14  O   -0.460390
    15  C   -0.297732
    16  C   -0.300042
    17  C   -0.475963
    18  H    0.151012
    19  H    0.141193
    20  H    0.154657
    21  H    0.152476
    22  H    0.153562
    23  H    0.156448
    24  H    0.162634
    25  C   -0.298149
    26  C   -0.305085
    27  C   -0.475413
    28  H    0.153370
    29  H    0.150543
    30  H    0.151969
    31  H    0.145916
    32  H    0.156447
    33  H    0.158127
    34  H    0.163422
 Sum of Mulliken charges =  -0.00000

 Dipole moment (field-independent basis, Debye):
    X=             -4.4371    Y=             -2.3872    Z=              1.6629  Tot=              5.3058
 Quadrupole moment (field-independent basis, Debye-Ang):
   XX=           -121.7298   YY=            -92.8169   ZZ=            -93.1454
   XY=             -9.5797   XZ=              8.1426   YZ=             -3.0580

 Normal termination of Gaussian 16 at Thu May  6 06:16:50 2021.
