 Gaussian 16, Revision A.03,
 Gaussian 16:  EM64L-G16RevA.03 25-Dec-2016

 -------------
 #p 6-31g* mp2
 -------------

 ------------------------------------------------------
 Input file generated by CHIRIPA (05-May-2021 14:51:08)
 ------------------------------------------------------
 Symbolic Z-matrix:
 Charge =  0 Multiplicity = 1

                         Standard orientation:
 ---------------------------------------------------------------------
 Center     Atomic      Atomic             Coordinates (Angstroms)
 Number     Number       Type             X           Y           Z
 ---------------------------------------------------------------------
      1          6           0        4.300161   -0.525216   -0.017575
      2          6           0        5.359235    0.513390   -0.388577
      3          6           0        6.697803   -0.118246   -0.772070
      4          1           0        4.671316   -1.136175    0.816642
      5          1           0        4.154501   -1.209067   -0.865235
      6          1           0        5.501855    1.195916    0.459028
      7          1           0        4.985438    1.122071   -1.221882
      8          1           0        6.576967   -0.784563   -1.632314
      9          1           0        7.096319   -0.710299    0.058147
     10          1           0        7.440272    0.642157   -1.033580
     11          6           0        2.956502    0.090830    0.368166
     12          6           0        1.897427   -0.947776    0.739168
     13          6           0        0.558859   -0.316140    1.122661
     14          1           0        3.102162    0.774680    1.215826
     15          1           0        2.585347    0.701788   -0.466051
     16          1           0        2.271225   -1.556458    1.572473
     17          1           0        1.754807   -1.630302   -0.108437
     18          1           0        0.160344    0.275913    0.292444
     19          1           0        0.679696    0.350177    1.982905
     20          1           0       -0.183609   -1.076543    1.384171
     21          6           0       -3.192352    0.782981    0.095331
     22          6           0       -3.593372    2.161845   -0.429934
     23          6           0       -2.711920    3.283407    0.120461
     24          1           0       -3.243627    0.786540    1.192738
     25          1           0       -2.143350    0.588873   -0.167939
     26          1           0       -4.641718    2.352714   -0.166957
     27          1           0       -3.541322    2.154946   -1.526227
     28          1           0       -1.664695    3.120207   -0.153924
     29          1           0       -2.771343    3.319100    1.213071
     30          1           0       -3.016108    4.260380   -0.267939
     31          6           0       -4.064310   -0.348595   -0.445922
     32          6           0       -3.663290   -1.727459    0.079343
     33          6           0       -4.544743   -2.849021   -0.471052
     34          1           0       -5.113313   -0.154487   -0.182653
     35          1           0       -4.013036   -0.352154   -1.543329
     36          1           0       -3.715341   -1.720560    1.175636
     37          1           0       -2.614946   -1.918328   -0.183635
     38          1           0       -4.485320   -2.884714   -1.563661
     39          1           0       -5.591968   -2.685820   -0.196668
     40          1           0       -4.240555   -3.825992   -0.082651
 ---------------------------------------------------------------------

 SCF Done:  E(RHF) =  -470.732996302     A.U. after   11 cycles
 E2 =    -0.1583014554D+01 EUMP2 =    -0.47231601085611D+03

 The electronic state is 1-A.
 Alpha  occ. eigenvalues --  -11.21610 -11.21603 -11.21571 -11.21543 -11.21416
 Alpha  occ. eigenvalues --  -11.21357 -11.21335 -11.21238 -11.21078 -11.21052
 Alpha  occ. eigenvalues --  -11.21047 -11.21029  -1.08443  -1.08370  -1.03537
 Alpha  occ. eigenvalues --   -1.03486  -0.95999  -0.95920  -0.87020  -0.86937
 Alpha  occ. eigenvalues --   -0.79628  -0.79537  -0.78284  -0.78138  -0.65113
 Alpha  occ. eigenvalues --   -0.64977  -0.60961  -0.60869  -0.59376  -0.59280
 Alpha  occ. eigenvalues --   -0.57604  -0.57536  -0.55367  -0.55149  -0.52737
 Alpha  occ. eigenvalues --   -0.52592  -0.52472  -0.52293  -0.50027  -0.49812
 Alpha  occ. eigenvalues --   -0.48019  -0.47778  -0.46737  -0.46548  -0.45887
 Alpha  occ. eigenvalues --   -0.45739  -0.45695  -0.45401  -0.43779  -0.43710
 Alpha virt. eigenvalues --    0.21556   0.23087   0.23851   0.24125   0.25909
 Alpha virt. eigenvalues --    0.26595   0.26881   0.27475   0.27985   0.29604
 Alpha virt. eigenvalues --    0.29851   0.31385   0.31743   0.31906   0.32307

 Mulliken charges:
               1
     1  C   -0.298238
     2  C   -0.299654
     3  C   -0.475711
     4  H    0.149737
     5  H    0.149437
     6  H    0.152008
     7  H    0.151878
     8  H    0.155155
     9  H    0.155211
    10  H    0.160292
    11  C   -0.298390
    12  C   -0.299909
    13  C   -0.479603
    14  H    0.149740
    15  H    0.149301
    16  H    0.151974
    17  H    0.151440
    18  H    0.156720
    19  H    0.155559
    20  H    0.163201
    21  C   -0.304813
    22  C   -0.299407
    23  C   -0.475660
    24  H    0.149486
    25  H    0.158313
    26  H    0.151588
    27  H    0.151184
    28  H    0.154868
    29  H    0.155357
    30  H    0.159942
    31  C   -0.297777
    32  C   -0.301324
    33  C   -0.475635
    34  H    0.149199
    35  H    0.148975
    36  H    0.151764
    37  H    0.153523
    38  H    0.155038
    39  H    0.155211
    40  H    0.160022
 Sum of Mulliken charges =  -0.00000

 Dipole moment (field-independent basis, Debye):
    X=              0.0212    Y=             -0.0039    Z=              0.0209  Tot=              0.0300
 Quadrupole moment (field-independent basis, Debye-Ang):
   XX=            -85.8197   YY=            -85.8032   ZZ=            -83.3502
   XY=             -0.2269   XZ=             -0.1010   YZ=             -0.2317

 Normal termination of Gaussian 16 at Wed May  5 22:55:25 2021.
