 Gaussian 16, Revision A.03,
 Gaussian 16:  EM64L-G16RevA.03 25-Dec-2016

 -------------
 #p 6-31g* mp2
 -------------

 ------------------------------------------------------
 Input file generated by CHIRIPA (05-May-2021 14:51:08)
 ------------------------------------------------------
 Symbolic Z-matrix:
 Charge =  0 Multiplicity = 1

                         Standard orientation:
 ---------------------------------------------------------------------
 Center     Atomic      Atomic             Coordinates (Angstroms)
 Number     Number       Type             X           Y           Z
 ---------------------------------------------------------------------
      1          6           0       -3.802636    0.767277   -0.075070
      2          6           0       -5.171345    1.419969    0.121437
      3          6           0       -5.078256    2.926358    0.366226
      4          1           0       -3.181693    0.958560    0.810811
      5          1           0       -3.293864    1.246703   -0.922830
      6          1           0       -5.677953    0.938519    0.967705
      7          1           0       -5.789167    1.226947   -0.764934
      8          1           0       -4.596028    3.425193   -0.480663
      9          1           0       -4.484181    3.135126    1.261821
     10          1           0       -6.068064    3.372615    0.504047
     11          6           0       -3.879209   -0.738535   -0.320823
     12          6           0       -2.510501   -1.391226   -0.517330
     13          6           0       -2.603589   -2.897615   -0.762119
     14          1           0       -4.387981   -1.217961    0.526937
     15          1           0       -4.500152   -0.929817   -1.206704
     16          1           0       -1.892678   -1.198204    0.369042
     17          1           0       -2.003893   -0.909777   -1.363598
     18          1           0       -3.197664   -3.106383   -1.657714
     19          1           0       -3.085817   -3.396450    0.084770
     20          1           0       -1.613781   -3.343872   -0.899940
     21          6           0        3.515722   -0.635851    0.500337
     22          6           0        1.990099   -0.553380    0.560787
     23          6           0        1.354076   -1.804122    1.168170
     24          1           0        3.805917   -1.518257   -0.086258
     25          1           0        3.908005   -0.792064    1.514786
     26          1           0        1.600894   -0.395987   -0.453296
     27          1           0        1.703502    0.329038    1.147145
     28          1           0        1.714320   -1.962093    2.189870
     29          1           0        1.611129   -2.691238    0.580335
     30          1           0        0.263074   -1.723807    1.201732
     31          6           0        4.166122    0.607109   -0.104444
     32          6           0        5.691746    0.524637   -0.164894
     33          6           0        6.327770    1.775379   -0.772277
     34          1           0        3.773841    0.763320   -1.118894
     35          1           0        3.875928    1.489514    0.482151
     36          1           0        5.978343   -0.357781   -0.751252
     37          1           0        6.080951    0.367245    0.849189
     38          1           0        6.070716    2.662495   -0.184443
     39          1           0        5.967525    1.933350   -1.793977
     40          1           0        7.418771    1.695064   -0.805839
 ---------------------------------------------------------------------

 SCF Done:  E(RHF) =  -470.733275199     A.U. after   11 cycles
 E2 =    -0.1582575397D+01 EUMP2 =    -0.47231585059597D+03

 The electronic state is 1-A.
 Alpha  occ. eigenvalues --  -11.21604 -11.21602 -11.21594 -11.21578 -11.21407
 Alpha  occ. eigenvalues --  -11.21392 -11.21347 -11.21333 -11.21071 -11.21066
 Alpha  occ. eigenvalues --  -11.21061 -11.21032  -1.08438  -1.08412  -1.03552
 Alpha  occ. eigenvalues --   -1.03495  -0.96001  -0.95943  -0.86995  -0.86982
 Alpha  occ. eigenvalues --   -0.79616  -0.79560  -0.78251  -0.78226  -0.65073
 Alpha  occ. eigenvalues --   -0.65046  -0.60966  -0.60910  -0.59509  -0.59191
 Alpha  occ. eigenvalues --   -0.57706  -0.57446  -0.55271  -0.55244  -0.52723
 Alpha  occ. eigenvalues --   -0.52614  -0.52414  -0.52383  -0.49917  -0.49905
 Alpha  occ. eigenvalues --   -0.47992  -0.47825  -0.46625  -0.46598  -0.45784
 Alpha  occ. eigenvalues --   -0.45776  -0.45709  -0.45685  -0.43795  -0.43729
 Alpha virt. eigenvalues --    0.21436   0.23064   0.23443   0.25099   0.26189
 Alpha virt. eigenvalues --    0.26592   0.27008   0.27395   0.27963   0.28936
 Alpha virt. eigenvalues --    0.30125   0.31204   0.31451   0.31919   0.32228

 Mulliken charges:
               1
     1  C   -0.298320
     2  C   -0.299658
     3  C   -0.475707
     4  H    0.149585
     5  H    0.149619
     6  H    0.151930
     7  H    0.151954
     8  H    0.155210
     9  H    0.155168
    10  H    0.160252
    11  C   -0.297672
    12  C   -0.304879
    13  C   -0.476412
    14  H    0.149500
    15  H    0.149679
    16  H    0.156173
    17  H    0.151989
    18  H    0.155162
    19  H    0.155125
    20  H    0.161550
    21  C   -0.298316
    22  C   -0.299200
    23  C   -0.482467
    24  H    0.149562
    25  H    0.149450
    26  H    0.152498
    27  H    0.151610
    28  H    0.154797
    29  H    0.154834
    30  H    0.167054
    31  C   -0.298227
    32  C   -0.299641
    33  C   -0.475694
    34  H    0.149481
    35  H    0.149639
    36  H    0.151913
    37  H    0.151905
    38  H    0.155176
    39  H    0.155154
    40  H    0.160223
 Sum of Mulliken charges =  -0.00000

 Dipole moment (field-independent basis, Debye):
    X=             -0.0132    Y=             -0.0004    Z=             -0.0049  Tot=              0.0140
 Quadrupole moment (field-independent basis, Debye-Ang):
   XX=            -85.2389   YY=            -86.4916   ZZ=            -83.0844
   XY=             -0.3651   XZ=              0.3803   YZ=              0.3885

 Normal termination of Gaussian 16 at Thu May  6 08:26:41 2021.
