 Gaussian 16, Revision A.03,
 Gaussian 16:  EM64L-G16RevA.03 25-Dec-2016

 -------------
 #p 6-31g* mp2
 -------------

 ------------------------------------------------------
 Input file generated by CHIRIPA (05-May-2021 14:57:26)
 ------------------------------------------------------
 Symbolic Z-matrix:
 Charge =  0 Multiplicity = 1

                         Standard orientation:
 ---------------------------------------------------------------------
 Center     Atomic      Atomic             Coordinates (Angstroms)
 Number     Number       Type             X           Y           Z
 ---------------------------------------------------------------------
      1          6           0       -1.296538   -1.983004    0.788347
      2          6           0       -2.032117   -2.066226   -0.398464
      3          6           0       -2.961067   -1.075097   -0.729013
      4          6           0       -3.129838   -0.009884    0.154234
      5          6           0       -2.412105    0.101215    1.344111
      6          6           0       -1.488541   -0.901455    1.654320
      7          1           0       -0.576999   -2.757419    1.037225
      8          1           0       -1.885088   -2.905027   -1.072881
      9          1           0       -3.543889   -1.114658   -1.641248
     10          1           0       -2.580625    0.949420    1.996467
     11          1           0       -0.918682   -0.834217    2.576699
     12          7           0       -4.110425    1.045489   -0.184937
     13          8           0       -4.240577    1.973774    0.610038
     14          8           0       -4.730289    0.924422   -1.239331
     15          6           0        2.579565   -2.301584   -0.404098
     16          6           0        3.703848   -1.819735    0.274379
     17          6           0        3.929271   -0.444667    0.388041
     18          6           0        3.005799    0.424102   -0.191382
     19          6           0        1.876220   -0.025152   -0.873666
     20          6           0        1.670942   -1.404337   -0.974948
     21          1           0        2.412275   -3.371369   -0.487586
     22          1           0        4.411179   -2.514220    0.718696
     23          1           0        4.791334   -0.044437    0.907736
     24          1           0        1.188841    0.691687   -1.306183
     25          1           0        0.796937   -1.775696   -1.502445
     26          7           0        3.233782    1.882003   -0.077606
     27          8           0        2.405238    2.626672   -0.596859
     28          8           0        4.236701    2.252435    0.528671
 ---------------------------------------------------------------------

 SCF Done:  E(RHF) =  -868.335964491     A.U. after   16 cycles
 E2 =    -0.2602375733D+01 EUMP2 =    -0.87093834022414D+03

 The electronic state is 1-A.
 Alpha  occ. eigenvalues --  -20.61144 -20.61132 -20.61058 -20.61041 -15.86196
 Alpha  occ. eigenvalues --  -15.86117 -11.31713 -11.31654 -11.28341 -11.28266
 Alpha  occ. eigenvalues --  -11.28235 -11.28229 -11.28104 -11.28101 -11.27397
 Alpha  occ. eigenvalues --  -11.27370 -11.27318 -11.27233  -1.60214  -1.60125
 Alpha  occ. eigenvalues --   -1.39762  -1.39674  -1.19924  -1.19863  -1.09330
 Alpha  occ. eigenvalues --   -1.09216  -1.05330  -1.05287  -0.96101  -0.96035
 Alpha  occ. eigenvalues --   -0.86781  -0.86642  -0.82904  -0.82866  -0.77930
 Alpha  occ. eigenvalues --   -0.77860  -0.72409  -0.72330  -0.71544  -0.71454
 Alpha  occ. eigenvalues --   -0.71075  -0.70960  -0.65586  -0.65542  -0.65416
 Alpha  occ. eigenvalues --   -0.65188  -0.62702  -0.62580  -0.55886  -0.55830
 Alpha  occ. eigenvalues --   -0.54011  -0.53505  -0.53392  -0.53167  -0.49183
 Alpha  occ. eigenvalues --   -0.49155  -0.49104  -0.49072  -0.45132  -0.45041
 Alpha  occ. eigenvalues --   -0.38363  -0.37752  -0.36936  -0.36543
 Alpha virt. eigenvalues --    0.04540   0.04682   0.10383   0.10900   0.15841
 Alpha virt. eigenvalues --    0.16275   0.19801   0.21694   0.25830   0.26785
 Alpha virt. eigenvalues --    0.27576   0.28809   0.29608   0.31338   0.31773

 Mulliken charges:
               1
     1  C   -0.165361
     2  C   -0.229487
     3  C   -0.171486
     4  C    0.157726
     5  C   -0.168492
     6  C   -0.218561
     7  H    0.223187
     8  H    0.219090
     9  H    0.277037
    10  H    0.280048
    11  H    0.226845
    12  N    0.488291
    13  O   -0.456679
    14  O   -0.460062
    15  C   -0.179462
    16  C   -0.218290
    17  C   -0.172204
    18  C    0.158150
    19  C   -0.170905
    20  C   -0.216107
    21  H    0.221653
    22  H    0.224126
    23  H    0.276933
    24  H    0.279453
    25  H    0.223556
    26  N    0.487562
    27  O   -0.456976
    28  O   -0.459585
 Sum of Mulliken charges =  -0.00000

 Dipole moment (field-independent basis, Debye):
    X=              2.5713    Y=             -8.5672    Z=              0.9081  Tot=              8.9907
 Quadrupole moment (field-independent basis, Debye-Ang):
   XX=           -128.1106   YY=           -109.3725   ZZ=           -100.0363
   XY=             -4.4770   XZ=             -0.8913   YZ=              1.9521

 Normal termination of Gaussian 16 at Wed May  5 16:32:19 2021.
