 Gaussian 16, Revision A.03,
 Gaussian 16:  EM64L-G16RevA.03 25-Dec-2016

 -------------
 #p 6-31g* mp2
 -------------

 ------------------------------------------------------
 Input file generated by CHIRIPA (05-May-2021 14:55:24)
 ------------------------------------------------------
 Symbolic Z-matrix:
 Charge =  0 Multiplicity = 1

                         Standard orientation:
 ---------------------------------------------------------------------
 Center     Atomic      Atomic             Coordinates (Angstroms)
 Number     Number       Type             X           Y           Z
 ---------------------------------------------------------------------
      1          6           0       -5.655053   -0.328714   -0.073330
      2          6           0       -4.917790   -1.449604    0.322359
      3          6           0       -3.521127   -1.402557    0.363192
      4          6           0       -2.891447   -0.213039    0.000094
      5          6           0       -3.598126    0.920544   -0.398509
      6          6           0       -4.994034    0.850703   -0.431869
      7          1           0       -6.739721   -0.374114   -0.102147
      8          1           0       -5.428472   -2.366889    0.601349
      9          1           0       -2.925766   -2.255478    0.665667
     10          1           0       -3.060878    1.820871   -0.670892
     11          1           0       -5.564024    1.722756   -0.739570
     12          7           0       -1.413262   -0.151168    0.039366
     13          8           0       -0.882301    0.908677   -0.285359
     14          8           0       -0.813612   -1.163689    0.394130
     15          6           0        3.967658    1.023131    0.202185
     16          6           0        2.578967    1.623993   -0.018015
     17          6           0        2.504339    3.099787    0.374742
     18          1           0        4.246319    1.137404    1.258706
     19          1           0        4.703681    1.595839   -0.378909
     20          1           0        1.845586    1.049468    0.562233
     21          1           0        2.303498    1.508105   -1.074095
     22          1           0        3.214050    3.691158   -0.212786
     23          1           0        2.753536    3.229914    1.432839
     24          1           0        1.502888    3.509129    0.209226
     25          6           0        4.058121   -0.451646   -0.185856
     26          6           0        5.446811   -1.052508    0.034345
     27          6           0        5.521440   -2.528301   -0.358413
     28          1           0        3.322097   -1.024353    0.395238
     29          1           0        3.779459   -0.565919   -1.242376
     30          1           0        5.722280   -0.936620    1.090424
     31          1           0        6.180193   -0.477982   -0.545903
     32          1           0        5.272243   -2.658429   -1.416510
     33          1           0        4.811728   -3.119673    0.229116
     34          1           0        6.522891   -2.937643   -0.192897
 ---------------------------------------------------------------------

 SCF Done:  E(RHF) =  -669.536141675     A.U. after   15 cycles
 E2 =    -0.2091489006D+01 EUMP2 =    -0.67162763068049D+03

 The electronic state is 1-A.
 Alpha  occ. eigenvalues --  -20.61020 -20.61014 -15.86037 -11.31343 -11.27901
 Alpha  occ. eigenvalues --  -11.27898 -11.27634 -11.26903 -11.26893 -11.20542
 Alpha  occ. eigenvalues --  -11.20169 -11.20001 -11.19891 -11.19602 -11.19542
 Alpha  occ. eigenvalues --   -1.60071  -1.39627  -1.19507  -1.08915  -1.07012
 Alpha  occ. eigenvalues --   -1.04900  -1.02134  -0.95759  -0.94657  -0.86301
 Alpha  occ. eigenvalues --   -0.85688  -0.82594  -0.78207  -0.77650  -0.76731
 Alpha  occ. eigenvalues --   -0.72243  -0.71382  -0.70615  -0.65162  -0.64902
 Alpha  occ. eigenvalues --   -0.63659  -0.62247  -0.59549  -0.58037  -0.56217
 Alpha  occ. eigenvalues --   -0.55402  -0.53982  -0.53233  -0.52990  -0.51385
 Alpha  occ. eigenvalues --   -0.51069  -0.49102  -0.49011  -0.48624  -0.46471
 Alpha  occ. eigenvalues --   -0.45253  -0.45029  -0.44297  -0.44099  -0.42390
 Alpha  occ. eigenvalues --   -0.37485  -0.36500
 Alpha virt. eigenvalues --    0.04873   0.11156   0.16375   0.21292   0.24174
 Alpha virt. eigenvalues --    0.25600   0.27214   0.28034   0.28154   0.28988
 Alpha virt. eigenvalues --    0.29236   0.30866   0.32363   0.32668   0.33078

 Mulliken charges:
               1
     1  C   -0.170507
     2  C   -0.218587
     3  C   -0.170665
     4  C    0.158251
     5  C   -0.170759
     6  C   -0.218548
     7  H    0.226168
     8  H    0.223976
     9  H    0.275892
    10  H    0.275807
    11  H    0.224007
    12  N    0.488933
    13  O   -0.458451
    14  O   -0.459781
    15  C   -0.298898
    16  C   -0.297017
    17  C   -0.476464
    18  H    0.144176
    19  H    0.142343
    20  H    0.173495
    21  H    0.151312
    22  H    0.147015
    23  H    0.148502
    24  H    0.161937
    25  C   -0.298019
    26  C   -0.298497
    27  C   -0.474764
    28  H    0.157553
    29  H    0.148285
    30  H    0.149333
    31  H    0.148522
    32  H    0.153806
    33  H    0.155645
    34  H    0.156001
 Sum of Mulliken charges =  -0.00000

 Dipole moment (field-independent basis, Debye):
    X=             -5.6937    Y=             -0.3255    Z=             -0.1417  Tot=              5.7047
 Quadrupole moment (field-independent basis, Debye-Ang):
   XX=            -67.1056   YY=            -92.0251   ZZ=            -94.3594
   XY=              1.5505   XZ=              0.2783   YZ=             -2.3702

 Normal termination of Gaussian 16 at Thu May  6 07:54:55 2021.
