 Gaussian 16, Revision A.03,
 Gaussian 16:  EM64L-G16RevA.03 25-Dec-2016

 -------------
 #p 6-31g* mp2
 -------------

 ------------------------------------------------------
 Input file generated by CHIRIPA (05-May-2021 14:57:27)
 ------------------------------------------------------
 Symbolic Z-matrix:
 Charge =  0 Multiplicity = 1

                         Standard orientation:
 ---------------------------------------------------------------------
 Center     Atomic      Atomic             Coordinates (Angstroms)
 Number     Number       Type             X           Y           Z
 ---------------------------------------------------------------------
      1          6           0        2.359257    1.074281    2.324745
      2          6           0        3.187510    1.758432    1.428947
      3          6           0        3.552917    1.174658    0.212298
      4          6           0        3.069771   -0.100404   -0.077665
      5          6           0        2.243052   -0.807439    0.794073
      6          6           0        1.890498   -0.204217    2.005013
      7          1           0        2.080393    1.535324    3.267650
      8          1           0        3.553045    2.751447    1.674610
      9          1           0        4.192790    1.681893   -0.499525
     10          1           0        1.894369   -1.796096    0.521316
     11          1           0        1.247126   -0.737887    2.698781
     12          7           0        3.449808   -0.728713   -1.362655
     13          8           0        3.010901   -1.853083   -1.594585
     14          8           0        4.179391   -0.084916   -2.113568
     15          6           0       -2.803924   -2.385733    0.670822
     16          6           0       -1.653339   -1.627284    0.431174
     17          6           0       -1.753976   -0.306165   -0.014992
     18          6           0       -3.026783    0.227190   -0.211935
     19          6           0       -4.191825   -0.502950    0.017983
     20          6           0       -4.067266   -1.822139    0.463826
     21          1           0       -2.716456   -3.411260    1.017288
     22          1           0       -0.670905   -2.062373    0.591070
     23          1           0       -0.879719    0.303520   -0.208325
     24          1           0       -5.157415   -0.041780   -0.150463
     25          1           0       -4.962554   -2.408799    0.649121
     26          7           0       -3.145984    1.624778   -0.684100
     27          8           0       -4.278934    2.071488   -0.849963
     28          8           0       -2.104207    2.247034   -0.879379
 ---------------------------------------------------------------------

 SCF Done:  E(RHF) =  -868.337397150     A.U. after   16 cycles
 E2 =    -0.2600842968D+01 EUMP2 =    -0.87093824011849D+03

 The electronic state is 1-A.
 Alpha  occ. eigenvalues --  -20.61205 -20.61178 -20.60912 -20.60907 -15.86253
 Alpha  occ. eigenvalues --  -15.85968 -11.31735 -11.31354 -11.28415 -11.28198
 Alpha  occ. eigenvalues --  -11.27963 -11.27948 -11.27925 -11.27725 -11.27390
 Alpha  occ. eigenvalues --  -11.27211 -11.27021 -11.26952  -1.60266  -1.59988
 Alpha  occ. eigenvalues --   -1.39819  -1.39540  -1.19893  -1.19550  -1.09239
 Alpha  occ. eigenvalues --   -1.08945  -1.05334  -1.04952  -0.96071  -0.95766
 Alpha  occ. eigenvalues --   -0.86690  -0.86365  -0.82923  -0.82594  -0.77986
 Alpha  occ. eigenvalues --   -0.77620  -0.72465  -0.72187  -0.71592  -0.71312
 Alpha  occ. eigenvalues --   -0.70972  -0.70652  -0.65547  -0.65309  -0.65206
 Alpha  occ. eigenvalues --   -0.64989  -0.62758  -0.62211  -0.55750  -0.55472
 Alpha  occ. eigenvalues --   -0.53610  -0.53428  -0.53268  -0.53035  -0.49236
 Alpha  occ. eigenvalues --   -0.49213  -0.48949  -0.48936  -0.45200  -0.44940
 Alpha  occ. eigenvalues --   -0.37825  -0.37542  -0.36970  -0.36509
 Alpha virt. eigenvalues --    0.04545   0.04903   0.10702   0.11071   0.15951
 Alpha virt. eigenvalues --    0.16412   0.19280   0.21963   0.24897   0.27478
 Alpha virt. eigenvalues --    0.28027   0.28718   0.30312   0.31174   0.31957

 Mulliken charges:
               1
     1  C   -0.169272
     2  C   -0.215681
     3  C   -0.168477
     4  C    0.161168
     5  C   -0.183700
     6  C   -0.219060
     7  H    0.229333
     8  H    0.228102
     9  H    0.279147
    10  H    0.270091
    11  H    0.222572
    12  N    0.488359
    13  O   -0.462747
    14  O   -0.455852
    15  C   -0.171012
    16  C   -0.220677
    17  C   -0.172115
    18  C    0.158331
    19  C   -0.170162
    20  C   -0.218860
    21  H    0.226218
    22  H    0.217560
    23  H    0.278562
    24  H    0.276227
    25  H    0.224174
    26  N    0.488102
    27  O   -0.460208
    28  O   -0.460122
 Sum of Mulliken charges =  -0.00000

 Dipole moment (field-independent basis, Debye):
    X=             -0.7494    Y=             -2.4488    Z=              6.1804  Tot=              6.6899
 Quadrupole moment (field-independent basis, Debye-Ang):
   XX=           -108.6534   YY=           -104.9470   ZZ=           -107.1726
   XY=             25.7968   XZ=              8.2294   YZ=             -0.0417

 Normal termination of Gaussian 16 at Thu May  6 16:30:40 2021.
