 Gaussian 16, Revision A.03,
 Gaussian 16:  EM64L-G16RevA.03 25-Dec-2016

 -------------
 #p 6-31g* mp2
 -------------

 ------------------------------------------------------
 Input file generated by CHIRIPA (05-May-2021 14:55:25)
 ------------------------------------------------------
 Symbolic Z-matrix:
 Charge =  0 Multiplicity = 1

                         Standard orientation:
 ---------------------------------------------------------------------
 Center     Atomic      Atomic             Coordinates (Angstroms)
 Number     Number       Type             X           Y           Z
 ---------------------------------------------------------------------
      1          6           0        1.603833    2.178241    0.350059
      2          6           0        1.871649    1.333936    1.432624
      3          6           0        2.747069    0.253193    1.290558
      4          6           0        3.339875    0.045149    0.046134
      5          6           0        3.093207    0.868575   -1.051324
      6          6           0        2.214390    1.943280   -0.886280
      7          1           0        0.922467    3.015443    0.469345
      8          1           0        1.398917    1.514000    2.393949
      9          1           0        2.972195   -0.416124    2.111990
     10          1           0        3.579563    0.663687   -1.997314
     11          1           0        2.008266    2.597334   -1.728759
     12          7           0        4.268440   -1.095789   -0.116428
     13          8           0        4.777943   -1.257639   -1.223156
     14          8           0        4.469165   -1.806602    0.865963
     15          6           0       -4.734938   -0.392060    0.286940
     16          6           0       -5.972031   -0.051318   -0.544611
     17          6           0       -7.276247   -0.243506    0.229908
     18          1           0       -4.808162   -1.432461    0.632122
     19          1           0       -4.723165    0.236230    1.188332
     20          1           0       -5.980737   -0.679092   -1.444855
     21          1           0       -5.895762    0.988333   -0.888014
     22          1           0       -7.293608    0.394442    1.119471
     23          1           0       -7.379065   -1.282458    0.559466
     24          1           0       -8.147823    0.005715   -0.383365
     25          6           0       -3.423362   -0.204906   -0.473632
     26          6           0       -2.186268   -0.545648    0.357920
     27          6           0       -0.882052   -0.353460   -0.416599
     28          1           0       -3.435135   -0.833196   -1.375024
     29          1           0       -3.350137    0.835495   -0.818815
     30          1           0       -2.262537   -1.585298    0.701322
     31          1           0       -2.177563    0.082127    1.258163
     32          1           0       -0.779234    0.685492   -0.746158
     33          1           0       -0.864691   -0.991408   -1.306163
     34          1           0       -0.010476   -0.602681    0.196674
 ---------------------------------------------------------------------

 SCF Done:  E(RHF) =  -669.534039267     A.U. after   15 cycles
 E2 =    -0.2093366628D+01 EUMP2 =    -0.67162740589444D+03

 The electronic state is 1-A.
 Alpha  occ. eigenvalues --  -20.60788 -20.60782 -15.85843 -11.31229 -11.27796
 Alpha  occ. eigenvalues --  -11.27788 -11.27504 -11.26793 -11.26773 -11.21878
 Alpha  occ. eigenvalues --  -11.21860 -11.21696 -11.21633 -11.21300 -11.21123
 Alpha  occ. eigenvalues --   -1.59863  -1.39416  -1.19402  -1.08799  -1.08694
 Alpha  occ. eigenvalues --   -1.04805  -1.03769  -0.96208  -0.95621  -0.87223
 Alpha  occ. eigenvalues --   -0.86199  -0.82453  -0.79841  -0.78525  -0.77498
 Alpha  occ. eigenvalues --   -0.72060  -0.71187  -0.70508  -0.65344  -0.65048
 Alpha  occ. eigenvalues --   -0.64801  -0.62148  -0.61191  -0.59623  -0.57841
 Alpha  occ. eigenvalues --   -0.55574  -0.55299  -0.53676  -0.52891  -0.52643
 Alpha  occ. eigenvalues --   -0.52254  -0.50119  -0.48821  -0.48814  -0.48161
 Alpha  occ. eigenvalues --   -0.46887  -0.46062  -0.46001  -0.44818  -0.43998
 Alpha  occ. eigenvalues --   -0.37287  -0.36368
 Alpha virt. eigenvalues --    0.05014   0.11174   0.16490   0.21176   0.22652
 Alpha virt. eigenvalues --    0.24153   0.26339   0.26941   0.27481   0.27669
 Alpha virt. eigenvalues --    0.28393   0.30860   0.31265   0.31681   0.31819

 Mulliken charges:
               1
     1  C   -0.166860
     2  C   -0.216703
     3  C   -0.174590
     4  C    0.160492
     5  C   -0.170013
     6  C   -0.216745
     7  H    0.225261
     8  H    0.223555
     9  H    0.275813
    10  H    0.275910
    11  H    0.223558
    12  N    0.488047
    13  O   -0.460192
    14  O   -0.460506
    15  C   -0.298105
    16  C   -0.299654
    17  C   -0.475771
    18  H    0.151047
    19  H    0.147845
    20  H    0.152877
    21  H    0.150784
    22  H    0.154647
    23  H    0.156053
    24  H    0.160786
    25  C   -0.297644
    26  C   -0.299985
    27  C   -0.476305
    28  H    0.151320
    29  H    0.146161
    30  H    0.153903
    31  H    0.145413
    32  H    0.148454
    33  H    0.155171
    34  H    0.165973
 Sum of Mulliken charges =  -0.00000

 Dipole moment (field-independent basis, Debye):
    X=             -3.1980    Y=              4.0243    Z=              0.5572  Tot=              5.1704
 Quadrupole moment (field-independent basis, Debye-Ang):
   XX=           -118.3984   YY=            -93.7470   ZZ=            -90.2911
   XY=             13.6855   XZ=              1.4346   YZ=             -0.8195

 Normal termination of Gaussian 16 at Thu May  6 07:58:31 2021.
