 Gaussian 16, Revision A.03,
 Gaussian 16:  EM64L-G16RevA.03 25-Dec-2016

 -------------
 #p 6-31g* mp2
 -------------

 ------------------------------------------------------
 Input file generated by CHIRIPA (05-May-2021 14:55:20)
 ------------------------------------------------------
 Symbolic Z-matrix:
 Charge =  0 Multiplicity = 1

                         Standard orientation:
 ---------------------------------------------------------------------
 Center     Atomic      Atomic             Coordinates (Angstroms)
 Number     Number       Type             X           Y           Z
 ---------------------------------------------------------------------
      1          6           0        1.311784   -1.416433    2.309790
      2          6           0        2.054288   -0.239094    2.171655
      3          6           0        2.403173    0.235662    0.903809
      4          6           0        1.991126   -0.495290   -0.209392
      5          6           0        1.250578   -1.671667   -0.104427
      6          6           0        0.913002   -2.127708    1.173312
      7          1           0        1.045154   -1.777966    3.298526
      8          1           0        2.365350    0.315353    3.052492
      9          1           0        2.977314    1.144150    0.768049
     10          1           0        0.954853   -2.202642   -1.001104
     11          1           0        0.336292   -3.042356    1.277569
     12          7           0        2.354489   -0.002593   -1.556840
     13          8           0        1.979354   -0.664904   -2.521856
     14          8           0        3.007548    1.036564   -1.622441
     15          6           0       -2.251813    1.322122    0.423824
     16          6           0       -0.978116    2.007963   -0.071456
     17          6           0       -0.550333    3.174725    0.819310
     18          1           0       -3.062397    2.061836    0.476011
     19          1           0       -2.090895    0.961884    1.449363
     20          1           0       -1.140928    2.365580   -1.096257
     21          1           0       -0.170519    1.266490   -0.122652
     22          1           0       -0.360682    2.830026    1.840983
     23          1           0       -1.336605    3.935362    0.861847
     24          1           0        0.362224    3.650556    0.446908
     25          6           0       -2.692160    0.153699   -0.456294
     26          6           0       -3.965857   -0.532142    0.038986
     27          6           0       -4.393639   -1.698904   -0.851781
     28          1           0       -2.853078    0.513937   -1.481833
     29          1           0       -1.881576   -0.586015   -0.508481
     30          1           0       -4.773454    0.209331    0.090182
     31          1           0       -3.803044   -0.889759    1.063787
     32          1           0       -3.607368   -2.459541   -0.894317
     33          1           0       -4.583290   -1.354206   -1.873454
     34          1           0       -5.306196   -2.174735   -0.479379
 ---------------------------------------------------------------------

 SCF Done:  E(RHF) =  -669.534776741     A.U. after   15 cycles
 E2 =    -0.2094858288D+01 EUMP2 =    -0.67162963502943D+03

 The electronic state is 1-A.
 Alpha  occ. eigenvalues --  -20.60843 -20.60838 -15.85893 -11.31279 -11.27895
 Alpha  occ. eigenvalues --  -11.27869 -11.27646 -11.26935 -11.26914 -11.21736
 Alpha  occ. eigenvalues --  -11.21423 -11.21388 -11.21333 -11.21242 -11.21049
 Alpha  occ. eigenvalues --   -1.59915  -1.39467  -1.19513  -1.08887  -1.08436
 Alpha  occ. eigenvalues --   -1.04911  -1.03555  -0.96018  -0.95706  -0.87038
 Alpha  occ. eigenvalues --   -0.86299  -0.82535  -0.79627  -0.78256  -0.77572
 Alpha  occ. eigenvalues --   -0.72114  -0.71254  -0.70594  -0.65155  -0.65089
 Alpha  occ. eigenvalues --   -0.64899  -0.62248  -0.60995  -0.59386  -0.57621
 Alpha  occ. eigenvalues --   -0.55402  -0.55327  -0.53294  -0.52988  -0.52696
 Alpha  occ. eigenvalues --   -0.52439  -0.49974  -0.48879  -0.48866  -0.47937
 Alpha  occ. eigenvalues --   -0.46672  -0.45769  -0.45699  -0.44855  -0.43798
 Alpha  occ. eigenvalues --   -0.37397  -0.36486
 Alpha virt. eigenvalues --    0.04918   0.11081   0.16373   0.21102   0.22860
 Alpha virt. eigenvalues --    0.24024   0.26223   0.27018   0.27349   0.28068
 Alpha virt. eigenvalues --    0.28388   0.30526   0.31289   0.31588   0.31889

 Mulliken charges:
               1
     1  C   -0.171687
     2  C   -0.215666
     3  C   -0.172380
     4  C    0.156151
     5  C   -0.172051
     6  C   -0.217291
     7  H    0.226408
     8  H    0.224526
     9  H    0.276366
    10  H    0.276599
    11  H    0.224389
    12  N    0.491530
    13  O   -0.460113
    14  O   -0.460384
    15  C   -0.296352
    16  C   -0.305177
    17  C   -0.476610
    18  H    0.149236
    19  H    0.145380
    20  H    0.156816
    21  H    0.156592
    22  H    0.148723
    23  H    0.155572
    24  H    0.163226
    25  C   -0.299879
    26  C   -0.299423
    27  C   -0.474659
    28  H    0.153258
    29  H    0.147201
    30  H    0.152986
    31  H    0.147885
    32  H    0.150831
    33  H    0.158237
    34  H    0.159759
 Sum of Mulliken charges =  -0.00000

 Dipole moment (field-independent basis, Debye):
    X=             -1.1749    Y=             -1.7344    Z=              4.6879  Tot=              5.1347
 Quadrupole moment (field-independent basis, Debye-Ang):
   XX=            -99.3155   YY=            -90.6714   ZZ=            -96.3441
   XY=             -1.5390   XZ=             11.2598   YZ=             -1.2268

 Normal termination of Gaussian 16 at Wed May  5 20:34:16 2021.
