 Gaussian 16, Revision A.03,
 Gaussian 16:  EM64L-G16RevA.03 25-Dec-2016

 -------------
 #p 6-31g* mp2
 -------------

 ------------------------------------------------------
 Input file generated by CHIRIPA (05-May-2021 14:55:23)
 ------------------------------------------------------
 Symbolic Z-matrix:
 Charge =  0 Multiplicity = 1

                         Standard orientation:
 ---------------------------------------------------------------------
 Center     Atomic      Atomic             Coordinates (Angstroms)
 Number     Number       Type             X           Y           Z
 ---------------------------------------------------------------------
      1          6           0        4.128501    2.051364   -0.774687
      2          6           0        3.400627    2.221695    0.407560
      3          6           0        2.754293    1.136072    1.006078
      4          6           0        2.857209   -0.111432    0.392539
      5          6           0        3.574866   -0.313104   -0.785419
      6          6           0        4.213149    0.786738   -1.366360
      7          1           0        4.627462    2.900224   -1.232803
      8          1           0        3.333170    3.202666    0.869284
      9          1           0        2.184141    1.239730    1.921284
     10          1           0        3.624003   -1.303141   -1.222260
     11          1           0        4.777728    0.651500   -2.284513
     12          7           0        2.177226   -1.268259    1.016860
     13          8           0        2.283182   -2.357049    0.456550
     14          8           0        1.551174   -1.064284    2.054689
     15          6           0       -3.172261   -0.515368   -0.239729
     16          6           0       -2.341665   -0.771465   -1.497707
     17          6           0       -1.087715   -1.600907   -1.219448
     18          1           0       -2.549067   -0.001858    0.505176
     19          1           0       -3.459690   -1.478708    0.203843
     20          1           0       -2.057055    0.192066   -1.939543
     21          1           0       -2.966965   -1.284255   -2.239774
     22          1           0       -1.356005   -2.575917   -0.799949
     23          1           0       -0.440926   -1.091206   -0.498012
     24          1           0       -0.508813   -1.772048   -2.132378
     25          6           0       -4.429091    0.312548   -0.501759
     26          6           0       -5.259687    0.568645    0.756219
     27          6           0       -6.513637    1.398088    0.477960
     28          1           0       -4.141661    1.275888   -0.945331
     29          1           0       -5.052285   -0.200962   -1.246663
     30          1           0       -4.634387    1.081435    1.498287
     31          1           0       -5.544297   -0.394887    1.198055
     32          1           0       -7.160426    0.888387   -0.243476
     33          1           0       -6.245347    2.373096    0.058461
     34          1           0       -7.092539    1.569228    1.390891
 ---------------------------------------------------------------------

 SCF Done:  E(RHF) =  -669.535626340     A.U. after   15 cycles
 E2 =    -0.2091311085D+01 EUMP2 =    -0.67162693742518D+03

 The electronic state is 1-A.
 Alpha  occ. eigenvalues --  -20.60808 -20.60794 -15.85837 -11.31217 -11.27791
 Alpha  occ. eigenvalues --  -11.27781 -11.27534 -11.26806 -11.26795 -11.21266
 Alpha  occ. eigenvalues --  -11.21087 -11.21010 -11.20842 -11.20821 -11.20363
 Alpha  occ. eigenvalues --   -1.59874  -1.39425  -1.19391  -1.08787  -1.07990
 Alpha  occ. eigenvalues --   -1.04795  -1.03082  -0.95621  -0.95516  -0.86526
 Alpha  occ. eigenvalues --   -0.86192  -0.82451  -0.79147  -0.77789  -0.77497
 Alpha  occ. eigenvalues --   -0.72063  -0.71211  -0.70499  -0.65044  -0.64798
 Alpha  occ. eigenvalues --   -0.64627  -0.62142  -0.60485  -0.58900  -0.57124
 Alpha  occ. eigenvalues --   -0.55298  -0.54804  -0.53124  -0.52887  -0.52218
 Alpha  occ. eigenvalues --   -0.51921  -0.49457  -0.48824  -0.48820  -0.47448
 Alpha  occ. eigenvalues --   -0.46194  -0.45326  -0.45262  -0.44820  -0.43331
 Alpha  occ. eigenvalues --   -0.37373  -0.36397
 Alpha virt. eigenvalues --    0.05030   0.11253   0.16505   0.21385   0.23262
 Alpha virt. eigenvalues --    0.24685   0.27034   0.27290   0.27831   0.28137
 Alpha virt. eigenvalues --    0.28476   0.30860   0.31704   0.32190   0.32205

 Mulliken charges:
               1
     1  C   -0.170714
     2  C   -0.218589
     3  C   -0.171571
     4  C    0.156537
     5  C   -0.170370
     6  C   -0.218637
     7  H    0.225689
     8  H    0.223470
     9  H    0.275573
    10  H    0.276010
    11  H    0.223576
    12  N    0.488761
    13  O   -0.457719
    14  O   -0.460461
    15  C   -0.298097
    16  C   -0.300729
    17  C   -0.471005
    18  H    0.151864
    19  H    0.152118
    20  H    0.147035
    21  H    0.149996
    22  H    0.162632
    23  H    0.153105
    24  H    0.155779
    25  C   -0.297858
    26  C   -0.299319
    27  C   -0.475404
    28  H    0.146803
    29  H    0.148640
    30  H    0.151851
    31  H    0.153081
    32  H    0.154742
    33  H    0.153596
    34  H    0.159616
 Sum of Mulliken charges =  -0.00000

 Dipole moment (field-independent basis, Debye):
    X=              2.5004    Y=              3.9742    Z=             -2.1445  Tot=              5.1619
 Quadrupole moment (field-independent basis, Debye-Ang):
   XX=            -82.1584   YY=            -93.7300   ZZ=            -94.3420
   XY=             11.7023   XZ=             -7.0877   YZ=              4.5201

 Normal termination of Gaussian 16 at Wed May  5 17:32:38 2021.
