 Gaussian 16, Revision A.03,
 Gaussian 16:  EM64L-G16RevA.03 25-Dec-2016

 -------------
 #p 6-31g* mp2
 -------------

 ------------------------------------------------------
 Input file generated by CHIRIPA (05-May-2021 14:51:08)
 ------------------------------------------------------
 Symbolic Z-matrix:
 Charge =  0 Multiplicity = 1

                         Standard orientation:
 ---------------------------------------------------------------------
 Center     Atomic      Atomic             Coordinates (Angstroms)
 Number     Number       Type             X           Y           Z
 ---------------------------------------------------------------------
      1          6           0       -3.273121   -0.704458   -0.168823
      2          6           0       -2.095028   -0.351291    0.739668
      3          6           0       -0.778569   -0.969380    0.267761
      4          1           0       -3.375966   -1.797177   -0.217130
      5          1           0       -3.053474   -0.365699   -1.190778
      6          1           0       -2.317422   -0.689381    1.759889
      7          1           0       -1.995095    0.740719    0.785970
      8          1           0       -0.529962   -0.622968   -0.740601
      9          1           0       -0.854121   -2.061194    0.238852
     10          1           0        0.050202   -0.704117    0.931563
     11          6           0       -4.596183   -0.093868    0.289887
     12          6           0       -5.774276   -0.447035   -0.618604
     13          6           0       -7.090734    0.171055   -0.146697
     14          1           0       -4.815830   -0.432627    1.311842
     15          1           0       -4.493338    0.998851    0.338194
     16          1           0       -5.874209   -1.539045   -0.664906
     17          1           0       -5.551882   -0.108945   -1.638825
     18          1           0       -7.015182    1.262868   -0.117788
     19          1           0       -7.339341   -0.175357    0.861665
     20          1           0       -7.919506   -0.094209   -0.810499
     21          6           0        4.499198    0.055776   -0.443683
     22          6           0        5.382493   -0.826206    0.439424
     23          6           0        6.507387   -1.506372   -0.341463
     24          1           0        4.070451   -0.555696   -1.249427
     25          1           0        5.123480    0.818879   -0.928805
     26          1           0        4.756514   -1.586556    0.923814
     27          1           0        5.809035   -0.212603    1.243271
     28          1           0        7.155777   -0.760055   -0.811785
     29          1           0        6.097275   -2.141814   -1.133058
     30          1           0        7.126483   -2.131905    0.309143
     31          6           0        3.370105    0.742549    0.322620
     32          6           0        2.486810    1.624532   -0.560488
     33          6           0        1.361917    2.304698    0.220399
     34          1           0        2.745824   -0.020553    0.807741
     35          1           0        3.798852    1.354022    1.128364
     36          1           0        2.060269    1.010930   -1.364335
     37          1           0        3.112791    2.384882   -1.044878
     38          1           0        1.772028    2.940139    1.011994
     39          1           0        0.713527    1.558380    0.690721
     40          1           0        0.742821    2.930231   -0.430206
 ---------------------------------------------------------------------

 SCF Done:  E(RHF) =  -470.732798654     A.U. after   11 cycles
 E2 =    -0.1583315748D+01 EUMP2 =    -0.47231611440247D+03

 The electronic state is 1-A.
 Alpha  occ. eigenvalues --  -11.21644 -11.21614 -11.21573 -11.21552 -11.21430
 Alpha  occ. eigenvalues --  -11.21369 -11.21369 -11.21310 -11.21141 -11.21079
 Alpha  occ. eigenvalues --  -11.21047 -11.20964  -1.08463  -1.08387  -1.03595
 Alpha  occ. eigenvalues --   -1.03462  -0.96059  -0.95902  -0.87057  -0.86938
 Alpha  occ. eigenvalues --   -0.79629  -0.79552  -0.78268  -0.78209  -0.65149
 Alpha  occ. eigenvalues --   -0.64984  -0.61177  -0.60749  -0.59443  -0.59241
 Alpha  occ. eigenvalues --   -0.57714  -0.57476  -0.55480  -0.55023  -0.52745
 Alpha  occ. eigenvalues --   -0.52624  -0.52485  -0.52309  -0.49982  -0.49824
 Alpha  occ. eigenvalues --   -0.47973  -0.47841  -0.46682  -0.46537  -0.45815
 Alpha  occ. eigenvalues --   -0.45743  -0.45736  -0.45649  -0.43801  -0.43733
 Alpha virt. eigenvalues --    0.20820   0.23047   0.23595   0.25277   0.25941
 Alpha virt. eigenvalues --    0.26410   0.26629   0.27478   0.27985   0.29219
 Alpha virt. eigenvalues --    0.30106   0.31062   0.31168   0.31922   0.32273

 Mulliken charges:
               1
     1  C   -0.298337
     2  C   -0.302586
     3  C   -0.481271
     4  H    0.149712
     5  H    0.149716
     6  H    0.152180
     7  H    0.154835
     8  H    0.156954
     9  H    0.156121
    10  H    0.162394
    11  C   -0.298367
    12  C   -0.299687
    13  C   -0.475732
    14  H    0.149594
    15  H    0.149954
    16  H    0.151924
    17  H    0.151966
    18  H    0.155273
    19  H    0.155211
    20  H    0.160288
    21  C   -0.298175
    22  C   -0.299696
    23  C   -0.475696
    24  H    0.149940
    25  H    0.149397
    26  H    0.152030
    27  H    0.151788
    28  H    0.155096
    29  H    0.155232
    30  H    0.160144
    31  C   -0.301161
    32  C   -0.299318
    33  C   -0.483025
    34  H    0.151737
    35  H    0.149429
    36  H    0.152315
    37  H    0.151669
    38  H    0.154385
    39  H    0.164865
    40  H    0.158904
 Sum of Mulliken charges =  -0.00000

 Dipole moment (field-independent basis, Debye):
    X=             -0.0373    Y=             -0.0206    Z=              0.0034  Tot=              0.0428
 Quadrupole moment (field-independent basis, Debye-Ang):
   XX=            -86.2120   YY=            -84.0102   ZZ=            -84.6659
   XY=              1.4599   XZ=              0.5827   YZ=             -0.6412

 Normal termination of Gaussian 16 at Wed May  5 22:56:40 2021.
