 Gaussian 16, Revision A.03,
 Gaussian 16:  EM64L-G16RevA.03 25-Dec-2016

 -------------
 #p 6-31g* mp2
 -------------

 ------------------------------------------------------
 Input file generated by CHIRIPA (05-May-2021 14:55:19)
 ------------------------------------------------------
 Symbolic Z-matrix:
 Charge =  0 Multiplicity = 1

                         Standard orientation:
 ---------------------------------------------------------------------
 Center     Atomic      Atomic             Coordinates (Angstroms)
 Number     Number       Type             X           Y           Z
 ---------------------------------------------------------------------
      1          6           0       -1.965648    2.604701    0.385141
      2          6           0       -1.194877    1.437559    0.399703
      3          6           0       -1.788101    0.192061    0.173058
      4          6           0       -3.160838    0.150254   -0.065971
      5          6           0       -3.955634    1.295310   -0.086862
      6          6           0       -3.341142    2.529983    0.142333
      7          1           0       -1.496557    3.568029    0.562194
      8          1           0       -0.126438    1.492567    0.588003
      9          1           0       -1.215093   -0.727204    0.178700
     10          1           0       -5.018466    1.208668   -0.277383
     11          1           0       -3.942217    3.434755    0.130433
     12          7           0       -3.800115   -1.162569   -0.307259
     13          8           0       -5.011390   -1.172548   -0.515469
     14          8           0       -3.077802   -2.156722   -0.283603
     15          6           0        4.218774    0.213714   -0.115577
     16          6           0        5.743419    0.180570   -0.226669
     17          6           0        6.344390    1.554430   -0.525232
     18          1           0        3.797644    0.604040   -1.052187
     19          1           0        3.930983    0.920506    0.675004
     20          1           0        6.028294   -0.526982   -1.015867
     21          1           0        6.160959   -0.209902    0.710245
     22          1           0        6.089011    2.266803    0.265910
     23          1           0        5.955591    1.947921   -1.470008
     24          1           0        7.435266    1.507686   -0.600488
     25          6           0        3.603248   -1.152269    0.182658
     26          6           0        2.078602   -1.119125    0.293751
     27          6           0        1.477632   -2.492985    0.592313
     28          1           0        3.891039   -1.859060   -0.607923
     29          1           0        4.024378   -1.542595    1.119269
     30          1           0        1.661062   -0.728653   -0.643162
     31          1           0        1.793728   -0.411572    1.082948
     32          1           0        1.866430   -2.886476    1.537089
     33          1           0        1.733011   -3.205357   -0.198829
     34          1           0        0.386756   -2.446241    0.667571
 ---------------------------------------------------------------------

 SCF Done:  E(RHF) =  -669.535596789     A.U. after   15 cycles
 E2 =    -0.2091985809D+01 EUMP2 =    -0.67162758259849D+03

 The electronic state is 1-A.
 Alpha  occ. eigenvalues --  -20.60733 -20.60728 -15.85782 -11.31116 -11.27692
 Alpha  occ. eigenvalues --  -11.27651 -11.27423 -11.26708 -11.26652 -11.22379
 Alpha  occ. eigenvalues --  -11.22051 -11.21975 -11.21917 -11.21504 -11.21484
 Alpha  occ. eigenvalues --   -1.59807  -1.39362  -1.19288  -1.09004  -1.08690
 Alpha  occ. eigenvalues --   -1.04689  -1.04070  -0.96482  -0.95529  -0.87488
 Alpha  occ. eigenvalues --   -0.86086  -0.82365  -0.80158  -0.78841  -0.77407
 Alpha  occ. eigenvalues --   -0.72003  -0.71128  -0.70413  -0.65626  -0.64939
 Alpha  occ. eigenvalues --   -0.64695  -0.62128  -0.61455  -0.59807  -0.58099
 Alpha  occ. eigenvalues --   -0.55737  -0.55188  -0.53189  -0.53048  -0.53017
 Alpha  occ. eigenvalues --   -0.52597  -0.50397  -0.48763  -0.48757  -0.48451
 Alpha  occ. eigenvalues --   -0.47189  -0.46357  -0.46282  -0.44773  -0.44316
 Alpha  occ. eigenvalues --   -0.37275  -0.36284
 Alpha virt. eigenvalues --    0.05106   0.11359   0.16589   0.19640   0.22608
 Alpha virt. eigenvalues --    0.23673   0.25117   0.26014   0.26355   0.28424
 Alpha virt. eigenvalues --    0.29306   0.29871   0.31022   0.31566   0.32442

 Mulliken charges:
               1
     1  C   -0.170771
     2  C   -0.225936
     3  C   -0.180396
     4  C    0.157710
     5  C   -0.170048
     6  C   -0.219039
     7  H    0.225447
     8  H    0.228319
     9  H    0.289672
    10  H    0.275330
    11  H    0.223107
    12  N    0.486992
    13  O   -0.460348
    14  O   -0.461959
    15  C   -0.298893
    16  C   -0.300043
    17  C   -0.476043
    18  H    0.149406
    19  H    0.145888
    20  H    0.154030
    21  H    0.153272
    22  H    0.154253
    23  H    0.155314
    24  H    0.162159
    25  C   -0.297775
    26  C   -0.308366
    27  C   -0.482929
    28  H    0.153708
    29  H    0.152346
    30  H    0.151479
    31  H    0.145674
    32  H    0.158772
    33  H    0.162041
    34  H    0.167626
 Sum of Mulliken charges =  -0.00000

 Dipole moment (field-independent basis, Debye):
    X=              2.4331    Y=              4.4890    Z=              0.8277  Tot=              5.1726
 Quadrupole moment (field-independent basis, Debye-Ang):
   XX=           -104.9703   YY=            -93.2336   ZZ=            -94.7458
   XY=            -17.5522   XZ=             -2.1804   YZ=             -0.0821

 Normal termination of Gaussian 16 at Thu May  6 02:54:25 2021.
