 Gaussian 16, Revision A.03,
 Gaussian 16:  EM64L-G16RevA.03 25-Dec-2016

 -------------
 #p 6-31g* mp2
 -------------

 ------------------------------------------------------
 Input file generated by CHIRIPA (05-May-2021 14:55:24)
 ------------------------------------------------------
 Symbolic Z-matrix:
 Charge =  0 Multiplicity = 1

                         Standard orientation:
 ---------------------------------------------------------------------
 Center     Atomic      Atomic             Coordinates (Angstroms)
 Number     Number       Type             X           Y           Z
 ---------------------------------------------------------------------
      1          6           0        4.234819   -1.482743    0.721514
      2          6           0        3.182518   -1.709382   -0.171692
      3          6           0        2.372202   -0.652511   -0.597086
      4          6           0        2.643741    0.623974   -0.107041
      5          6           0        3.684655    0.881743    0.783656
      6          6           0        4.482093   -0.190182    1.195502
      7          1           0        4.859290   -2.309593    1.046708
      8          1           0        2.988153   -2.712154   -0.541443
      9          1           0        1.550911   -0.799765   -1.287893
     10          1           0        3.853874    1.892392    1.134897
     11          1           0        5.298629   -0.011215    1.889249
     12          7           0        1.792712    1.750804   -0.550215
     13          8           0        2.052650    2.866071   -0.103841
     14          8           0        0.881852    1.497411   -1.335558
     15          6           0       -3.111148   -1.160681    0.181863
     16          6           0       -1.905780   -1.239999   -0.755570
     17          6           0       -1.010250   -2.445060   -0.466346
     18          1           0       -2.757178   -1.115289    1.220896
     19          1           0       -3.698342   -2.085065    0.091796
     20          1           0       -1.321790   -0.315158   -0.664782
     21          1           0       -2.262655   -1.285014   -1.792502
     22          1           0       -1.572511   -3.378024   -0.576079
     23          1           0       -0.626301   -2.402659    0.558049
     24          1           0       -0.154796   -2.482322   -1.148012
     25          6           0       -4.015893    0.038740   -0.094820
     26          6           0       -5.221262    0.118058    0.842612
     27          6           0       -6.116791    1.323119    0.553389
     28          1           0       -3.428699    0.963123   -0.004753
     29          1           0       -4.369863   -0.006651   -1.133854
     30          1           0       -4.864386    0.163073    1.879545
     31          1           0       -5.805251   -0.806782    0.751824
     32          1           0       -6.500740    1.280717   -0.471006
     33          1           0       -5.554530    2.256083    0.663122
     34          1           0       -6.972245    1.360381    1.235055
 ---------------------------------------------------------------------

 SCF Done:  E(RHF) =  -669.535618412     A.U. after   15 cycles
 E2 =    -0.2092410960D+01 EUMP2 =    -0.67162802937174D+03

 The electronic state is 1-A.
 Alpha  occ. eigenvalues --  -20.60912 -20.60901 -15.85931 -11.31210 -11.27788
 Alpha  occ. eigenvalues --  -11.27740 -11.27518 -11.26787 -11.26762 -11.21300
 Alpha  occ. eigenvalues --  -11.21226 -11.21198 -11.21069 -11.20904 -11.20679
 Alpha  occ. eigenvalues --   -1.59967  -1.39524  -1.19386  -1.08799  -1.08084
 Alpha  occ. eigenvalues --   -1.04779  -1.03274  -0.95795  -0.95626  -0.86795
 Alpha  occ. eigenvalues --   -0.86176  -0.82481  -0.79305  -0.77867  -0.77532
 Alpha  occ. eigenvalues --   -0.72157  -0.71279  -0.70509  -0.65043  -0.64821
 Alpha  occ. eigenvalues --   -0.64677  -0.62203  -0.60646  -0.59137  -0.57365
 Alpha  occ. eigenvalues --   -0.55295  -0.55046  -0.53119  -0.52913  -0.52450
 Alpha  occ. eigenvalues --   -0.52160  -0.49688  -0.48934  -0.48908  -0.47627
 Alpha  occ. eigenvalues --   -0.46319  -0.45445  -0.45362  -0.44791  -0.43522
 Alpha  occ. eigenvalues --   -0.37370  -0.36357
 Alpha virt. eigenvalues --    0.04938   0.11247   0.16417   0.20457   0.23269
 Alpha virt. eigenvalues --    0.24142   0.26354   0.27057   0.27691   0.28142
 Alpha virt. eigenvalues --    0.29168   0.30592   0.31583   0.31711   0.32542

 Mulliken charges:
               1
     1  C   -0.170665
     2  C   -0.219698
     3  C   -0.172369
     4  C    0.157514
     5  C   -0.170780
     6  C   -0.218906
     7  H    0.225791
     8  H    0.224327
     9  H    0.281496
    10  H    0.275392
    11  H    0.223476
    12  N    0.488328
    13  O   -0.459158
    14  O   -0.460653
    15  C   -0.298113
    16  C   -0.310384
    17  C   -0.476621
    18  H    0.147885
    19  H    0.146579
    20  H    0.173469
    21  H    0.152674
    22  H    0.155962
    23  H    0.155405
    24  H    0.144848
    25  C   -0.299589
    26  C   -0.299465
    27  C   -0.475782
    28  H    0.157196
    29  H    0.149876
    30  H    0.150937
    31  H    0.149834
    32  H    0.155054
    33  H    0.157551
    34  H    0.158588
 Sum of Mulliken charges =  -0.00000

 Dipole moment (field-independent basis, Debye):
    X=              3.0288    Y=             -3.8041    Z=              1.5569  Tot=              5.1057
 Quadrupole moment (field-independent basis, Debye-Ang):
   XX=            -78.3370   YY=            -98.8127   ZZ=            -93.7460
   XY=             -6.2063   XZ=              6.1611   YZ=              3.7775

 Normal termination of Gaussian 16 at Thu May  6 20:55:08 2021.
