 Gaussian 16, Revision A.03,
 Gaussian 16:  EM64L-G16RevA.03 25-Dec-2016

 -------------
 #p 6-31g* mp2
 -------------

 ------------------------------------------------------
 Input file generated by CHIRIPA (05-May-2021 14:53:12)
 ------------------------------------------------------
 Symbolic Z-matrix:
 Charge =  0 Multiplicity = 1

                         Standard orientation:
 ---------------------------------------------------------------------
 Center     Atomic      Atomic             Coordinates (Angstroms)
 Number     Number       Type             X           Y           Z
 ---------------------------------------------------------------------
      1          6           0       -3.754679   -0.560677   -0.325104
      2          6           0       -3.478197   -1.686888    0.671486
      3          6           0       -4.307175   -2.940762    0.391501
      4          1           0       -4.823711   -0.309033   -0.296995
      5          1           0       -3.544912   -0.920558   -1.341902
      6          1           0       -3.687100   -1.324557    1.686223
      7          1           0       -2.409664   -1.935750    0.641139
      8          1           0       -4.092442   -3.328997   -0.609380
      9          1           0       -5.377136   -2.714331    0.441642
     10          1           0       -4.093779   -3.733112    1.115728
     11          6           0       -2.933453    0.699534   -0.058301
     12          6           0       -3.209935    1.825745   -1.054891
     13          6           0       -2.380957    3.079618   -0.774906
     14          1           0       -3.143220    1.059414    0.958497
     15          1           0       -1.864421    0.447889   -0.086410
     16          1           0       -4.278468    2.074607   -1.024544
     17          1           0       -3.001032    1.463414   -2.069628
     18          1           0       -1.310996    2.853187   -0.825047
     19          1           0       -2.595690    3.467853    0.225975
     20          1           0       -2.594353    3.871968   -1.499133
     21          6           0        1.567166    2.037780    1.096626
     22          6           0        0.861233    0.830446    1.119483
     23          6           0        1.430596   -0.334925    0.597672
     24          6           0        2.713616   -0.256489    0.058229
     25          6           0        3.442263    0.931354    0.020909
     26          6           0        2.853161    2.084298    0.548379
     27          1           0        1.117205    2.938242    1.504180
     28          1           0       -0.137650    0.791351    1.544631
     29          1           0        0.906418   -1.282886    0.602531
     30          1           0        4.436291    0.939054   -0.409516
     31          1           0        3.403739    3.020538    0.529284
     32          7           0        3.326823   -1.483638   -0.497185
     33          8           0        4.458605   -1.388136   -0.966848
     34          8           0        2.664061   -2.517742   -0.452336
 ---------------------------------------------------------------------

 SCF Done:  E(RHF) =  -669.535563268     A.U. after   15 cycles
 E2 =    -0.2092570418D+01 EUMP2 =    -0.67162813368561D+03

 The electronic state is 1-A.
 Alpha  occ. eigenvalues --  -20.60785 -20.60780 -15.85837 -11.31212 -11.27773
 Alpha  occ. eigenvalues --  -11.27768 -11.27497 -11.26790 -11.26728 -11.22234
 Alpha  occ. eigenvalues --  -11.22162 -11.22124 -11.21917 -11.21773 -11.21404
 Alpha  occ. eigenvalues --   -1.59860  -1.39413  -1.19380  -1.09060  -1.08766
 Alpha  occ. eigenvalues --   -1.04781  -1.04098  -0.96553  -0.95603  -0.87569
 Alpha  occ. eigenvalues --   -0.86173  -0.82439  -0.80182  -0.78929  -0.77468
 Alpha  occ. eigenvalues --   -0.72055  -0.71183  -0.70473  -0.65705  -0.65024
 Alpha  occ. eigenvalues --   -0.64761  -0.62130  -0.61481  -0.59919  -0.58174
 Alpha  occ. eigenvalues --   -0.55843  -0.55262  -0.53229  -0.53116  -0.53088
 Alpha  occ. eigenvalues --   -0.52761  -0.50483  -0.48819  -0.48811  -0.48484
 Alpha  occ. eigenvalues --   -0.47206  -0.46405  -0.46340  -0.44817  -0.44367
 Alpha  occ. eigenvalues --   -0.37340  -0.36349
 Alpha virt. eigenvalues --    0.05009   0.11189   0.16380   0.20101   0.22720
 Alpha virt. eigenvalues --    0.23373   0.25072   0.25848   0.26963   0.28453
 Alpha virt. eigenvalues --    0.29459   0.30252   0.30953   0.31360   0.31788

 Mulliken charges:
               1
     1  C   -0.298072
     2  C   -0.300418
     3  C   -0.476024
     4  H    0.151832
     5  H    0.153735
     6  H    0.150544
     7  H    0.147800
     8  H    0.158569
     9  H    0.156068
    10  H    0.162559
    11  C   -0.306193
    12  C   -0.298426
    13  C   -0.480646
    14  H    0.145109
    15  H    0.149974
    16  H    0.154233
    17  H    0.156143
    18  H    0.156062
    19  H    0.150948
    20  H    0.163610
    21  C   -0.173112
    22  C   -0.219513
    23  C   -0.174347
    24  C    0.158969
    25  C   -0.170923
    26  C   -0.218732
    27  H    0.227185
    28  H    0.230225
    29  H    0.276157
    30  H    0.275692
    31  H    0.223720
    32  N    0.488037
    33  O   -0.460311
    34  O   -0.460454
 Sum of Mulliken charges =  -0.00000

 Dipole moment (field-independent basis, Debye):
    X=             -2.2549    Y=              4.2834    Z=              1.8779  Tot=              5.1921
 Quadrupole moment (field-independent basis, Debye-Ang):
   XX=           -102.5176   YY=            -96.7652   ZZ=            -94.5848
   XY=             14.3917   XZ=              3.9366   YZ=             -0.8177

 Normal termination of Gaussian 16 at Thu May  6 11:59:56 2021.
