 Gaussian 16, Revision A.03,
 Gaussian 16:  EM64L-G16RevA.03 25-Dec-2016

 -------------
 #p 6-31g* mp2
 -------------

 ------------------------------------------------------
 Input file generated by CHIRIPA (05-May-2021 14:53:16)
 ------------------------------------------------------
 Symbolic Z-matrix:
 Charge =  0 Multiplicity = 1

                         Standard orientation:
 ---------------------------------------------------------------------
 Center     Atomic      Atomic             Coordinates (Angstroms)
 Number     Number       Type             X           Y           Z
 ---------------------------------------------------------------------
      1          6           0       -1.755897    1.297102    0.231877
      2          6           0       -1.904014    2.809934    0.066388
      3          6           0       -0.703816    3.584571    0.611600
      4          1           0       -1.619322    1.062739    1.296474
      5          1           0       -0.841711    0.966965   -0.280634
      6          1           0       -2.818381    3.136918    0.577886
      7          1           0       -2.040445    3.040705   -0.997918
      8          1           0        0.214064    3.286791    0.094468
      9          1           0       -0.568292    3.383550    1.679226
     10          1           0       -0.830691    4.664033    0.483057
     11          6           0       -2.947822    0.508994   -0.308428
     12          6           0       -2.799705   -1.003838   -0.142938
     13          6           0       -3.999903   -1.778475   -0.688150
     14          1           0       -3.862008    0.839131    0.204084
     15          1           0       -3.084398    0.743357   -1.373024
     16          1           0       -2.663274   -1.234609    0.921368
     17          1           0       -1.885338   -1.330822   -0.654436
     18          1           0       -4.135427   -1.577454   -1.755776
     19          1           0       -4.917783   -1.480695   -0.171019
     20          1           0       -3.873029   -2.857937   -0.559607
     21          6           0        0.437239   -2.598308    0.936987
     22          6           0        0.647523   -2.481090   -0.440896
     23          6           0        1.421560   -1.436360   -0.954658
     24          6           0        1.972752   -0.522517   -0.057791
     25          6           0        1.781436   -0.612436    1.320107
     26          6           0        1.003868   -1.665251    1.811549
     27          1           0       -0.165424   -3.413019    1.327420
     28          1           0        0.208707   -3.204254   -1.122453
     29          1           0        1.600411   -1.321907   -2.016887
     30          1           0        2.231886    0.123833    1.974646
     31          1           0        0.842242   -1.753798    2.882101
     32          7           0        2.794060    0.587771   -0.589873
     33          8           0        3.268671    1.379880    0.221264
     34          8           0        2.947637    0.644884   -1.807982
 ---------------------------------------------------------------------

 SCF Done:  E(RHF) =  -669.534321808     A.U. after   15 cycles
 E2 =    -0.2095414539D+01 EUMP2 =    -0.67162973634739D+03

 The electronic state is 1-A.
 Alpha  occ. eigenvalues --  -20.60870 -20.60854 -15.85913 -11.31264 -11.27843
 Alpha  occ. eigenvalues --  -11.27836 -11.27562 -11.26838 -11.26823 -11.21787
 Alpha  occ. eigenvalues --  -11.21493 -11.21470 -11.21432 -11.21323 -11.20722
 Alpha  occ. eigenvalues --   -1.59939  -1.39491  -1.19452  -1.08849  -1.08475
 Alpha  occ. eigenvalues --   -1.04856  -1.03573  -0.96020  -0.95674  -0.87030
 Alpha  occ. eigenvalues --   -0.86250  -0.82508  -0.79658  -0.78289  -0.77557
 Alpha  occ. eigenvalues --   -0.72128  -0.71264  -0.70543  -0.65146  -0.65096
 Alpha  occ. eigenvalues --   -0.64843  -0.62198  -0.60977  -0.59447  -0.57631
 Alpha  occ. eigenvalues --   -0.55346  -0.55297  -0.53345  -0.52940  -0.52649
 Alpha  occ. eigenvalues --   -0.52446  -0.49963  -0.48890  -0.48885  -0.47979
 Alpha  occ. eigenvalues --   -0.46706  -0.45796  -0.45647  -0.44885  -0.43819
 Alpha  occ. eigenvalues --   -0.37320  -0.36376
 Alpha virt. eigenvalues --    0.04956   0.11114   0.16377   0.20988   0.22885
 Alpha virt. eigenvalues --    0.24095   0.26242   0.27125   0.27381   0.27831
 Alpha virt. eigenvalues --    0.28384   0.30590   0.31493   0.31650   0.32225

 Mulliken charges:
               1
     1  C   -0.299411
     2  C   -0.300096
     3  C   -0.477093
     4  H    0.145803
     5  H    0.151577
     6  H    0.149934
     7  H    0.153085
     8  H    0.163567
     9  H    0.151616
    10  H    0.161096
    11  C   -0.297933
    12  C   -0.303861
    13  C   -0.475190
    14  H    0.148873
    15  H    0.150139
    16  H    0.145714
    17  H    0.157032
    18  H    0.156175
    19  H    0.156599
    20  H    0.153241
    21  C   -0.163528
    22  C   -0.220800
    23  C   -0.173163
    24  C    0.160345
    25  C   -0.169000
    26  C   -0.218302
    27  H    0.226381
    28  H    0.224503
    29  H    0.275817
    30  H    0.276188
    31  H    0.223653
    32  N    0.487302
    33  O   -0.459788
    34  O   -0.460476
 Sum of Mulliken charges =  -0.00000

 Dipole moment (field-independent basis, Debye):
    X=             -2.7241    Y=             -3.8930    Z=              1.8807  Tot=              5.1102
 Quadrupole moment (field-independent basis, Debye-Ang):
   XX=           -107.8077   YY=            -91.0687   ZZ=            -90.0174
   XY=             -6.6379   XZ=              4.0862   YZ=              0.6727

 Normal termination of Gaussian 16 at Wed May  5 23:35:44 2021.
