 Gaussian 16, Revision A.03,
 Gaussian 16:  EM64L-G16RevA.03 25-Dec-2016

 -------------
 #p 6-31g* mp2
 -------------

 ------------------------------------------------------
 Input file generated by CHIRIPA (05-May-2021 14:57:24)
 ------------------------------------------------------
 Symbolic Z-matrix:
 Charge =  0 Multiplicity = 1

                         Standard orientation:
 ---------------------------------------------------------------------
 Center     Atomic      Atomic             Coordinates (Angstroms)
 Number     Number       Type             X           Y           Z
 ---------------------------------------------------------------------
      1          6           0       -1.235679   -1.694474    0.954562
      2          6           0       -2.282811   -2.304486    0.256049
      3          6           0       -3.383632   -1.555237   -0.169823
      4          6           0       -3.404711   -0.192101    0.121217
      5          6           0       -2.376940    0.444554    0.815226
      6          6           0       -1.285997   -0.324316    1.231433
      7          1           0       -0.384371   -2.284130    1.281636
      8          1           0       -2.246421   -3.368384    0.039623
      9          1           0       -4.207975   -2.002001   -0.712297
     10          1           0       -2.441532    1.507036    1.016170
     11          1           0       -0.474215    0.152098    1.773728
     12          7           0       -4.564872    0.611482   -0.324519
     13          8           0       -4.559536    1.810773   -0.055617
     14          8           0       -5.457575    0.026822   -0.934349
     15          6           0        4.647384   -1.750693   -0.252220
     16          6           0        5.177552   -0.546472    0.222432
     17          6           0        4.392254    0.609613    0.258860
     18          6           0        3.074879    0.525166   -0.189117
     19          6           0        2.517899   -0.659785   -0.667607
     20          6           0        3.321587   -1.803413   -0.694944
     21          1           0        5.264565   -2.643928   -0.276988
     22          1           0        6.206855   -0.502576    0.566893
     23          1           0        4.777314    1.554978    0.621393
     24          1           0        1.488380   -0.672435   -1.004279
     25          1           0        2.907193   -2.737254   -1.064082
     26          7           0        2.233786    1.742467   -0.155364
     27          8           0        1.076097    1.641808   -0.555692
     28          8           0        2.748151    2.774198    0.270780
 ---------------------------------------------------------------------

 SCF Done:  E(RHF) =  -868.338159666     A.U. after   16 cycles
 E2 =    -0.2600596344D+01 EUMP2 =    -0.87093875601066D+03

 The electronic state is 1-A.
 Alpha  occ. eigenvalues --  -20.61506 -20.61499 -20.60323 -20.60298 -15.86537
 Alpha  occ. eigenvalues --  -15.85364 -11.31897 -11.30756 -11.28451 -11.28445
 Alpha  occ. eigenvalues --  -11.28193 -11.27489 -11.27440 -11.27372 -11.27208
 Alpha  occ. eigenvalues --  -11.27172 -11.26487 -11.26309  -1.60581  -1.59386
 Alpha  occ. eigenvalues --   -1.40130  -1.38937  -1.20072  -1.18941  -1.09466
 Alpha  occ. eigenvalues --   -1.08370  -1.05466  -1.04322  -0.96297  -0.95187
 Alpha  occ. eigenvalues --   -0.86859  -0.85750  -0.83126  -0.81993  -0.78177
 Alpha  occ. eigenvalues --   -0.77013  -0.72749  -0.71921  -0.71587  -0.71154
 Alpha  occ. eigenvalues --   -0.70704  -0.70103  -0.65715  -0.65457  -0.64602
 Alpha  occ. eigenvalues --   -0.64347  -0.62798  -0.61657  -0.55951  -0.54933
 Alpha  occ. eigenvalues --   -0.53807  -0.53553  -0.52667  -0.52430  -0.49517
 Alpha  occ. eigenvalues --   -0.49506  -0.48354  -0.48331  -0.45527  -0.44335
 Alpha  occ. eigenvalues --   -0.38056  -0.37165  -0.36914  -0.35862
 Alpha virt. eigenvalues --    0.04316   0.05477   0.10518   0.11752   0.15753
 Alpha virt. eigenvalues --    0.16974   0.20713   0.21759   0.26566   0.27532
 Alpha virt. eigenvalues --    0.27753   0.28699   0.30276   0.31298   0.31866

 Mulliken charges:
               1
     1  C   -0.180893
     2  C   -0.219550
     3  C   -0.172255
     4  C    0.157697
     5  C   -0.164093
     6  C   -0.208065
     7  H    0.219334
     8  H    0.218829
     9  H    0.273807
    10  H    0.282010
    11  H    0.225335
    12  N    0.488044
    13  O   -0.457207
    14  O   -0.463058
    15  C   -0.170312
    16  C   -0.218538
    17  C   -0.170564
    18  C    0.155782
    19  C   -0.177681
    20  C   -0.220874
    21  H    0.227464
    22  H    0.225865
    23  H    0.277454
    24  H    0.279802
    25  H    0.223078
    26  N    0.486063
    27  O   -0.460228
    28  O   -0.457244
 Sum of Mulliken charges =  -0.00000

 Dipole moment (field-independent basis, Debye):
    X=              7.2083    Y=             -6.8151    Z=              1.4639  Tot=             10.0274
 Quadrupole moment (field-independent basis, Debye-Ang):
   XX=           -110.9465   YY=           -104.4615   ZZ=           -104.3009
   XY=              0.7851   XZ=             -3.2847   YZ=              3.3168

 Normal termination of Gaussian 16 at Fri May  7 09:32:02 2021.
