 Gaussian 16, Revision A.03,
 Gaussian 16:  EM64L-G16RevA.03 25-Dec-2016

 -------------
 #p 6-31g* mp2
 -------------

 ------------------------------------------------------
 Input file generated by CHIRIPA (05-May-2021 14:57:23)
 ------------------------------------------------------
 Symbolic Z-matrix:
 Charge =  0 Multiplicity = 1

                         Standard orientation:
 ---------------------------------------------------------------------
 Center     Atomic      Atomic             Coordinates (Angstroms)
 Number     Number       Type             X           Y           Z
 ---------------------------------------------------------------------
      1          6           0       -2.324902   -1.423432    1.325115
      2          6           0       -3.468917   -0.958790    1.982274
      3          6           0       -4.414670   -0.186651    1.301171
      4          6           0       -4.183574    0.103291   -0.042636
      5          6           0       -3.053706   -0.345024   -0.725059
      6          6           0       -2.121306   -1.115609   -0.024075
      7          1           0       -1.595405   -2.022645    1.861934
      8          1           0       -3.629645   -1.196300    3.030034
      9          1           0       -5.309101    0.185960    1.785498
     10          1           0       -2.921015   -0.091938   -1.769932
     11          1           0       -1.233769   -1.475105   -0.536993
     12          7           0       -5.177732    0.919897   -0.774213
     13          8           0       -4.950893    1.161554   -1.957760
     14          8           0       -6.164967    1.302834   -0.150223
     15          6           0        5.338103    2.090956    0.543035
     16          6           0        3.969952    2.023832    0.826196
     17          6           0        3.229526    0.887603    0.486637
     18          6           0        3.892269   -0.167825   -0.137969
     19          6           0        5.254154   -0.131005   -0.433273
     20          6           0        5.974714    1.015219   -0.084688
     21          1           0        5.905567    2.977488    0.810318
     22          1           0        3.472918    2.857750    1.313620
     23          1           0        2.169258    0.809117    0.694219
     24          1           0        5.721876   -0.978235   -0.919950
     25          1           0        7.037123    1.064568   -0.305814
     26          7           0        3.118929   -1.375990   -0.502222
     27          8           0        3.726231   -2.292366   -1.051837
     28          8           0        1.920124   -1.383698   -0.231212
 ---------------------------------------------------------------------

 SCF Done:  E(RHF) =  -868.340127626     A.U. after   16 cycles
 E2 =    -0.2598177150D+01 EUMP2 =    -0.87093830477574D+03

 The electronic state is 1-A.
 Alpha  occ. eigenvalues --  -20.61682 -20.61617 -20.60319 -20.60311 -15.86695
 Alpha  occ. eigenvalues --  -15.85362 -11.31799 -11.30578 -11.28347 -11.28323
 Alpha  occ. eigenvalues --  -11.28020 -11.27289 -11.27278 -11.27149 -11.27044
 Alpha  occ. eigenvalues --  -11.26733 -11.26143 -11.25872  -1.60715  -1.59396
 Alpha  occ. eigenvalues --   -1.40279  -1.38954  -1.19945  -1.18709  -1.09385
 Alpha  occ. eigenvalues --   -1.08116  -1.05309  -1.04071  -0.96266  -0.94986
 Alpha  occ. eigenvalues --   -0.86719  -0.85458  -0.83112  -0.81814  -0.78187
 Alpha  occ. eigenvalues --   -0.76894  -0.72935  -0.72019  -0.71582  -0.71048
 Alpha  occ. eigenvalues --   -0.70719  -0.69784  -0.65604  -0.65305  -0.64340
 Alpha  occ. eigenvalues --   -0.64009  -0.62660  -0.61397  -0.55812  -0.54529
 Alpha  occ. eigenvalues --   -0.53652  -0.53396  -0.52439  -0.52114  -0.49690
 Alpha  occ. eigenvalues --   -0.49641  -0.48348  -0.48322  -0.45741  -0.44393
 Alpha  occ. eigenvalues --   -0.37906  -0.36901  -0.36677  -0.35687
 Alpha virt. eigenvalues --    0.04328   0.05602   0.10757   0.11965   0.15873
 Alpha virt. eigenvalues --    0.17154   0.20896   0.22250   0.26851   0.27549
 Alpha virt. eigenvalues --    0.28353   0.29049   0.30535   0.31761   0.32106

 Mulliken charges:
               1
     1  C   -0.173995
     2  C   -0.219430
     3  C   -0.173308
     4  C    0.158044
     5  C   -0.174273
     6  C   -0.225862
     7  H    0.229771
     8  H    0.220446
     9  H    0.272711
    10  H    0.274536
    11  H    0.246213
    12  N    0.488034
    13  O   -0.461675
    14  O   -0.462797
    15  C   -0.169860
    16  C   -0.218386
    17  C   -0.171002
    18  C    0.157736
    19  C   -0.170395
    20  C   -0.218470
    21  H    0.227984
    22  H    0.225727
    23  H    0.274008
    24  H    0.276502
    25  H    0.225480
    26  N    0.492255
    27  O   -0.455912
    28  O   -0.474082
 Sum of Mulliken charges =  -0.00000

 Dipole moment (field-independent basis, Debye):
    X=              6.7299    Y=              1.3462    Z=              3.8200  Tot=              7.8547
 Quadrupole moment (field-independent basis, Debye-Ang):
   XX=           -108.7369   YY=           -106.9471   ZZ=           -102.3183
   XY=             27.0621   XZ=            -10.6430   YZ=              0.9739

 Normal termination of Gaussian 16 at Wed May  5 19:23:57 2021.
