 Gaussian 16, Revision A.03,
 Gaussian 16:  EM64L-G16RevA.03 25-Dec-2016

 -------------
 #p 6-31g* mp2
 -------------

 ------------------------------------------------------
 Input file generated by CHIRIPA (05-May-2021 14:55:24)
 ------------------------------------------------------
 Symbolic Z-matrix:
 Charge =  0 Multiplicity = 1

                         Standard orientation:
 ---------------------------------------------------------------------
 Center     Atomic      Atomic             Coordinates (Angstroms)
 Number     Number       Type             X           Y           Z
 ---------------------------------------------------------------------
      1          6           0        4.294468   -1.710144   -0.881915
      2          6           0        4.994783   -0.531615   -0.604157
      3          6           0        4.316767    0.612146   -0.172123
      4          6           0        2.932006    0.541711   -0.028020
      5          6           0        2.206072   -0.617623   -0.296823
      6          6           0        2.904798   -1.749317   -0.727633
      7          1           0        4.829211   -2.593958   -1.217054
      8          1           0        6.074037   -0.498287   -0.723085
      9          1           0        4.834050    1.537639    0.049909
     10          1           0        1.130410   -0.620238   -0.168903
     11          1           0        2.358316   -2.663204   -0.942610
     12          7           0        2.203259    1.746172    0.428708
     13          8           0        0.983119    1.658278    0.547754
     14          8           0        2.866004    2.755317    0.658996
     15          6           0       -4.505354   -0.367102   -0.336652
     16          6           0       -5.150719    1.018192   -0.287167
     17          6           0       -6.346994    1.147083   -1.230623
     18          1           0       -4.186644   -0.579564   -1.366326
     19          1           0       -5.259051   -1.124439   -0.080177
     20          1           0       -4.395683    1.772803   -0.542309
     21          1           0       -5.467758    1.227459    0.742546
     22          1           0       -7.120494    0.416011   -0.974046
     23          1           0       -6.042327    0.964452   -2.266202
     24          1           0       -6.793111    2.145180   -1.179228
     25          6           0       -3.308053   -0.511492    0.601084
     26          6           0       -2.662687   -1.896786    0.551599
     27          6           0       -1.466413   -2.025678    1.495055
     28          1           0       -2.554357    0.245844    0.344608
     29          1           0       -3.626763   -0.299030    1.630758
     30          1           0       -2.345650   -2.106054   -0.478115
     31          1           0       -3.417724   -2.651397    0.806742
     32          1           0       -1.771080   -1.843047    2.530635
     33          1           0       -0.692914   -1.294605    1.238478
     34          1           0       -1.020297   -3.023774    1.443660
 ---------------------------------------------------------------------

 SCF Done:  E(RHF) =  -669.535720718     A.U. after   15 cycles
 E2 =    -0.2091221929D+01 EUMP2 =    -0.67162694264701D+03

 The electronic state is 1-A.
 Alpha  occ. eigenvalues --  -20.60830 -20.60824 -15.85877 -11.31211 -11.27779
 Alpha  occ. eigenvalues --  -11.27763 -11.27519 -11.26793 -11.26780 -11.21604
 Alpha  occ. eigenvalues --  -11.21242 -11.21201 -11.21118 -11.21036 -11.20781
 Alpha  occ. eigenvalues --   -1.59898  -1.39454  -1.19383  -1.08784  -1.08203
 Alpha  occ. eigenvalues --   -1.04783  -1.03377  -0.95829  -0.95622  -0.86851
 Alpha  occ. eigenvalues --   -0.86183  -0.82456  -0.79434  -0.77979  -0.77507
 Alpha  occ. eigenvalues --   -0.72097  -0.71217  -0.70504  -0.65037  -0.64895
 Alpha  occ. eigenvalues --   -0.64742  -0.62171  -0.60760  -0.59203  -0.57420
 Alpha  occ. eigenvalues --   -0.55348  -0.55067  -0.53113  -0.52894  -0.52553
 Alpha  occ. eigenvalues --   -0.52220  -0.49763  -0.48857  -0.48848  -0.47741
 Alpha  occ. eigenvalues --   -0.46455  -0.45537  -0.45420  -0.44861  -0.43603
 Alpha  occ. eigenvalues --   -0.37365  -0.36380
 Alpha virt. eigenvalues --    0.05007   0.11240   0.16525   0.20274   0.22992
 Alpha virt. eigenvalues --    0.24082   0.26280   0.27282   0.27531   0.28161
 Alpha virt. eigenvalues --    0.29495   0.30134   0.31523   0.31764   0.32129

 Mulliken charges:
               1
     1  C   -0.170586
     2  C   -0.218714
     3  C   -0.170389
     4  C    0.157458
     5  C   -0.175820
     6  C   -0.221086
     7  H    0.225723
     8  H    0.223529
     9  H    0.275627
    10  H    0.285014
    11  H    0.224208
    12  N    0.487916
    13  O   -0.462887
    14  O   -0.459643
    15  C   -0.298076
    16  C   -0.300402
    17  C   -0.475637
    18  H    0.147762
    19  H    0.147517
    20  H    0.156715
    21  H    0.152392
    22  H    0.153722
    23  H    0.154262
    24  H    0.160637
    25  C   -0.301840
    26  C   -0.299336
    27  C   -0.483105
    28  H    0.161497
    29  H    0.150975
    30  H    0.146469
    31  H    0.151959
    32  H    0.160943
    33  H    0.158954
    34  H    0.154243
 Sum of Mulliken charges =  -0.00000

 Dipole moment (field-independent basis, Debye):
    X=              2.5846    Y=             -4.1326    Z=             -1.5611  Tot=              5.1182
 Quadrupole moment (field-independent basis, Debye-Ang):
   XX=            -76.4759   YY=            -98.8022   ZZ=            -95.3237
   XY=             -8.6072   XZ=             -5.8971   YZ=             -0.6043

 Normal termination of Gaussian 16 at Thu May  6 17:41:00 2021.
