 Gaussian 16, Revision A.03,
 Gaussian 16:  EM64L-G16RevA.03 25-Dec-2016

 -------------
 #p 6-31g* mp2
 -------------

 ------------------------------------------------------
 Input file generated by CHIRIPA (05-May-2021 14:55:24)
 ------------------------------------------------------
 Symbolic Z-matrix:
 Charge =  0 Multiplicity = 1

                         Standard orientation:
 ---------------------------------------------------------------------
 Center     Atomic      Atomic             Coordinates (Angstroms)
 Number     Number       Type             X           Y           Z
 ---------------------------------------------------------------------
      1          6           0        1.836303    1.607982   -1.611293
      2          6           0        1.104726    0.576961   -1.012701
      3          6           0        1.747621   -0.391528   -0.236001
      4          6           0        3.129522   -0.298142   -0.078138
      5          6           0        3.886078    0.716962   -0.661642
      6          6           0        3.222200    1.674575   -1.434166
      7          1           0        1.328736    2.356103   -2.213031
      8          1           0        0.028319    0.522744   -1.148539
      9          1           0        1.205673   -1.200411    0.238782
     10          1           0        4.958026    0.744658   -0.508091
     11          1           0        3.792911    2.474157   -1.897848
     12          7           0        3.821233   -1.317680    0.741909
     13          8           0        5.039590   -1.213160    0.865672
     14          8           0        3.131940   -2.202009    1.245372
     15          6           0       -3.970090   -0.310095   -0.313589
     16          6           0       -5.142555   -1.268892   -0.103783
     17          6           0       -5.350425   -2.216110   -1.285883
     18          1           0       -4.141736    0.274379   -1.227850
     19          1           0       -3.054313   -0.893301   -0.482761
     20          1           0       -6.055597   -0.684054    0.066318
     21          1           0       -4.968188   -1.851017    0.810189
     22          1           0       -4.455851   -2.824444   -1.454016
     23          1           0       -5.549437   -1.650851   -2.202113
     24          1           0       -6.193540   -2.892673   -1.114767
     25          6           0       -3.749640    0.643175    0.859615
     26          6           0       -2.577174    1.601971    0.649809
     27          6           0       -2.369304    2.549191    1.831909
     28          1           0       -4.665416    1.226381    1.028787
     29          1           0       -3.577993    0.058700    1.773875
     30          1           0       -2.751541    2.184096   -0.264163
     31          1           0       -1.664132    1.017134    0.479707
     32          1           0       -2.170292    1.983931    2.748139
     33          1           0       -3.263879    3.157524    2.000042
     34          1           0       -1.526189    3.225752    1.660793
 ---------------------------------------------------------------------

 SCF Done:  E(RHF) =  -669.535517720     A.U. after   15 cycles
 E2 =    -0.2091320686D+01 EUMP2 =    -0.67162683840593D+03

 The electronic state is 1-A.
 Alpha  occ. eigenvalues --  -20.60758 -20.60753 -15.85811 -11.31175 -11.27746
 Alpha  occ. eigenvalues --  -11.27741 -11.27476 -11.26759 -11.26710 -11.22434
 Alpha  occ. eigenvalues --  -11.22105 -11.22053 -11.21999 -11.21667 -11.21476
 Alpha  occ. eigenvalues --   -1.59834  -1.39387  -1.19346  -1.09079  -1.08738
 Alpha  occ. eigenvalues --   -1.04751  -1.04126  -0.96546  -0.95575  -0.87564
 Alpha  occ. eigenvalues --   -0.86146  -0.82413  -0.80221  -0.78914  -0.77452
 Alpha  occ. eigenvalues --   -0.72030  -0.71156  -0.70452  -0.65730  -0.64996
 Alpha  occ. eigenvalues --   -0.64746  -0.62135  -0.61489  -0.59923  -0.58170
 Alpha  occ. eigenvalues --   -0.55822  -0.55246  -0.53249  -0.53076  -0.52988
 Alpha  occ. eigenvalues --   -0.52828  -0.50482  -0.48801  -0.48785  -0.48496
 Alpha  occ. eigenvalues --   -0.47244  -0.46424  -0.46356  -0.44793  -0.44388
 Alpha  occ. eigenvalues --   -0.37321  -0.36341
 Alpha virt. eigenvalues --    0.05066   0.11257   0.16481   0.20095   0.22612
 Alpha virt. eigenvalues --    0.23860   0.24791   0.26267   0.27425   0.28292
 Alpha virt. eigenvalues --    0.29082   0.30597   0.31091   0.31403   0.32109

 Mulliken charges:
               1
     1  C   -0.172040
     2  C   -0.220609
     3  C   -0.172504
     4  C    0.158645
     5  C   -0.170936
     6  C   -0.218518
     7  H    0.225934
     8  H    0.229361
     9  H    0.274830
    10  H    0.275575
    11  H    0.223341
    12  N    0.488130
    13  O   -0.460454
    14  O   -0.460616
    15  C   -0.298559
    16  C   -0.300137
    17  C   -0.476249
    18  H    0.148751
    19  H    0.144141
    20  H    0.153551
    21  H    0.154466
    22  H    0.155621
    23  H    0.154846
    24  H    0.162670
    25  C   -0.298384
    26  C   -0.304524
    27  C   -0.475330
    28  H    0.152401
    29  H    0.153204
    30  H    0.149102
    31  H    0.147191
    32  H    0.159176
    33  H    0.157357
    34  H    0.160569
 Sum of Mulliken charges =  -0.00000

 Dipole moment (field-independent basis, Debye):
    X=             -2.5850    Y=              3.6125    Z=             -2.8212  Tot=              5.2623
 Quadrupole moment (field-independent basis, Debye-Ang):
   XX=           -105.3026   YY=            -96.4104   ZZ=            -95.1837
   XY=             13.8280   XZ=            -10.0061   YZ=             -0.7348

 Normal termination of Gaussian 16 at Thu May  6 20:52:39 2021.
