 Gaussian 16, Revision A.03,
 Gaussian 16:  EM64L-G16RevA.03 25-Dec-2016

 -------------
 #p 6-31g* mp2
 -------------

 ------------------------------------------------------
 Input file generated by CHIRIPA (05-May-2021 14:57:26)
 ------------------------------------------------------
 Symbolic Z-matrix:
 Charge =  0 Multiplicity = 1

                         Standard orientation:
 ---------------------------------------------------------------------
 Center     Atomic      Atomic             Coordinates (Angstroms)
 Number     Number       Type             X           Y           Z
 ---------------------------------------------------------------------
      1          6           0       -1.858345   -1.545302    0.778082
      2          6           0       -2.044018   -1.214626   -0.568284
      3          6           0       -3.130826   -0.428771   -0.963034
      4          6           0       -4.016483    0.011345    0.019411
      5          6           0       -3.858560   -0.301266    1.368717
      6          6           0       -2.764611   -1.088372    1.740588
      7          1           0       -1.011313   -2.156259    1.075847
      8          1           0       -1.341798   -1.568084   -1.317950
      9          1           0       -3.298450   -0.157905   -1.998385
     10          1           0       -4.575406    0.065828    2.093142
     11          1           0       -2.622919   -1.343621    2.786923
     12          7           0       -5.170818    0.843956   -0.386382
     13          8           0       -5.936868    1.219246    0.498470
     14          8           0       -5.287679    1.105503   -1.581612
     15          6           0        3.186475   -2.279264   -0.500915
     16          6           0        4.516083   -1.946797   -0.221400
     17          6           0        4.881981   -0.617460    0.009966
     18          6           0        3.888085    0.358400   -0.046207
     19          6           0        2.554921    0.058802   -0.322257
     20          6           0        2.211855   -1.277170   -0.550363
     21          1           0        2.911106   -3.314502   -0.679380
     22          1           0        5.275100   -2.722951   -0.182359
     23          1           0        5.903870   -0.332151    0.228508
     24          1           0        1.820573    0.854487   -0.354446
     25          1           0        1.178484   -1.532441   -0.767213
     26          7           0        4.263358    1.769222    0.197005
     27          8           0        3.368926    2.610402    0.141834
     28          8           0        5.444825    2.007130    0.438200
 ---------------------------------------------------------------------

 SCF Done:  E(RHF) =  -868.336437600     A.U. after   16 cycles
 E2 =    -0.2600085164D+01 EUMP2 =    -0.87093652276325D+03

 The electronic state is 1-A.
 Alpha  occ. eigenvalues --  -20.61238 -20.61233 -20.61144 -20.61137 -15.86300
 Alpha  occ. eigenvalues --  -15.86205 -11.31816 -11.31734 -11.28451 -11.28401
 Alpha  occ. eigenvalues --  -11.28378 -11.28304 -11.28248 -11.28192 -11.27587
 Alpha  occ. eigenvalues --  -11.27523 -11.27429 -11.27345  -1.60312  -1.60214
 Alpha  occ. eigenvalues --   -1.39860  -1.39763  -1.20030  -1.19947  -1.09406
 Alpha  occ. eigenvalues --   -1.09327  -1.05469  -1.05375  -0.96201  -0.96125
 Alpha  occ. eigenvalues --   -0.86902  -0.86757  -0.83036  -0.82952  -0.78074
 Alpha  occ. eigenvalues --   -0.77937  -0.72514  -0.72422  -0.71639  -0.71539
 Alpha  occ. eigenvalues --   -0.71143  -0.71083  -0.65759  -0.65687  -0.65580
 Alpha  occ. eigenvalues --   -0.65230  -0.62894  -0.62620  -0.55980  -0.55922
 Alpha  occ. eigenvalues --   -0.53783  -0.53743  -0.53618  -0.53379  -0.49289
 Alpha  occ. eigenvalues --   -0.49257  -0.49193  -0.49162  -0.45231  -0.45132
 Alpha  occ. eigenvalues --   -0.38040  -0.37955  -0.37066  -0.36974
 Alpha virt. eigenvalues --    0.04486   0.04610   0.10505   0.10576   0.15870
 Alpha virt. eigenvalues --    0.16085   0.18213   0.21951   0.24758   0.27210
 Alpha virt. eigenvalues --    0.27674   0.28651   0.29737   0.31024   0.31669

 Mulliken charges:
               1
     1  C   -0.171230
     2  C   -0.224451
     3  C   -0.168892
     4  C    0.159286
     5  C   -0.169041
     6  C   -0.217814
     7  H    0.222646
     8  H    0.216881
     9  H    0.277848
    10  H    0.278502
    11  H    0.226307
    12  N    0.488052
    13  O   -0.458113
    14  O   -0.458836
    15  C   -0.171970
    16  C   -0.218401
    17  C   -0.169579
    18  C    0.158910
    19  C   -0.171402
    20  C   -0.223977
    21  H    0.225218
    22  H    0.225551
    23  H    0.277963
    24  H    0.278870
    25  H    0.216763
    26  N    0.487961
    27  O   -0.458283
    28  O   -0.458770
 Sum of Mulliken charges =  -0.00000

 Dipole moment (field-independent basis, Debye):
    X=              2.7032    Y=             -7.7377    Z=              0.6801  Tot=              8.2245
 Quadrupole moment (field-independent basis, Debye-Ang):
   XX=           -141.5836   YY=           -109.5390   ZZ=           -100.7842
   XY=             -9.7567   XZ=            -10.0291   YZ=             -0.1754

 Normal termination of Gaussian 16 at Wed May  5 18:02:06 2021.
