 Gaussian 16, Revision A.03,
 Gaussian 16:  EM64L-G16RevA.03 25-Dec-2016

 -------------
 #p 6-31g* mp2
 -------------

 ------------------------------------------------------
 Input file generated by CHIRIPA (05-May-2021 14:57:26)
 ------------------------------------------------------
 Symbolic Z-matrix:
 Charge =  0 Multiplicity = 1

                         Standard orientation:
 ---------------------------------------------------------------------
 Center     Atomic      Atomic             Coordinates (Angstroms)
 Number     Number       Type             X           Y           Z
 ---------------------------------------------------------------------
      1          6           0       -3.954227   -2.069682    0.550258
      2          6           0       -4.697217   -1.226956   -0.282989
      3          6           0       -4.246077    0.064606   -0.570888
      4          6           0       -3.042207    0.482787   -0.005987
      5          6           0       -2.279351   -0.333294    0.827890
      6          6           0       -2.749788   -1.620952    1.102065
      7          1           0       -4.312178   -3.071483    0.768575
      8          1           0       -5.632956   -1.572773   -0.712928
      9          1           0       -4.801336    0.737794   -1.212701
     10          1           0       -1.350319    0.039598    1.241737
     11          1           0       -2.170683   -2.273246    1.749517
     12          7           0       -2.554391    1.848041   -0.303509
     13          8           0       -1.490607    2.192680    0.206613
     14          8           0       -3.245061    2.547635   -1.041194
     15          6           0        4.040545    2.037175    0.463411
     16          6           0        2.679394    1.771741    0.645976
     17          6           0        2.159812    0.503820    0.368556
     18          6           0        3.033863   -0.479644   -0.092011
     19          6           0        4.394700   -0.246086   -0.284000
     20          6           0        4.892354    1.029192   -0.000176
     21          1           0        4.435652    3.024984    0.681405
     22          1           0        2.015522    2.552628    1.005882
     23          1           0        1.110191    0.271064    0.500984
     24          1           0        5.031753   -1.044799   -0.644057
     25          1           0        5.949875    1.232474   -0.142893
     26          7           0        2.495413   -1.825830   -0.389093
     27          8           0        3.286328   -2.675139   -0.793768
     28          8           0        1.292655   -2.006170   -0.211644
 ---------------------------------------------------------------------

 SCF Done:  E(RHF) =  -868.340290844     A.U. after   16 cycles
 E2 =    -0.2599420334D+01 EUMP2 =    -0.87093971117803D+03

 The electronic state is 1-A.
 Alpha  occ. eigenvalues --  -20.61062 -20.61001 -20.60792 -20.60759 -15.86064
 Alpha  occ. eigenvalues --  -15.85816 -11.31069 -11.30904 -11.27620 -11.27578
 Alpha  occ. eigenvalues --  -11.27452 -11.27387 -11.27217 -11.27093 -11.26541
 Alpha  occ. eigenvalues --  -11.26452 -11.26433 -11.26252  -1.60089  -1.59850
 Alpha  occ. eigenvalues --   -1.39663  -1.39415  -1.19188  -1.19036  -1.08645
 Alpha  occ. eigenvalues --   -1.08484  -1.04533  -1.04374  -0.95555  -0.95368
 Alpha  occ. eigenvalues --   -0.85967  -0.85795  -0.82413  -0.82188  -0.77543
 Alpha  occ. eigenvalues --   -0.77244  -0.72312  -0.72048  -0.71385  -0.71161
 Alpha  occ. eigenvalues --   -0.70336  -0.70137  -0.64851  -0.64677  -0.64577
 Alpha  occ. eigenvalues --   -0.64328  -0.61997  -0.61630  -0.55064  -0.54896
 Alpha  occ. eigenvalues --   -0.52866  -0.52744  -0.52684  -0.52388  -0.49079
 Alpha  occ. eigenvalues --   -0.49001  -0.48815  -0.48768  -0.45142  -0.44881
 Alpha  occ. eigenvalues --   -0.37131  -0.37012  -0.36087  -0.35964
 Alpha virt. eigenvalues --    0.04978   0.05222   0.11493   0.11676   0.16604
 Alpha virt. eigenvalues --    0.16790   0.20284   0.22395   0.25397   0.27938
 Alpha virt. eigenvalues --    0.28343   0.29814   0.31156   0.31551   0.31902

 Mulliken charges:
               1
     1  C   -0.169942
     2  C   -0.218012
     3  C   -0.171028
     4  C    0.157348
     5  C   -0.165924
     6  C   -0.213642
     7  H    0.227182
     8  H    0.223248
     9  H    0.274288
    10  H    0.270083
    11  H    0.230208
    12  N    0.490510
    13  O   -0.474995
    14  O   -0.457103
    15  C   -0.170962
    16  C   -0.221685
    17  C   -0.175523
    18  C    0.157590
    19  C   -0.171309
    20  C   -0.218888
    21  H    0.226233
    22  H    0.236892
    23  H    0.280152
    24  H    0.273647
    25  H    0.222237
    26  N    0.488073
    27  O   -0.460166
    28  O   -0.468509
 Sum of Mulliken charges =  -0.00000

 Dipole moment (field-independent basis, Debye):
    X=              0.0272    Y=             -0.0888    Z=              2.1106  Tot=              2.1126
 Quadrupole moment (field-independent basis, Debye-Ang):
   XX=            -75.5181   YY=           -114.2544   ZZ=           -104.3706
   XY=             26.1535   XZ=              1.1318   YZ=             -0.6067

 Normal termination of Gaussian 16 at Fri May  7 08:09:22 2021.
