 Gaussian 16, Revision A.03,
 Gaussian 16:  EM64L-G16RevA.03 25-Dec-2016

 -------------
 #p 6-31g* mp2
 -------------

 ------------------------------------------------------
 Input file generated by CHIRIPA (05-May-2021 14:51:13)
 ------------------------------------------------------
 Symbolic Z-matrix:
 Charge =  0 Multiplicity = 1

                         Standard orientation:
 ---------------------------------------------------------------------
 Center     Atomic      Atomic             Coordinates (Angstroms)
 Number     Number       Type             X           Y           Z
 ---------------------------------------------------------------------
      1          6           0       -3.684444   -0.012113   -0.151205
      2          6           0       -3.089140    1.381070    0.055292
      3          6           0       -1.579958    1.420874   -0.186736
      4          1           0       -3.184699   -0.721057    0.523034
      5          1           0       -3.467300   -0.348008   -1.174639
      6          1           0       -3.308538    1.714812    1.077592
      7          1           0       -3.590494    2.086816   -0.619380
      8          1           0       -1.345808    1.113124   -1.210974
      9          1           0       -1.062250    0.739007    0.495639
     10          1           0       -1.175184    2.426147   -0.033618
     11          6           0       -5.192364   -0.067994    0.087089
     12          6           0       -5.787667   -1.461177   -0.119408
     13          6           0       -7.296850   -1.500981    0.122620
     14          1           0       -5.409508    0.267901    1.110523
     15          1           0       -5.692109    0.640950   -0.587149
     16          1           0       -5.286314   -2.166923    0.555265
     17          1           0       -5.568270   -1.794919   -1.141707
     18          1           0       -7.814558   -0.819114   -0.559755
     19          1           0       -7.531000   -1.193231    1.146859
     20          1           0       -7.701624   -2.506254   -0.030498
     21          6           0        5.007207   -0.306903   -0.341459
     22          6           0        5.767225   -1.319190    0.516232
     23          6           0        6.902129   -2.005003   -0.244984
     24          1           0        4.601692   -0.816658   -1.226136
     25          1           0        5.711317    0.450662   -0.712566
     26          1           0        5.061648   -2.073842    0.886742
     27          1           0        6.170816   -0.807007    1.399066
     28          1           0        7.628114   -1.267027   -0.601268
     29          1           0        6.512644   -2.541061   -1.116502
     30          1           0        7.432048   -2.724528    0.386942
     31          6           0        3.869600    0.387010    0.405575
     32          6           0        3.109583    1.399297   -0.452115
     33          6           0        1.974679    2.085110    0.309099
     34          1           0        3.165490   -0.370556    0.776681
     35          1           0        4.275116    0.896765    1.290252
     36          1           0        2.705992    0.887114   -1.334951
     37          1           0        3.815160    2.153949   -0.822627
     38          1           0        2.364163    2.621167    1.180618
     39          1           0        1.248693    1.347134    0.665384
     40          1           0        1.444760    2.804634   -0.322827
 ---------------------------------------------------------------------

 SCF Done:  E(RHF) =  -470.732256387     A.U. after   11 cycles
 E2 =    -0.1582769923D+01 EUMP2 =    -0.47231502630980D+03

 The electronic state is 1-A.
 Alpha  occ. eigenvalues --  -11.21597 -11.21573 -11.21553 -11.21505 -11.21393
 Alpha  occ. eigenvalues --  -11.21357 -11.21334 -11.21296 -11.21068 -11.21049
 Alpha  occ. eigenvalues --  -11.21004 -11.20876  -1.08418  -1.08371  -1.03536
 Alpha  occ. eigenvalues --   -1.03438  -0.96043  -0.95837  -0.87125  -0.86794
 Alpha  occ. eigenvalues --   -0.79688  -0.79423  -0.78238  -0.78178  -0.65058
 Alpha  occ. eigenvalues --   -0.64997  -0.60985  -0.60809  -0.59474  -0.59155
 Alpha  occ. eigenvalues --   -0.57626  -0.57474  -0.55418  -0.55085  -0.52937
 Alpha  occ. eigenvalues --   -0.52479  -0.52304  -0.52256  -0.50066  -0.49668
 Alpha  occ. eigenvalues --   -0.47957  -0.47773  -0.46701  -0.46450  -0.45792
 Alpha  occ. eigenvalues --   -0.45719  -0.45697  -0.45602  -0.43904  -0.43537
 Alpha virt. eigenvalues --    0.22448   0.22972   0.23644   0.24761   0.26221
 Alpha virt. eigenvalues --    0.26710   0.27115   0.27337   0.27623   0.29155
 Alpha virt. eigenvalues --    0.29252   0.30932   0.31584   0.31955   0.32349

 Mulliken charges:
               1
     1  C   -0.298485
     2  C   -0.300757
     3  C   -0.475161
     4  H    0.149329
     5  H    0.149278
     6  H    0.151838
     7  H    0.151542
     8  H    0.154435
     9  H    0.154584
    10  H    0.163816
    11  C   -0.298178
    12  C   -0.299597
    13  C   -0.475689
    14  H    0.149524
    15  H    0.149643
    16  H    0.151837
    17  H    0.151845
    18  H    0.155178
    19  H    0.155189
    20  H    0.160204
    21  C   -0.298198
    22  C   -0.299588
    23  C   -0.475666
    24  H    0.149555
    25  H    0.149451
    26  H    0.151786
    27  H    0.151851
    28  H    0.155143
    29  H    0.155127
    30  H    0.160124
    31  C   -0.298376
    32  C   -0.299784
    33  C   -0.478411
    34  H    0.149123
    35  H    0.149435
    36  H    0.151747
    37  H    0.151159
    38  H    0.153284
    39  H    0.161598
    40  H    0.160265
 Sum of Mulliken charges =  -0.00000

 Dipole moment (field-independent basis, Debye):
    X=             -0.0221    Y=              0.0130    Z=              0.0012  Tot=              0.0257
 Quadrupole moment (field-independent basis, Debye-Ang):
   XX=            -86.5716   YY=            -84.5917   ZZ=            -83.9241
   XY=              0.6826   XZ=              0.8548   YZ=             -0.2163

 Normal termination of Gaussian 16 at Wed May  5 16:52:49 2021.
