 Gaussian 16, Revision A.03,
 Gaussian 16:  EM64L-G16RevA.03 25-Dec-2016

 -------------
 #p 6-31g* mp2
 -------------

 ------------------------------------------------------
 Input file generated by CHIRIPA (05-May-2021 14:51:08)
 ------------------------------------------------------
 Symbolic Z-matrix:
 Charge =  0 Multiplicity = 1

                         Standard orientation:
 ---------------------------------------------------------------------
 Center     Atomic      Atomic             Coordinates (Angstroms)
 Number     Number       Type             X           Y           Z
 ---------------------------------------------------------------------
      1          6           0        4.061669   -0.263864    0.516994
      2          6           0        2.792697    0.251193   -0.163015
      3          6           0        1.551350    0.111886    0.718713
      4          1           0        3.921090   -1.318492    0.790751
      5          1           0        4.214562    0.285214    1.456426
      6          1           0        2.642999   -0.297737   -1.101569
      7          1           0        2.936384    1.304664   -0.435356
      8          1           0        1.675213    0.674081    1.649947
      9          1           0        1.380162   -0.937424    0.979949
     10          1           0        0.655714    0.486091    0.213079
     11          6           0        5.311091   -0.131340   -0.351976
     12          6           0        6.580063   -0.646397    0.328034
     13          6           0        7.821410   -0.507089   -0.553695
     14          1           0        5.158198   -0.680418   -1.291407
     15          1           0        5.451670    0.923288   -0.625732
     16          1           0        6.436376   -1.699867    0.600375
     17          1           0        6.729761   -0.097467    1.266587
     18          1           0        7.992598    0.542221   -0.814931
     19          1           0        7.697546   -1.069284   -1.484928
     20          1           0        8.717046   -0.881294   -0.048060
     21          6           0       -4.074041    0.494163   -0.429676
     22          6           0       -3.375365    1.576888    0.393454
     23          6           0       -2.152192    2.160530   -0.314363
     24          1           0       -3.357951   -0.309369   -0.649896
     25          1           0       -4.376534    0.917219   -1.397620
     26          1           0       -3.075510    1.152290    1.360107
     27          1           0       -4.093254    2.377846    0.611902
     28          1           0       -2.438483    2.609803   -1.270810
     29          1           0       -1.414958    1.377283   -0.518354
     30          1           0       -1.668030    2.932610    0.291722
     31          6           0       -5.298719   -0.098959    0.264657
     32          6           0       -5.997394   -1.181685   -0.558472
     33          6           0       -7.220568   -1.765326    0.149344
     34          1           0       -4.996227   -0.522016    1.232602
     35          1           0       -6.014808    0.704573    0.484876
     36          1           0       -5.279507   -1.982642   -0.776922
     37          1           0       -6.297249   -0.757087   -1.525126
     38          1           0       -7.957802   -0.982080    0.353335
     39          1           0       -6.934276   -2.214600    1.105792
     40          1           0       -7.704730   -2.537406   -0.456741
 ---------------------------------------------------------------------

 SCF Done:  E(RHF) =  -470.733275790     A.U. after   11 cycles
 E2 =    -0.1582187232D+01 EUMP2 =    -0.47231546302199D+03

 The electronic state is 1-A.
 Alpha  occ. eigenvalues --  -11.21595 -11.21594 -11.21591 -11.21586 -11.21395
 Alpha  occ. eigenvalues --  -11.21395 -11.21336 -11.21335 -11.21069 -11.21065
 Alpha  occ. eigenvalues --  -11.21064 -11.21039  -1.08424  -1.08417  -1.03537
 Alpha  occ. eigenvalues --   -1.03506  -0.96007  -0.95939  -0.87042  -0.86940
 Alpha  occ. eigenvalues --   -0.79618  -0.79550  -0.78235  -0.78230  -0.65055
 Alpha  occ. eigenvalues --   -0.65049  -0.60956  -0.60913  -0.59349  -0.59339
 Alpha  occ. eigenvalues --   -0.57655  -0.57525  -0.55282  -0.55249  -0.52770
 Alpha  occ. eigenvalues --   -0.52630  -0.52446  -0.52289  -0.49915  -0.49889
 Alpha  occ. eigenvalues --   -0.47969  -0.47831  -0.46616  -0.46607  -0.45783
 Alpha  occ. eigenvalues --   -0.45767  -0.45699  -0.45697  -0.43788  -0.43734
 Alpha virt. eigenvalues --    0.21936   0.22998   0.23523   0.24863   0.26345
 Alpha virt. eigenvalues --    0.26665   0.27085   0.27543   0.27642   0.28767
 Alpha virt. eigenvalues --    0.30179   0.31418   0.31713   0.31925   0.31984

 Mulliken charges:
               1
     1  C   -0.298507
     2  C   -0.298813
     3  C   -0.483177
     4  H    0.149499
     5  H    0.149506
     6  H    0.151655
     7  H    0.152275
     8  H    0.155276
     9  H    0.154516
    10  H    0.167353
    11  C   -0.298232
    12  C   -0.299631
    13  C   -0.475698
    14  H    0.149494
    15  H    0.149703
    16  H    0.151886
    17  H    0.151915
    18  H    0.155196
    19  H    0.155171
    20  H    0.160219
    21  C   -0.298481
    22  C   -0.299563
    23  C   -0.481205
    24  H    0.149785
    25  H    0.149435
    26  H    0.152630
    27  H    0.151939
    28  H    0.155315
    29  H    0.159902
    30  H    0.160605
    31  C   -0.298340
    32  C   -0.299662
    33  C   -0.475708
    34  H    0.149691
    35  H    0.149615
    36  H    0.151961
    37  H    0.151881
    38  H    0.155163
    39  H    0.155215
    40  H    0.160215
 Sum of Mulliken charges =  -0.00000

 Dipole moment (field-independent basis, Debye):
    X=             -0.0116    Y=              0.0104    Z=              0.0005  Tot=              0.0156
 Quadrupole moment (field-independent basis, Debye-Ang):
   XX=            -86.2555   YY=            -83.6590   ZZ=            -84.8791
   XY=             -0.7564   XZ=              1.1610   YZ=              0.2811

 Normal termination of Gaussian 16 at Thu May  6 05:16:22 2021.
