 Gaussian 16, Revision A.03,
 Gaussian 16:  EM64L-G16RevA.03 25-Dec-2016

 -------------
 #p 6-31g* mp2
 -------------

 ------------------------------------------------------
 Input file generated by CHIRIPA (05-May-2021 14:53:17)
 ------------------------------------------------------
 Symbolic Z-matrix:
 Charge =  0 Multiplicity = 1

                         Standard orientation:
 ---------------------------------------------------------------------
 Center     Atomic      Atomic             Coordinates (Angstroms)
 Number     Number       Type             X           Y           Z
 ---------------------------------------------------------------------
      1          6           0        3.128746   -0.494063    0.237812
      2          6           0        4.152270   -1.453916   -0.369696
      3          6           0        4.236472   -2.782177    0.382917
      4          1           0        3.390193   -0.306056    1.288166
      5          1           0        2.141683   -0.976841    0.242991
      6          1           0        5.136847   -0.968946   -0.374996
      7          1           0        3.888464   -1.639508   -1.418781
      8          1           0        3.266848   -3.290502    0.376906
      9          1           0        4.522324   -2.616129    1.426621
     10          1           0        4.974099   -3.453174   -0.068225
     11          6           0        3.033032    0.838185   -0.503594
     12          6           0        2.009509    1.798038    0.103915
     13          6           0        1.925306    3.126299   -0.648699
     14          1           0        4.020095    1.320963   -0.508773
     15          1           0        2.771585    0.650178   -1.553948
     16          1           0        2.273314    1.983630    1.152999
     17          1           0        1.024931    1.313068    0.109214
     18          1           0        1.639454    2.960251   -1.692402
     19          1           0        2.894930    3.634624   -0.642687
     20          1           0        1.187680    3.797296   -0.197557
     21          6           0       -3.046565   -2.490144   -0.534446
     22          6           0       -3.170926   -1.454229   -1.466076
     23          6           0       -2.819513   -0.145170   -1.123409
     24          6           0       -2.345108    0.093320    0.165527
     25          6           0       -2.209898   -0.917439    1.115986
     26          6           0       -2.567292   -2.218922    0.751345
     27          1           0       -3.321874   -3.504110   -0.809174
     28          1           0       -3.542847   -1.661929   -2.465366
     29          1           0       -2.905812    0.675637   -1.825010
     30          1           0       -1.836120   -0.679466    2.104457
     31          1           0       -2.469666   -3.021453    1.476919
     32          7           0       -1.969917    1.475151    0.539924
     33          8           0       -1.554523    1.659149    1.681953
     34          8           0       -2.098341    2.348067   -0.315741
 ---------------------------------------------------------------------

 SCF Done:  E(RHF) =  -669.535819749     A.U. after   15 cycles
 E2 =    -0.2091869141D+01 EUMP2 =    -0.67162768889043D+03

 The electronic state is 1-A.
 Alpha  occ. eigenvalues --  -20.60873 -20.60868 -15.85903 -11.31271 -11.27835
 Alpha  occ. eigenvalues --  -11.27832 -11.27576 -11.26847 -11.26837 -11.21429
 Alpha  occ. eigenvalues --  -11.21077 -11.21025 -11.20862 -11.20758 -11.20019
 Alpha  occ. eigenvalues --   -1.59942  -1.39492  -1.19441  -1.08839  -1.07990
 Alpha  occ. eigenvalues --   -1.04839  -1.03014  -0.95674  -0.95468  -0.86492
 Alpha  occ. eigenvalues --   -0.86237  -0.82503  -0.79117  -0.77763  -0.77551
 Alpha  occ. eigenvalues --   -0.72125  -0.71280  -0.70544  -0.65091  -0.64839
 Alpha  occ. eigenvalues --   -0.64631  -0.62184  -0.60421  -0.58870  -0.57036
 Alpha  occ. eigenvalues --   -0.55340  -0.54782  -0.53170  -0.52929  -0.52127
 Alpha  occ. eigenvalues --   -0.51898  -0.49452  -0.48887  -0.48885  -0.47419
 Alpha  occ. eigenvalues --   -0.46185  -0.45364  -0.45233  -0.44796  -0.43264
 Alpha  occ. eigenvalues --   -0.37422  -0.36441
 Alpha virt. eigenvalues --    0.04966   0.11204   0.16438   0.21350   0.23179
 Alpha virt. eigenvalues --    0.24757   0.26868   0.27270   0.27720   0.28312
 Alpha virt. eigenvalues --    0.28531   0.30810   0.31750   0.32086   0.32511

 Mulliken charges:
               1
     1  C   -0.297135
     2  C   -0.298958
     3  C   -0.475046
     4  H    0.150152
     5  H    0.145830
     6  H    0.152408
     7  H    0.150487
     8  H    0.151909
     9  H    0.155322
    10  H    0.159245
    11  C   -0.298486
    12  C   -0.295185
    13  C   -0.476537
    14  H    0.148422
    15  H    0.146698
    16  H    0.154510
    17  H    0.147916
    18  H    0.151624
    19  H    0.149138
    20  H    0.175314
    21  C   -0.170686
    22  C   -0.218644
    23  C   -0.171113
    24  C    0.155942
    25  C   -0.171200
    26  C   -0.218719
    27  H    0.225966
    28  H    0.223751
    29  H    0.275918
    30  H    0.276397
    31  H    0.223953
    32  N    0.488502
    33  O   -0.458207
    34  O   -0.459487
 Sum of Mulliken charges =  -0.00000

 Dipole moment (field-independent basis, Debye):
    X=             -1.4730    Y=             -4.7447    Z=             -1.2555  Tot=              5.1242
 Quadrupole moment (field-independent basis, Debye-Ang):
   XX=            -88.9472   YY=            -96.3586   ZZ=            -90.9617
   XY=             11.6597   XZ=              4.8260   YZ=             -1.7650

 Normal termination of Gaussian 16 at Thu May  6 04:25:23 2021.
