 Gaussian 16, Revision A.03,
 Gaussian 16:  EM64L-G16RevA.03 25-Dec-2016

 -------------
 #p 6-31g* mp2
 -------------

 ------------------------------------------------------
 Input file generated by CHIRIPA (05-May-2021 14:57:27)
 ------------------------------------------------------
 Symbolic Z-matrix:
 Charge =  0 Multiplicity = 1

                         Standard orientation:
 ---------------------------------------------------------------------
 Center     Atomic      Atomic             Coordinates (Angstroms)
 Number     Number       Type             X           Y           Z
 ---------------------------------------------------------------------
      1          6           0        5.203148    1.039802    0.227967
      2          6           0        5.102317   -0.339724    0.019970
      3          6           0        3.854792   -0.938334   -0.179767
      4          6           0        2.723651   -0.123718   -0.165233
      5          6           0        2.791487    1.253526    0.039435
      6          6           0        4.049445    1.830629    0.237020
      7          1           0        6.176308    1.496463    0.382292
      8          1           0        5.996604   -0.956360    0.012429
      9          1           0        3.747945   -2.003857   -0.343055
     10          1           0        1.882161    1.842203    0.041577
     11          1           0        4.124734    2.902245    0.398317
     12          7           0        1.397430   -0.746056   -0.375547
     13          8           0        0.415969   -0.006413   -0.358206
     14          8           0        1.364510   -1.961703   -0.553749
     15          6           0       -2.355400   -2.394043    0.564626
     16          6           0       -2.219885   -1.446535    1.584620
     17          6           0       -2.542082   -0.105564    1.355417
     18          6           0       -2.998961    0.254641    0.088608
     19          6           0       -3.144643   -0.665941   -0.948019
     20          6           0       -2.816534   -2.001414   -0.696215
     21          1           0       -2.102814   -3.433606    0.751456
     22          1           0       -1.861999   -1.748591    2.564786
     23          1           0       -2.446580    0.648650    2.127077
     24          1           0       -3.503895   -0.334645   -1.914765
     25          1           0       -2.922763   -2.735092   -1.490239
     26          7           0       -3.343186    1.671356   -0.166002
     27          8           0       -3.743592    1.963208   -1.290784
     28          8           0       -3.206066    2.463102    0.764038
 ---------------------------------------------------------------------

 SCF Done:  E(RHF) =  -868.338453121     A.U. after   16 cycles
 E2 =    -0.2601097572D+01 EUMP2 =    -0.87093955069304D+03

 The electronic state is 1-A.
 Alpha  occ. eigenvalues --  -20.61160 -20.61106 -20.59566 -20.59551 -15.86158
 Alpha  occ. eigenvalues --  -15.84600 -11.31411 -11.29529 -11.27990 -11.27924
 Alpha  occ. eigenvalues --  -11.27684 -11.26970 -11.26920 -11.26179 -11.26139
 Alpha  occ. eigenvalues --  -11.25862 -11.25128 -11.25074  -1.60196  -1.58639
 Alpha  occ. eigenvalues --   -1.39757  -1.38209  -1.19572  -1.17688  -1.08991
 Alpha  occ. eigenvalues --   -1.07187  -1.04952  -1.03110  -0.95847  -0.94101
 Alpha  occ. eigenvalues --   -0.86357  -0.84559  -0.82686  -0.80993  -0.77743
 Alpha  occ. eigenvalues --   -0.76073  -0.72421  -0.71520  -0.70857  -0.70676
 Alpha  occ. eigenvalues --   -0.69924  -0.68923  -0.65227  -0.64951  -0.63427
 Alpha  occ. eigenvalues --   -0.63212  -0.62296  -0.60541  -0.55466  -0.53680
 Alpha  occ. eigenvalues --   -0.53299  -0.53041  -0.51568  -0.51294  -0.49152
 Alpha  occ. eigenvalues --   -0.48834  -0.47618  -0.47567  -0.45194  -0.43717
 Alpha  occ. eigenvalues --   -0.37557  -0.36553  -0.35579  -0.34616
 Alpha virt. eigenvalues --    0.04770   0.06502   0.11102   0.12989   0.16297
 Alpha virt. eigenvalues --    0.18086   0.21276   0.22825   0.27199   0.28160
 Alpha virt. eigenvalues --    0.28648   0.29712   0.30840   0.32271   0.32416

 Mulliken charges:
               1
     1  C   -0.170483
     2  C   -0.218678
     3  C   -0.171435
     4  C    0.157114
     5  C   -0.171395
     6  C   -0.218743
     7  H    0.226591
     8  H    0.223476
     9  H    0.273835
    10  H    0.279472
    11  H    0.226066
    12  N    0.490311
    13  O   -0.458532
    14  O   -0.465873
    15  C   -0.157394
    16  C   -0.216555
    17  C   -0.163316
    18  C    0.168730
    19  C   -0.165709
    20  C   -0.211441
    21  H    0.221188
    22  H    0.214573
    23  H    0.266982
    24  H    0.269371
    25  H    0.217855
    26  N    0.487558
    27  O   -0.465402
    28  O   -0.468166
 Sum of Mulliken charges =  -0.00000

 Dipole moment (field-independent basis, Debye):
    X=              6.1947    Y=             -2.8387    Z=              1.5492  Tot=              6.9881
 Quadrupole moment (field-independent basis, Debye-Ang):
   XX=            -87.5239   YY=           -104.6424   ZZ=           -101.7994
   XY=             19.6088   XZ=              0.0692   YZ=              1.1059

 Normal termination of Gaussian 16 at Thu May  6 18:12:29 2021.
