 Gaussian 16, Revision A.03,
 Gaussian 16:  EM64L-G16RevA.03 25-Dec-2016

 -------------
 #p 6-31g* mp2
 -------------

 ------------------------------------------------------
 Input file generated by CHIRIPA (05-May-2021 14:55:25)
 ------------------------------------------------------
 Symbolic Z-matrix:
 Charge =  0 Multiplicity = 1

                         Standard orientation:
 ---------------------------------------------------------------------
 Center     Atomic      Atomic             Coordinates (Angstroms)
 Number     Number       Type             X           Y           Z
 ---------------------------------------------------------------------
      1          6           0        5.038409   -0.182824   -0.948103
      2          6           0        4.755848   -0.943767    0.191039
      3          6           0        3.504956   -0.858497    0.809543
      4          6           0        2.555798    0.001787    0.259725
      5          6           0        2.807122    0.772801   -0.874146
      6          6           0        4.064861    0.671525   -1.476130
      7          1           0        6.012791   -0.255281   -1.422155
      8          1           0        5.509993   -1.608105    0.603307
      9          1           0        3.259559   -1.436239    1.692387
     10          1           0        2.035069    1.426203   -1.261986
     11          1           0        4.281508    1.263673   -2.360703
     12          7           0        1.227910    0.100532    0.905762
     13          8           0        0.408825    0.865910    0.401845
     14          8           0        1.031341   -0.589320    1.903811
     15          6           0       -3.708560   -0.584787   -0.637491
     16          6           0       -3.693565   -1.911846    0.121901
     17          6           0       -4.009478   -3.109514   -0.774527
     18          1           0       -4.694366   -0.446750   -1.102331
     19          1           0       -2.979710   -0.631854   -1.458441
     20          1           0       -4.421237   -1.861791    0.942025
     21          1           0       -2.707743   -2.046649    0.585146
     22          1           0       -3.277710   -3.187654   -1.585089
     23          1           0       -5.000941   -3.001745   -1.226182
     24          1           0       -3.993407   -4.047818   -0.211332
     25          6           0       -3.394543    0.621874    0.245170
     26          6           0       -3.409537    1.948932   -0.514220
     27          6           0       -3.093624    3.146601    0.382208
     28          1           0       -4.123393    0.668941    1.066121
     29          1           0       -2.408737    0.483837    0.710010
     30          1           0       -4.395360    2.083736   -0.977466
     31          1           0       -2.681866    1.898877   -1.334345
     32          1           0       -2.102162    3.038831    0.833861
     33          1           0       -3.825393    3.224741    1.192768
     34          1           0       -3.109696    4.084903   -0.180988
 ---------------------------------------------------------------------

 SCF Done:  E(RHF) =  -669.536789590     A.U. after   15 cycles
 E2 =    -0.2091550434D+01 EUMP2 =    -0.67162834002382D+03

 The electronic state is 1-A.
 Alpha  occ. eigenvalues --  -20.61152 -20.61137 -15.86157 -11.31409 -11.27960
 Alpha  occ. eigenvalues --  -11.27956 -11.27685 -11.26950 -11.26941 -11.20478
 Alpha  occ. eigenvalues --  -11.20244 -11.20237 -11.20144 -11.19724 -11.19666
 Alpha  occ. eigenvalues --   -1.60194  -1.39751  -1.19568  -1.08986  -1.07086
 Alpha  occ. eigenvalues --   -1.04952  -1.02306  -0.95839  -0.94760  -0.86356
 Alpha  occ. eigenvalues --   -0.85784  -0.82675  -0.78388  -0.77736  -0.76865
 Alpha  occ. eigenvalues --   -0.72378  -0.71499  -0.70675  -0.65226  -0.64956
 Alpha  occ. eigenvalues --   -0.63691  -0.62299  -0.59692  -0.58152  -0.56378
 Alpha  occ. eigenvalues --   -0.55460  -0.54037  -0.53287  -0.53042  -0.51523
 Alpha  occ. eigenvalues --   -0.51197  -0.49210  -0.49130  -0.48649  -0.46708
 Alpha  occ. eigenvalues --   -0.45403  -0.45179  -0.44448  -0.44173  -0.42522
 Alpha  occ. eigenvalues --   -0.37542  -0.36549
 Alpha virt. eigenvalues --    0.04777   0.11107   0.16285   0.21230   0.24148
 Alpha virt. eigenvalues --    0.25425   0.27171   0.27798   0.28306   0.28926
 Alpha virt. eigenvalues --    0.29199   0.30850   0.32220   0.32654   0.32830

 Mulliken charges:
               1
     1  C   -0.170312
     2  C   -0.218604
     3  C   -0.170462
     4  C    0.157611
     5  C   -0.170682
     6  C   -0.218553
     7  H    0.226463
     8  H    0.224248
     9  H    0.276112
    10  H    0.275971
    11  H    0.224306
    12  N    0.489850
    13  O   -0.461489
    14  O   -0.458147
    15  C   -0.296313
    16  C   -0.300609
    17  C   -0.474685
    18  H    0.143344
    19  H    0.146449
    20  H    0.149818
    21  H    0.159184
    22  H    0.152029
    23  H    0.152378
    24  H    0.157296
    25  C   -0.310253
    26  C   -0.294633
    27  C   -0.479403
    28  H    0.142446
    29  H    0.181365
    30  H    0.143943
    31  H    0.149853
    32  H    0.168997
    33  H    0.150626
    34  H    0.151856
 Sum of Mulliken charges =  -0.00000

 Dipole moment (field-independent basis, Debye):
    X=              5.1637    Y=             -0.3702    Z=             -2.1249  Tot=              5.5961
 Quadrupole moment (field-independent basis, Debye-Ang):
   XX=            -71.5276   YY=            -94.7719   ZZ=            -94.2940
   XY=             -2.2156   XZ=             -4.4333   YZ=             -3.3476

 Normal termination of Gaussian 16 at Wed May  5 22:28:17 2021.
