 Gaussian 16, Revision A.03,
 Gaussian 16:  EM64L-G16RevA.03 25-Dec-2016

 -------------
 #p 6-31g* mp2
 -------------

 ------------------------------------------------------
 Input file generated by CHIRIPA (05-May-2021 14:57:22)
 ------------------------------------------------------
 Symbolic Z-matrix:
 Charge =  0 Multiplicity = 1

                         Standard orientation:
 ---------------------------------------------------------------------
 Center     Atomic      Atomic             Coordinates (Angstroms)
 Number     Number       Type             X           Y           Z
 ---------------------------------------------------------------------
      1          6           0       -1.935890   -2.069259    0.907307
      2          6           0       -2.294241   -1.043506    1.788180
      3          6           0       -3.010491    0.066810    1.331306
      4          6           0       -3.353537    0.119081   -0.018833
      5          6           0       -3.011071   -0.886834   -0.921132
      6          6           0       -2.294815   -1.987793   -0.442158
      7          1           0       -1.379487   -2.928144    1.270802
      8          1           0       -2.016841   -1.104101    2.836713
      9          1           0       -3.300770    0.875092    1.991486
     10          1           0       -3.301787   -0.798269   -1.960871
     11          1           0       -2.017862   -2.782920   -1.128536
     12          7           0       -4.111802    1.289569   -0.514203
     13          8           0       -4.402046    1.311844   -1.708313
     14          8           0       -4.401528    2.162560    0.301016
     15          6           0        4.258601    2.358812    0.226686
     16          6           0        2.905382    2.158871    0.518820
     17          6           0        2.324077    0.897096    0.362106
     18          6           0        3.128986   -0.147073   -0.090797
     19          6           0        4.480127    0.020493   -0.390180
     20          6           0        5.040277    1.290868   -0.226084
     21          1           0        4.701955    3.342329    0.351292
     22          1           0        2.295908    2.986414    0.870614
     23          1           0        1.279016    0.714390    0.580925
     24          1           0        5.062239   -0.823787   -0.739112
     25          1           0        6.091472    1.443220   -0.453729
     26          7           0        2.524783   -1.487410   -0.260611
     27          8           0        3.255388   -2.390993   -0.661098
     28          8           0        1.332044   -1.609004    0.009993
 ---------------------------------------------------------------------

 SCF Done:  E(RHF) =  -868.339666115     A.U. after   16 cycles
 E2 =    -0.2599317537D+01 EUMP2 =    -0.87093898365125D+03

 The electronic state is 1-A.
 Alpha  occ. eigenvalues --  -20.61397 -20.61363 -20.60356 -20.60340 -15.86415
 Alpha  occ. eigenvalues --  -15.85399 -11.31558 -11.30502 -11.28106 -11.28082
 Alpha  occ. eigenvalues --  -11.27797 -11.27130 -11.27069 -11.27041 -11.27018
 Alpha  occ. eigenvalues --  -11.26607 -11.26014 -11.25849  -1.60459  -1.59437
 Alpha  occ. eigenvalues --   -1.40017  -1.38997  -1.19710  -1.18646  -1.09149
 Alpha  occ. eigenvalues --   -1.08040  -1.05076  -1.04022  -0.96024  -0.94927
 Alpha  occ. eigenvalues --   -0.86484  -0.85405  -0.82862  -0.81787  -0.77930
 Alpha  occ. eigenvalues --   -0.76904  -0.72672  -0.71767  -0.71619  -0.70811
 Alpha  occ. eigenvalues --   -0.70766  -0.69660  -0.65364  -0.65072  -0.64279
 Alpha  occ. eigenvalues --   -0.63998  -0.62422  -0.61391  -0.55583  -0.54402
 Alpha  occ. eigenvalues --   -0.53422  -0.53161  -0.52337  -0.52098  -0.49417
 Alpha  occ. eigenvalues --   -0.49391  -0.48390  -0.48351  -0.45474  -0.44463
 Alpha  occ. eigenvalues --   -0.37679  -0.36671  -0.36477  -0.35641
 Alpha virt. eigenvalues --    0.04570   0.05650   0.10986   0.12041   0.16114
 Alpha virt. eigenvalues --    0.17258   0.21157   0.22264   0.27078   0.27999
 Alpha virt. eigenvalues --    0.28072   0.29197   0.30724   0.31873   0.32174

 Mulliken charges:
               1
     1  C   -0.153083
     2  C   -0.224613
     3  C   -0.176296
     4  C    0.155330
     5  C   -0.173757
     6  C   -0.212703
     7  H    0.233308
     8  H    0.219840
     9  H    0.270554
    10  H    0.273067
    11  H    0.227394
    12  N    0.488069
    13  O   -0.462092
    14  O   -0.464955
    15  C   -0.170001
    16  C   -0.218644
    17  C   -0.171770
    18  C    0.157031
    19  C   -0.170839
    20  C   -0.218637
    21  H    0.227543
    22  H    0.226447
    23  H    0.276798
    24  H    0.275485
    25  H    0.224564
    26  N    0.492149
    27  O   -0.459914
    28  O   -0.470277
 Sum of Mulliken charges =  -0.00000

 Dipole moment (field-independent basis, Debye):
    X=              5.1404    Y=              0.3831    Z=              2.3046  Tot=              5.6464
 Quadrupole moment (field-independent basis, Debye-Ang):
   XX=           -107.2235   YY=           -106.2465   ZZ=           -101.3714
   XY=             28.0129   XZ=             -5.6838   YZ=              2.4486

 Normal termination of Gaussian 16 at Thu May  6 17:53:20 2021.
