 Gaussian 16, Revision A.03,
 Gaussian 16:  EM64L-G16RevA.03 25-Dec-2016

 -------------
 #p 6-31g* mp2
 -------------

 ------------------------------------------------------
 Input file generated by CHIRIPA (05-May-2021 14:51:09)
 ------------------------------------------------------
 Symbolic Z-matrix:
 Charge =  0 Multiplicity = 1

                         Standard orientation:
 ---------------------------------------------------------------------
 Center     Atomic      Atomic             Coordinates (Angstroms)
 Number     Number       Type             X           Y           Z
 ---------------------------------------------------------------------
      1          6           0        3.024667    1.109505   -0.318510
      2          6           0        3.324411    2.394858    0.453503
      3          6           0        2.751533    3.639383   -0.225292
      4          1           0        3.433537    1.195766   -1.334546
      5          1           0        1.936696    1.000809   -0.427585
      6          1           0        4.411446    2.500386    0.562291
      7          1           0        2.914948    2.305451    1.467881
      8          1           0        1.663703    3.560273   -0.319991
      9          1           0        3.168704    3.756315   -1.230725
     10          1           0        2.977473    4.546796    0.343403
     11          6           0        3.590918   -0.143270    0.347557
     12          6           0        3.291174   -1.428624   -0.424456
     13          6           0        3.864052   -2.673148    0.254339
     14          1           0        4.678890   -0.034574    0.456632
     15          1           0        3.182048   -0.229532    1.363593
     16          1           0        3.700637   -1.339216   -1.438834
     17          1           0        2.204139   -1.534151   -0.533244
     18          1           0        3.446881   -2.790080    1.259772
     19          1           0        4.951882   -2.594038    0.349038
     20          1           0        3.638113   -3.580561   -0.314356
     21          6           0       -2.697407   -0.794843   -0.351701
     22          6           0       -2.167450   -2.030532    0.376452
     23          6           0       -0.946221   -2.642869   -0.310161
     24          1           0       -2.954007   -1.067622   -1.384509
     25          1           0       -1.897229   -0.044543   -0.416186
     26          1           0       -2.968803   -2.777735    0.440764
     27          1           0       -1.912261   -1.754824    1.407702
     28          1           0       -0.128422   -1.916770   -0.361016
     29          1           0       -1.190967   -2.945494   -1.333449
     30          1           0       -0.583848   -3.524917    0.226994
     31          6           0       -3.918179   -0.171392    0.322653
     32          6           0       -4.448135    1.064297   -0.405498
     33          6           0       -5.669365    1.676635    0.281114
     34          1           0       -4.718356   -0.921692    0.387139
     35          1           0       -3.661578    0.101387    1.355462
     36          1           0       -4.703325    0.788589   -1.436750
     37          1           0       -3.646783    1.811501   -0.469812
     38          1           0       -5.424618    1.979259    1.304402
     39          1           0       -6.487163    0.950535    0.331969
     40          1           0       -6.031737    2.558683   -0.256042
 ---------------------------------------------------------------------

 SCF Done:  E(RHF) =  -470.733320868     A.U. after   11 cycles
 E2 =    -0.1582640639D+01 EUMP2 =    -0.47231596150682D+03

 The electronic state is 1-A.
 Alpha  occ. eigenvalues --  -11.21646 -11.21627 -11.21620 -11.21550 -11.21445
 Alpha  occ. eigenvalues --  -11.21416 -11.21384 -11.21350 -11.21110 -11.21090
 Alpha  occ. eigenvalues --  -11.21090 -11.21033  -1.08469  -1.08431  -1.03572
 Alpha  occ. eigenvalues --   -1.03516  -0.96020  -0.95970  -0.87040  -0.86984
 Alpha  occ. eigenvalues --   -0.79666  -0.79553  -0.78296  -0.78229  -0.65150
 Alpha  occ. eigenvalues --   -0.65024  -0.61069  -0.60832  -0.59381  -0.59342
 Alpha  occ. eigenvalues --   -0.57638  -0.57571  -0.55353  -0.55222  -0.52709
 Alpha  occ. eigenvalues --   -0.52663  -0.52465  -0.52381  -0.50059  -0.49848
 Alpha  occ. eigenvalues --   -0.48039  -0.47833  -0.46805  -0.46488  -0.45904
 Alpha  occ. eigenvalues --   -0.45782  -0.45761  -0.45515  -0.43820  -0.43779
 Alpha virt. eigenvalues --    0.21037   0.23129   0.23826   0.24638   0.25490
 Alpha virt. eigenvalues --    0.26890   0.27106   0.27543   0.28035   0.28942
 Alpha virt. eigenvalues --    0.30609   0.31662   0.31685   0.31851   0.32036

 Mulliken charges:
               1
     1  C   -0.298223
     2  C   -0.299660
     3  C   -0.475634
     4  H    0.150018
     5  H    0.148170
     6  H    0.152171
     7  H    0.151790
     8  H    0.154864
     9  H    0.155351
    10  H    0.160314
    11  C   -0.297835
    12  C   -0.308323
    13  C   -0.475051
    14  H    0.149608
    15  H    0.149273
    16  H    0.151933
    17  H    0.160433
    18  H    0.154942
    19  H    0.154881
    20  H    0.160581
    21  C   -0.298284
    22  C   -0.299348
    23  C   -0.482217
    24  H    0.149997
    25  H    0.148864
    26  H    0.152232
    27  H    0.151741
    28  H    0.160495
    29  H    0.155772
    30  H    0.160819
    31  C   -0.298341
    32  C   -0.299665
    33  C   -0.475735
    34  H    0.149710
    35  H    0.149598
    36  H    0.152085
    37  H    0.151856
    38  H    0.155184
    39  H    0.155239
    40  H    0.160397
 Sum of Mulliken charges =  -0.00000

 Dipole moment (field-independent basis, Debye):
    X=             -0.0149    Y=             -0.0149    Z=             -0.0097  Tot=              0.0232
 Quadrupole moment (field-independent basis, Debye-Ang):
   XX=            -84.5230   YY=            -85.6767   ZZ=            -84.4686
   XY=              1.3362   XZ=              0.0849   YZ=              0.4494

 Normal termination of Gaussian 16 at Thu May  6 05:18:50 2021.
