 Gaussian 16, Revision A.03,
 Gaussian 16:  EM64L-G16RevA.03 25-Dec-2016

 -------------
 #p 6-31g* mp2
 -------------

 ------------------------------------------------------
 Input file generated by CHIRIPA (05-May-2021 14:53:18)
 ------------------------------------------------------
 Symbolic Z-matrix:
 Charge =  0 Multiplicity = 1

                         Standard orientation:
 ---------------------------------------------------------------------
 Center     Atomic      Atomic             Coordinates (Angstroms)
 Number     Number       Type             X           Y           Z
 ---------------------------------------------------------------------
      1          6           0        4.338164    0.153397    0.059275
      2          6           0        5.216428   -0.193661   -1.143301
      3          6           0        6.391340    0.769634   -1.314880
      4          1           0        3.960023    1.178574   -0.054601
      5          1           0        4.954699    0.146881    0.968801
      6          1           0        4.598134   -0.187848   -2.050105
      7          1           0        5.592368   -1.218198   -1.026642
      8          1           0        7.031952    0.757876   -0.427142
      9          1           0        6.032070    1.794081   -1.456420
     10          1           0        7.005973    0.503049   -2.180338
     11          6           0        3.159385   -0.800589    0.243984
     12          6           0        2.281121   -0.453530    1.446559
     13          6           0        1.106210   -1.416825    1.618138
     14          1           0        2.542851   -0.794072   -0.665543
     15          1           0        3.537526   -1.825765    0.357859
     16          1           0        1.905182    0.571007    1.329901
     17          1           0        2.899415   -0.459343    2.353364
     18          1           0        1.465480   -2.441272    1.759679
     19          1           0        0.465597   -1.405067    0.730401
     20          1           0        0.491577   -1.150240    2.483597
     21          6           0       -2.027247    2.451897    0.728454
     22          6           0       -2.907279    2.428136   -0.358513
     23          6           0       -3.413020    1.215465   -0.836219
     24          6           0       -3.015882    0.040209   -0.200337
     25          6           0       -2.140684    0.031140    0.884669
     26          6           0       -1.647428    1.255432    1.345488
     27          1           0       -1.639224    3.398443    1.092989
     28          1           0       -3.203983    3.355772   -0.839663
     29          1           0       -4.095722    1.168180   -1.675921
     30          1           0       -1.863154   -0.909957    1.343723
     31          1           0       -0.964132    1.270857    2.189831
     32          7           0       -3.544678   -1.249743   -0.697124
     33          8           0       -3.179403   -2.271312   -0.119538
     34          8           0       -4.314413   -1.214812   -1.654687
 ---------------------------------------------------------------------

 SCF Done:  E(RHF) =  -669.534749962     A.U. after   15 cycles
 E2 =    -0.2092438255D+01 EUMP2 =    -0.67162718821740D+03

 The electronic state is 1-A.
 Alpha  occ. eigenvalues --  -20.60744 -20.60739 -15.85796 -11.31142 -11.27736
 Alpha  occ. eigenvalues --  -11.27657 -11.27482 -11.26745 -11.26716 -11.22156
 Alpha  occ. eigenvalues --  -11.21833 -11.21745 -11.21677 -11.21664 -11.21287
 Alpha  occ. eigenvalues --   -1.59820  -1.39373  -1.19332  -1.08797  -1.08728
 Alpha  occ. eigenvalues --   -1.04743  -1.03920  -0.96389  -0.95559  -0.87414
 Alpha  occ. eigenvalues --   -0.86127  -0.82393  -0.80003  -0.78589  -0.77438
 Alpha  occ. eigenvalues --   -0.72014  -0.71145  -0.70450  -0.65431  -0.64980
 Alpha  occ. eigenvalues --   -0.64739  -0.62215  -0.61235  -0.59746  -0.57984
 Alpha  occ. eigenvalues --   -0.55690  -0.55207  -0.53182  -0.53017  -0.52908
 Alpha  occ. eigenvalues --   -0.52659  -0.50264  -0.48773  -0.48767  -0.48306
 Alpha  occ. eigenvalues --   -0.47002  -0.46136  -0.46040  -0.44779  -0.44183
 Alpha  occ. eigenvalues --   -0.37322  -0.36297
 Alpha virt. eigenvalues --    0.05068   0.11232   0.16502   0.20342   0.22698
 Alpha virt. eigenvalues --    0.23883   0.25978   0.26376   0.26902   0.28180
 Alpha virt. eigenvalues --    0.29122   0.29700   0.31024   0.31472   0.32298

 Mulliken charges:
               1
     1  C   -0.298416
     2  C   -0.300124
     3  C   -0.475837
     4  H    0.148002
     5  H    0.149545
     6  H    0.153163
     7  H    0.153332
     8  H    0.155234
     9  H    0.154429
    10  H    0.161488
    11  C   -0.299185
    12  C   -0.300560
    13  C   -0.481561
    14  H    0.152794
    15  H    0.152451
    16  H    0.146853
    17  H    0.152878
    18  H    0.162786
    19  H    0.163362
    20  H    0.148833
    21  C   -0.171253
    22  C   -0.218897
    23  C   -0.170867
    24  C    0.157112
    25  C   -0.172480
    26  C   -0.220370
    27  H    0.225409
    28  H    0.223211
    29  H    0.275406
    30  H    0.280888
    31  H    0.225200
    32  N    0.488432
    33  O   -0.460621
    34  O   -0.460640
 Sum of Mulliken charges =  -0.00000

 Dipole moment (field-independent basis, Debye):
    X=              1.9756    Y=              4.4616    Z=              1.6855  Tot=              5.1623
 Quadrupole moment (field-independent basis, Debye-Ang):
   XX=           -105.4936   YY=            -93.5725   ZZ=            -93.3030
   XY=            -16.2910   XZ=             -3.1128   YZ=             -3.0203

 Normal termination of Gaussian 16 at Wed May  5 18:48:58 2021.
