 Gaussian 16, Revision A.03,
 Gaussian 16:  EM64L-G16RevA.03 25-Dec-2016

 -------------
 #p 6-31g* mp2
 -------------

 ------------------------------------------------------
 Input file generated by CHIRIPA (05-May-2021 14:51:12)
 ------------------------------------------------------
 Symbolic Z-matrix:
 Charge =  0 Multiplicity = 1

                         Standard orientation:
 ---------------------------------------------------------------------
 Center     Atomic      Atomic             Coordinates (Angstroms)
 Number     Number       Type             X           Y           Z
 ---------------------------------------------------------------------
      1          6           0       -2.367431   -0.236761   -0.334935
      2          6           0       -3.340863   -1.320826   -0.798852
      3          6           0       -2.639484   -2.631800   -1.155515
      4          1           0       -1.627109   -0.054775   -1.125978
      5          1           0       -1.809045   -0.604027    0.537255
      6          1           0       -3.898229   -0.951102   -1.669061
      7          1           0       -4.079069   -1.500116   -0.006689
      8          1           0       -2.097661   -3.026688   -0.290014
      9          1           0       -1.915793   -2.474555   -1.961831
     10          1           0       -3.353986   -3.392770   -1.484559
     11          6           0       -3.053603    1.079747    0.025209
     12          6           0       -2.080171    2.163812    0.489126
     13          6           0       -2.781550    3.474787    0.845789
     14          1           0       -3.611989    1.447014   -0.846981
     15          1           0       -3.793926    0.897761    0.816252
     16          1           0       -1.341965    2.343103   -0.303037
     17          1           0       -1.522805    1.794089    1.359335
     18          1           0       -3.505241    3.317541    1.652105
     19          1           0       -3.323373    3.869675   -0.019712
     20          1           0       -2.067048    4.235757    1.174833
     21          6           0        2.859838    0.090550   -0.391897
     22          6           0        4.069812    0.972690   -0.082419
     23          6           0        4.355861    1.992016   -1.185571
     24          1           0        3.029722   -0.433600   -1.342345
     25          1           0        1.977835    0.728869   -0.540272
     26          1           0        4.948981    0.332813    0.066693
     27          1           0        3.897109    1.494655    0.867498
     28          1           0        3.496186    2.654246   -1.330520
     29          1           0        4.554035    1.485803   -2.135875
     30          1           0        5.224761    2.612031   -0.943799
     31          6           0        2.561196   -0.933537    0.701623
     32          6           0        1.351222   -1.815677    0.392146
     33          6           0        1.065173   -2.835003    1.495298
     34          1           0        3.443200   -1.571856    0.849999
     35          1           0        2.391311   -0.409386    1.652071
     36          1           0        1.523926   -2.337642   -0.557771
     37          1           0        0.472053   -1.175800    0.243032
     38          1           0        0.866999   -2.328789    2.445601
     39          1           0        1.924848   -3.497233    1.640247
     40          1           0        0.196273   -3.455018    1.253525
 ---------------------------------------------------------------------

 SCF Done:  E(RHF) =  -470.732935377     A.U. after   11 cycles
 E2 =    -0.1583957600D+01 EUMP2 =    -0.47231689297637D+03

 The electronic state is 1-A.
 Alpha  occ. eigenvalues --  -11.21682 -11.21640 -11.21569 -11.21457 -11.21434
 Alpha  occ. eigenvalues --  -11.21396 -11.21347 -11.21282 -11.21129 -11.21085
 Alpha  occ. eigenvalues --  -11.21052 -11.21041  -1.08500  -1.08361  -1.03589
 Alpha  occ. eigenvalues --   -1.03466  -0.96028  -0.95937  -0.87053  -0.86944
 Alpha  occ. eigenvalues --   -0.79687  -0.79519  -0.78424  -0.78066  -0.65151
 Alpha  occ. eigenvalues --   -0.64978  -0.61006  -0.60866  -0.59463  -0.59241
 Alpha  occ. eigenvalues --   -0.57668  -0.57519  -0.55323  -0.55222  -0.52721
 Alpha  occ. eigenvalues --   -0.52651  -0.52512  -0.52299  -0.49975  -0.49874
 Alpha  occ. eigenvalues --   -0.48043  -0.47808  -0.46762  -0.46637  -0.46097
 Alpha  occ. eigenvalues --   -0.45775  -0.45686  -0.45150  -0.43836  -0.43726
 Alpha virt. eigenvalues --    0.20894   0.22612   0.23508   0.24858   0.25094
 Alpha virt. eigenvalues --    0.26445   0.26588   0.27420   0.28903   0.29766
 Alpha virt. eigenvalues --    0.29945   0.31213   0.31431   0.31813   0.32191

 Mulliken charges:
               1
     1  C   -0.303668
     2  C   -0.299244
     3  C   -0.479082
     4  H    0.151044
     5  H    0.153792
     6  H    0.152049
     7  H    0.151891
     8  H    0.158234
     9  H    0.156083
    10  H    0.160265
    11  C   -0.297352
    12  C   -0.300310
    13  C   -0.475642
    14  H    0.149789
    15  H    0.149821
    16  H    0.151700
    17  H    0.151425
    18  H    0.155451
    19  H    0.155504
    20  H    0.160355
    21  C   -0.298711
    22  C   -0.299531
    23  C   -0.475667
    24  H    0.149305
    25  H    0.149860
    26  H    0.151884
    27  H    0.151906
    28  H    0.154984
    29  H    0.155034
    30  H    0.160156
    31  C   -0.297490
    32  C   -0.308761
    33  C   -0.478327
    34  H    0.148981
    35  H    0.148894
    36  H    0.151273
    37  H    0.163247
    38  H    0.154075
    39  H    0.155369
    40  H    0.161416
 Sum of Mulliken charges =  -0.00000

 Dipole moment (field-independent basis, Debye):
    X=             -0.0616    Y=              0.0136    Z=             -0.0173  Tot=              0.0654
 Quadrupole moment (field-independent basis, Debye-Ang):
   XX=            -84.6780   YY=            -85.9299   ZZ=            -84.2389
   XY=             -0.2680   XZ=             -0.0625   YZ=              0.3212

 Normal termination of Gaussian 16 at Wed May  5 16:47:42 2021.
