 Gaussian 16, Revision A.03,
 Gaussian 16:  EM64L-G16RevA.03 25-Dec-2016

 -------------
 #p 6-31g* mp2
 -------------

 ------------------------------------------------------
 Input file generated by CHIRIPA (05-May-2021 14:51:07)
 ------------------------------------------------------
 Symbolic Z-matrix:
 Charge =  0 Multiplicity = 1

                         Standard orientation:
 ---------------------------------------------------------------------
 Center     Atomic      Atomic             Coordinates (Angstroms)
 Number     Number       Type             X           Y           Z
 ---------------------------------------------------------------------
      1          6           0       -3.292230    0.047331   -0.442365
      2          6           0       -2.764544   -1.354181   -0.751065
      3          6           0       -3.870990   -2.324195   -1.166572
      4          1           0       -4.043361   -0.018354    0.356655
      5          1           0       -3.811356    0.439384   -1.327914
      6          1           0       -2.245368   -1.742921    0.134347
      7          1           0       -2.014443   -1.285129   -1.549310
      8          1           0       -4.383747   -1.962293   -2.063627
      9          1           0       -4.615985   -2.422686   -0.370404
     10          1           0       -3.471608   -3.320037   -1.382566
     11          6           0       -2.197986    1.028449   -0.025512
     12          6           0       -2.725671    2.429962    0.283188
     13          6           0       -1.619226    3.399976    0.698695
     14          1           0       -1.678860    0.636397    0.860038
     15          1           0       -1.446855    1.094134   -0.824531
     16          1           0       -3.475773    2.360909    1.081433
     17          1           0       -3.244847    2.818701   -0.602223
     18          1           0       -0.874231    3.498466   -0.097472
     19          1           0       -1.106469    3.038073    1.595751
     20          1           0       -2.018608    4.395818    0.914690
     21          6           0        3.026997    0.021360   -0.203336
     22          6           0        4.539011   -0.074127   -0.409932
     23          6           0        5.088099    1.051628   -1.286844
     24          1           0        2.527738    0.002653   -1.181771
     25          1           0        2.786706    0.992249    0.251671
     26          1           0        4.776515   -1.045109   -0.863143
     27          1           0        5.034718   -0.055382    0.569119
     28          1           0        4.880051    2.027418   -0.836122
     29          1           0        4.620381    1.032067   -2.276520
     30          1           0        6.170715    0.963989   -1.421454
     31          6           0        2.463219   -1.097141    0.671212
     32          6           0        0.951205   -1.001654    0.877809
     33          6           0        0.402117   -2.127408    1.754720
     34          1           0        2.703510   -2.068029    0.216206
     35          1           0        2.962478   -1.078433    1.649648
     36          1           0        0.455498   -1.020399   -0.101242
     37          1           0        0.713701   -0.030671    1.331019
     38          1           0        0.869835   -2.107847    2.744396
     39          1           0        0.610165   -3.103198    1.303998
     40          1           0       -0.680500   -2.039770    1.889331
 ---------------------------------------------------------------------

 SCF Done:  E(RHF) =  -470.732045880     A.U. after   11 cycles
 E2 =    -0.1584783220D+01 EUMP2 =    -0.47231682910035D+03

 The electronic state is 1-A.
 Alpha  occ. eigenvalues --  -11.21585 -11.21571 -11.21563 -11.21498 -11.21372
 Alpha  occ. eigenvalues --  -11.21362 -11.21309 -11.21278 -11.21073 -11.21070
 Alpha  occ. eigenvalues --  -11.21061 -11.21060  -1.08458  -1.08349  -1.03538
 Alpha  occ. eigenvalues --   -1.03486  -0.95980  -0.95953  -0.87018  -0.86946
 Alpha  occ. eigenvalues --   -0.79641  -0.79553  -0.78449  -0.77956  -0.65084
 Alpha  occ. eigenvalues --   -0.65010  -0.61008  -0.60849  -0.59438  -0.59237
 Alpha  occ. eigenvalues --   -0.57641  -0.57524  -0.55296  -0.55209  -0.52732
 Alpha  occ. eigenvalues --   -0.52617  -0.52465  -0.52328  -0.49912  -0.49905
 Alpha  occ. eigenvalues --   -0.48073  -0.47796  -0.46647  -0.46552  -0.46098
 Alpha  occ. eigenvalues --   -0.45791  -0.45486  -0.45262  -0.43757  -0.43747
 Alpha virt. eigenvalues --    0.21127   0.23118   0.23499   0.24078   0.24924
 Alpha virt. eigenvalues --    0.26298   0.26858   0.28056   0.28465   0.29801
 Alpha virt. eigenvalues --    0.30159   0.30948   0.31669   0.31878   0.32192

 Mulliken charges:
               1
     1  C   -0.297712
     2  C   -0.307578
     3  C   -0.475119
     4  H    0.148924
     5  H    0.149153
     6  H    0.160572
     7  H    0.151230
     8  H    0.155016
     9  H    0.154972
    10  H    0.160094
    11  C   -0.302543
    12  C   -0.299508
    13  C   -0.475797
    14  H    0.156277
    15  H    0.149771
    16  H    0.151516
    17  H    0.151689
    18  H    0.155470
    19  H    0.154352
    20  H    0.160263
    21  C   -0.298162
    22  C   -0.299574
    23  C   -0.475694
    24  H    0.149013
    25  H    0.149852
    26  H    0.151834
    27  H    0.151950
    28  H    0.155254
    29  H    0.154965
    30  H    0.160204
    31  C   -0.298073
    32  C   -0.303769
    33  C   -0.479692
    34  H    0.149091
    35  H    0.149155
    36  H    0.158025
    37  H    0.152580
    38  H    0.155231
    39  H    0.155485
    40  H    0.161283
 Sum of Mulliken charges =  -0.00000

 Dipole moment (field-independent basis, Debye):
    X=              0.0013    Y=             -0.0030    Z=              0.0000  Tot=              0.0033
 Quadrupole moment (field-independent basis, Debye-Ang):
   XX=            -85.7209   YY=            -85.6855   ZZ=            -83.6503
   XY=             -0.8080   XZ=              0.0638   YZ=              0.4327

 Normal termination of Gaussian 16 at Thu May  6 08:23:56 2021.
