 Gaussian 16, Revision A.03,
 Gaussian 16:  EM64L-G16RevA.03 25-Dec-2016

 -------------
 #p 6-31g* mp2
 -------------

 ------------------------------------------------------
 Input file generated by CHIRIPA (05-May-2021 14:51:07)
 ------------------------------------------------------
 Symbolic Z-matrix:
 Charge =  0 Multiplicity = 1

                         Standard orientation:
 ---------------------------------------------------------------------
 Center     Atomic      Atomic             Coordinates (Angstroms)
 Number     Number       Type             X           Y           Z
 ---------------------------------------------------------------------
      1          6           0       -2.657534    1.362345    0.334263
      2          6           0       -1.489109    2.162491   -0.242396
      3          6           0       -1.082849    3.338948    0.645689
      4          1           0       -3.517543    2.031253    0.475295
      5          1           0       -2.382566    0.992218    1.331657
      6          1           0       -1.765686    2.529833   -1.238981
      7          1           0       -0.631842    1.491559   -0.382251
      8          1           0       -0.780915    2.986765    1.637356
      9          1           0       -1.921201    4.030938    0.775758
     10          1           0       -0.245946    3.897151    0.214572
     11          6           0       -3.075245    0.182942   -0.542237
     12          6           0       -4.243669   -0.617204    0.034422
     13          6           0       -4.649929   -1.793662   -0.853663
     14          1           0       -3.350212    0.553068   -1.539631
     15          1           0       -2.215235   -0.485967   -0.683269
     16          1           0       -5.100936    0.053727    0.174277
     17          1           0       -3.967092   -0.984546    1.031007
     18          1           0       -3.811577   -2.485651   -0.983732
     19          1           0       -4.951864   -1.441478   -1.845330
     20          1           0       -5.486832   -2.351865   -0.422546
     21          6           0        3.463454   -0.334496    0.290995
     22          6           0        4.366548   -0.001031   -0.896948
     23          6           0        5.556603    0.876144   -0.506912
     24          1           0        3.100354    0.599645    0.740974
     25          1           0        4.057558   -0.843005    1.062911
     26          1           0        3.770610    0.505463   -1.666973
     27          1           0        4.727387   -0.936077   -1.344270
     28          1           0        6.175244    0.374372    0.244159
     29          1           0        5.213031    1.824103   -0.080379
     30          1           0        6.188913    1.102355   -1.371131
     31          6           0        2.269324   -1.210790   -0.083021
     32          6           0        1.366230   -1.544256    1.104922
     33          6           0        0.176175   -2.421431    0.714887
     34          1           0        1.675220   -0.702282   -0.854938
     35          1           0        2.632424   -2.144932   -0.533002
     36          1           0        1.005391   -0.609209    1.552244
     37          1           0        1.962168   -2.050749    1.874947
     38          1           0        0.519747   -3.369390    0.288352
     39          1           0       -0.442466   -1.919659   -0.036185
     40          1           0       -0.456135   -2.647642    1.579105
 ---------------------------------------------------------------------

 SCF Done:  E(RHF) =  -470.733369896     A.U. after   11 cycles
 E2 =    -0.1583426607D+01 EUMP2 =    -0.47231679650276D+03

 The electronic state is 1-A.
 Alpha  occ. eigenvalues --  -11.21677 -11.21659 -11.21622 -11.21587 -11.21454
 Alpha  occ. eigenvalues --  -11.21418 -11.21389 -11.21351 -11.21148 -11.21124
 Alpha  occ. eigenvalues --  -11.21084 -11.21045  -1.08487  -1.08439  -1.03580
 Alpha  occ. eigenvalues --   -1.03545  -0.96040  -0.95983  -0.87060  -0.86997
 Alpha  occ. eigenvalues --   -0.79654  -0.79598  -0.78315  -0.78239  -0.65277
 Alpha  occ. eigenvalues --   -0.64937  -0.60972  -0.60945  -0.59395  -0.59363
 Alpha  occ. eigenvalues --   -0.57661  -0.57588  -0.55461  -0.55149  -0.52722
 Alpha  occ. eigenvalues --   -0.52688  -0.52492  -0.52387  -0.50113  -0.49811
 Alpha  occ. eigenvalues --   -0.47984  -0.47920  -0.46767  -0.46600  -0.45962
 Alpha  occ. eigenvalues --   -0.45791  -0.45760  -0.45465  -0.43833  -0.43799
 Alpha virt. eigenvalues --    0.19065   0.22765   0.24003   0.24515   0.25713
 Alpha virt. eigenvalues --    0.26614   0.27232   0.27935   0.27970   0.29399
 Alpha virt. eigenvalues --    0.30872   0.31609   0.31673   0.31757   0.32216

 Mulliken charges:
               1
     1  C   -0.298067
     2  C   -0.301682
     3  C   -0.475738
     4  H    0.149906
     5  H    0.149876
     6  H    0.152242
     7  H    0.152331
     8  H    0.155069
     9  H    0.155645
    10  H    0.160105
    11  C   -0.305326
    12  C   -0.299229
    13  C   -0.476203
    14  H    0.149494
    15  H    0.156199
    16  H    0.151807
    17  H    0.152303
    18  H    0.155979
    19  H    0.154951
    20  H    0.160218
    21  C   -0.298448
    22  C   -0.299741
    23  C   -0.475765
    24  H    0.149962
    25  H    0.149650
    26  H    0.152141
    27  H    0.151977
    28  H    0.155193
    29  H    0.155331
    30  H    0.160356
    31  C   -0.299682
    32  C   -0.300005
    33  C   -0.482455
    34  H    0.150268
    35  H    0.150033
    36  H    0.152083
    37  H    0.152477
    38  H    0.155936
    39  H    0.160553
    40  H    0.160257
 Sum of Mulliken charges =  -0.00000

 Dipole moment (field-independent basis, Debye):
    X=              0.0089    Y=             -0.0095    Z=              0.0017  Tot=              0.0131
 Quadrupole moment (field-independent basis, Debye-Ang):
   XX=            -84.9734   YY=            -84.8556   ZZ=            -84.8149
   XY=             -1.8341   XZ=              0.0882   YZ=             -1.0127

 Normal termination of Gaussian 16 at Thu May  6 02:04:01 2021.
