 Gaussian 16, Revision A.03,
 Gaussian 16:  EM64L-G16RevA.03 25-Dec-2016

 -------------
 #p 6-31g* mp2
 -------------

 ------------------------------------------------------
 Input file generated by CHIRIPA (05-May-2021 14:57:26)
 ------------------------------------------------------
 Symbolic Z-matrix:
 Charge =  0 Multiplicity = 1

                         Standard orientation:
 ---------------------------------------------------------------------
 Center     Atomic      Atomic             Coordinates (Angstroms)
 Number     Number       Type             X           Y           Z
 ---------------------------------------------------------------------
      1          6           0       -3.405066    1.295535    0.427791
      2          6           0       -2.844312    0.526621    1.452899
      3          6           0       -2.055425   -0.588206    1.153960
      4          6           0       -1.846922   -0.906840   -0.187043
      5          6           0       -2.391870   -0.160502   -1.230739
      6          6           0       -3.177456    0.950128   -0.908401
      7          1           0       -4.016610    2.159930    0.669102
      8          1           0       -3.019387    0.792510    2.491503
      9          1           0       -1.609180   -1.200900    1.927839
     10          1           0       -2.199540   -0.450408   -2.256596
     11          1           0       -3.611673    1.545451   -1.706582
     12          7           0       -1.013510   -2.084836   -0.515902
     13          8           0       -0.844852   -2.344570   -1.705327
     14          8           0       -0.544720   -2.726111    0.421989
     15          6           0        3.392428   -1.356161    0.453600
     16          6           0        2.324564   -1.095209    1.318521
     17          6           0        1.537618    0.048010    1.150248
     18          6           0        1.848144    0.912701    0.101833
     19          6           0        2.905418    0.680270   -0.776482
     20          6           0        3.678942   -0.469152   -0.589303
     21          1           0        3.998533   -2.246651    0.591662
     22          1           0        2.099735   -1.782309    2.129318
     23          1           0        0.705031    0.274349    1.805219
     24          1           0        3.105111    1.383778   -1.575617
     25          1           0        4.507643   -0.669262   -1.262546
     26          7           0        1.022145    2.126259   -0.086318
     27          8           0        1.316341    2.872374   -1.017660
     28          8           0        0.096170    2.308354    0.701115
 ---------------------------------------------------------------------

 SCF Done:  E(RHF) =  -868.338358211     A.U. after   16 cycles
 E2 =    -0.2605044306D+01 EUMP2 =    -0.87094340251683D+03

 The electronic state is 1-A.
 Alpha  occ. eigenvalues --  -20.60771 -20.60759 -20.60647 -20.60625 -15.85777
 Alpha  occ. eigenvalues --  -15.85663 -11.30817 -11.30749 -11.27392 -11.27295
 Alpha  occ. eigenvalues --  -11.27231 -11.27216 -11.26914 -11.26841 -11.26280
 Alpha  occ. eigenvalues --  -11.26212 -11.26206 -11.26128  -1.59825  -1.59712
 Alpha  occ. eigenvalues --   -1.39399  -1.39274  -1.18932  -1.18850  -1.08377
 Alpha  occ. eigenvalues --   -1.08272  -1.04325  -1.04188  -0.95281  -0.95190
 Alpha  occ. eigenvalues --   -0.85767  -0.85578  -0.82168  -0.82019  -0.77310
 Alpha  occ. eigenvalues --   -0.77091  -0.72040  -0.71917  -0.71244  -0.70938
 Alpha  occ. eigenvalues --   -0.70126  -0.69884  -0.64600  -0.64505  -0.64345
 Alpha  occ. eigenvalues --   -0.64175  -0.61794  -0.61492  -0.54793  -0.54682
 Alpha  occ. eigenvalues --   -0.52688  -0.52541  -0.52427  -0.52176  -0.48817
 Alpha  occ. eigenvalues --   -0.48745  -0.48673  -0.48631  -0.44910  -0.44688
 Alpha  occ. eigenvalues --   -0.37152  -0.36435  -0.35924  -0.35570
 Alpha virt. eigenvalues --    0.05142   0.05435   0.11356   0.12310   0.16752
 Alpha virt. eigenvalues --    0.17091   0.21242   0.22405   0.26598   0.28127
 Alpha virt. eigenvalues --    0.28648   0.29687   0.31307   0.31781   0.32669

 Mulliken charges:
               1
     1  C   -0.158845
     2  C   -0.204729
     3  C   -0.179516
     4  C    0.159204
     5  C   -0.173609
     6  C   -0.212358
     7  H    0.227216
     8  H    0.221673
     9  H    0.264782
    10  H    0.273873
    11  H    0.224585
    12  N    0.490248
    13  O   -0.460096
    14  O   -0.469086
    15  C   -0.168762
    16  C   -0.200732
    17  C   -0.179206
    18  C    0.155221
    19  C   -0.171706
    20  C   -0.216286
    21  H    0.227017
    22  H    0.226924
    23  H    0.268166
    24  H    0.272865
    25  H    0.222683
    26  N    0.489100
    27  O   -0.463127
    28  O   -0.465498
 Sum of Mulliken charges =  -0.00000

 Dipole moment (field-independent basis, Debye):
    X=             -0.1351    Y=             -0.0598    Z=              1.7862  Tot=              1.7923
 Quadrupole moment (field-independent basis, Debye-Ang):
   XX=            -81.7338   YY=           -121.1734   ZZ=            -97.6920
   XY=            -11.1463   XZ=             -1.7442   YZ=             -3.8058

 Normal termination of Gaussian 16 at Thu May  6 16:30:45 2021.
