 Gaussian 16, Revision A.03,
 Gaussian 16:  EM64L-G16RevA.03 25-Dec-2016

 -------------
 #p 6-31g* mp2
 -------------

 ------------------------------------------------------
 Input file generated by CHIRIPA (05-May-2021 14:53:11)
 ------------------------------------------------------
 Symbolic Z-matrix:
 Charge =  0 Multiplicity = 1

                         Standard orientation:
 ---------------------------------------------------------------------
 Center     Atomic      Atomic             Coordinates (Angstroms)
 Number     Number       Type             X           Y           Z
 ---------------------------------------------------------------------
      1          6           0       -3.393257   -0.515715   -0.215387
      2          6           0       -3.775334   -1.597362    0.795574
      3          6           0       -3.333172   -2.995109    0.361304
      4          1           0       -3.841517   -0.757751   -1.188746
      5          1           0       -2.304211   -0.528050   -0.361067
      6          1           0       -4.863187   -1.582068    0.940344
      7          1           0       -3.326271   -1.352621    1.766687
      8          1           0       -2.246305   -3.033597    0.235456
      9          1           0       -3.791953   -3.264348   -0.595583
     10          1           0       -3.616389   -3.752893    1.098469
     11          6           0       -3.828540    0.887064    0.204693
     12          6           0       -3.446463    1.968711   -0.806268
     13          6           0       -3.888625    3.366458   -0.371998
     14          1           0       -4.917586    0.899400    0.350372
     15          1           0       -3.380280    1.129101    1.178051
     16          1           0       -3.895526    1.723971   -1.777381
     17          1           0       -2.358610    1.953418   -0.951038
     18          1           0       -3.429844    3.635697    0.584888
     19          1           0       -4.975493    3.404947   -0.246150
     20          1           0       -3.605408    4.124242   -1.109163
     21          6           0        4.642756    1.559224    0.381805
     22          6           0        3.347758    1.803252    0.850797
     23          6           0        2.330535    0.866038    0.647245
     24          6           0        2.644895   -0.309822   -0.032331
     25          6           0        3.925334   -0.581893   -0.511647
     26          6           0        4.926910    0.369528   -0.296723
     27          1           0        5.426882    2.292793    0.544347
     28          1           0        3.124190    2.726310    1.378078
     29          1           0        1.319344    1.029419    0.999690
     30          1           0        4.117741   -1.511266   -1.033817
     31          1           0        5.931716    0.177337   -0.662062
     32          7           0        1.576289   -1.309529   -0.253841
     33          8           0        1.878954   -2.337676   -0.855459
     34          8           0        0.456284   -1.046023    0.178350
 ---------------------------------------------------------------------

 SCF Done:  E(RHF) =  -669.536562649     A.U. after   15 cycles
 E2 =    -0.2091326202D+01 EUMP2 =    -0.67162788885070D+03

 The electronic state is 1-A.
 Alpha  occ. eigenvalues --  -20.61077 -20.61072 -15.86100 -11.31372 -11.27930
 Alpha  occ. eigenvalues --  -11.27923 -11.27656 -11.26924 -11.26914 -11.21005
 Alpha  occ. eigenvalues --  -11.20694 -11.20543 -11.20370 -11.20025 -11.19610
 Alpha  occ. eigenvalues --   -1.60127  -1.39686  -1.19534  -1.08947  -1.07441
 Alpha  occ. eigenvalues --   -1.04923  -1.02575  -0.95798  -0.95019  -0.86326
 Alpha  occ. eigenvalues --   -0.86037  -0.82636  -0.78697  -0.77699  -0.77174
 Alpha  occ. eigenvalues --   -0.72327  -0.71434  -0.70643  -0.65195  -0.64926
 Alpha  occ. eigenvalues --   -0.64061  -0.62272  -0.59965  -0.58452  -0.56620
 Alpha  occ. eigenvalues --   -0.55429  -0.54294  -0.53257  -0.53015  -0.51770
 Alpha  occ. eigenvalues --   -0.51433  -0.49102  -0.49085  -0.48925  -0.46993
 Alpha  occ. eigenvalues --   -0.45738  -0.45177  -0.44758  -0.44449  -0.42809
 Alpha  occ. eigenvalues --   -0.37509  -0.36522
 Alpha virt. eigenvalues --    0.04816   0.11133   0.16308   0.21189   0.23666
 Alpha virt. eigenvalues --    0.25289   0.27008   0.27436   0.28073   0.28811
 Alpha virt. eigenvalues --    0.28997   0.30965   0.32271   0.32387   0.32616

 Mulliken charges:
               1
     1  C   -0.310127
     2  C   -0.295759
     3  C   -0.481792
     4  H    0.144609
     5  H    0.176466
     6  H    0.144702
     7  H    0.149915
     8  H    0.176170
     9  H    0.150088
    10  H    0.153421
    11  C   -0.296605
    12  C   -0.298648
    13  C   -0.474789
    14  H    0.145937
    15  H    0.145848
    16  H    0.151645
    17  H    0.150513
    18  H    0.151513
    19  H    0.154954
    20  H    0.157110
    21  C   -0.170429
    22  C   -0.218482
    23  C   -0.170615
    24  C    0.157586
    25  C   -0.170429
    26  C   -0.218573
    27  H    0.226340
    28  H    0.224206
    29  H    0.275350
    30  H    0.276076
    31  H    0.224120
    32  N    0.493304
    33  O   -0.457789
    34  O   -0.465837
 Sum of Mulliken charges =  -0.00000

 Dipole moment (field-independent basis, Debye):
    X=              4.1803    Y=              3.4140    Z=              0.7326  Tot=              5.4467
 Quadrupole moment (field-independent basis, Debye-Ang):
   XX=            -73.5637   YY=            -97.2232   ZZ=            -94.3323
   XY=              6.5580   XZ=              0.8048   YZ=              1.3658

 Normal termination of Gaussian 16 at Thu May  6 05:40:01 2021.
