 Gaussian 16, Revision A.03,
 Gaussian 16:  EM64L-G16RevA.03 25-Dec-2016

 -------------
 #p 6-31g* mp2
 -------------

 ------------------------------------------------------
 Input file generated by CHIRIPA (05-May-2021 14:55:25)
 ------------------------------------------------------
 Symbolic Z-matrix:
 Charge =  0 Multiplicity = 1

                         Standard orientation:
 ---------------------------------------------------------------------
 Center     Atomic      Atomic             Coordinates (Angstroms)
 Number     Number       Type             X           Y           Z
 ---------------------------------------------------------------------
      1          6           0        2.959349   -2.120368    0.649123
      2          6           0        1.887817   -1.405474    1.194346
      3          6           0        1.745190   -0.037762    0.942219
      4          6           0        2.696766    0.586093    0.136863
      5          6           0        3.775315   -0.098778   -0.420787
      6          6           0        3.898023   -1.465891   -0.155286
      7          1           0        3.062408   -3.182607    0.850176
      8          1           0        1.157318   -1.911140    1.819421
      9          1           0        0.925313    0.539857    1.351580
     10          1           0        4.487577    0.432793   -1.040088
     11          1           0        4.731202   -2.018553   -0.580048
     12          7           0        2.556317    2.033712   -0.137132
     13          8           0        3.408110    2.560113   -0.849864
     14          8           0        1.597099    2.614544    0.366030
     15          6           0       -3.047387   -1.050647   -0.065807
     16          6           0       -1.926061   -1.290771   -1.077218
     17          6           0       -1.066285   -2.506261   -0.729131
     18          1           0       -2.609442   -0.917873    0.932953
     19          1           0       -3.681597   -1.946373   -0.012452
     20          1           0       -1.294964   -0.394345   -1.129665
     21          1           0       -2.366715   -1.422800   -2.073716
     22          1           0       -1.677641   -3.413875   -0.696230
     23          1           0       -0.599801   -2.379578    0.253184
     24          1           0       -0.270919   -2.659459   -1.465190
     25          6           0       -3.915591    0.161027   -0.400167
     26          6           0       -5.036917    0.401151    0.611245
     27          6           0       -5.896693    1.616641    0.263159
     28          1           0       -3.281382    1.056753   -0.453521
     29          1           0       -4.353536    0.028251   -1.398926
     30          1           0       -4.596264    0.533179    1.607744
     31          1           0       -5.668014   -0.495276    0.663693
     32          1           0       -6.363177    1.489957   -0.719157
     33          1           0       -5.285338    2.524255    0.230258
     34          1           0       -6.692059    1.769838    0.999218
 ---------------------------------------------------------------------

 SCF Done:  E(RHF) =  -669.534590189     A.U. after   15 cycles
 E2 =    -0.2092558773D+01 EUMP2 =    -0.67162714896226D+03

 The electronic state is 1-A.
 Alpha  occ. eigenvalues --  -20.60811 -20.60804 -15.85864 -11.31234 -11.27793
 Alpha  occ. eigenvalues --  -11.27778 -11.27515 -11.26815 -11.26804 -11.21839
 Alpha  occ. eigenvalues --  -11.21639 -11.21631 -11.21461 -11.21420 -11.21014
 Alpha  occ. eigenvalues --   -1.59885  -1.39439  -1.19401  -1.08796  -1.08583
 Alpha  occ. eigenvalues --   -1.04815  -1.03684  -0.96150  -0.95627  -0.87180
 Alpha  occ. eigenvalues --   -0.86200  -0.82468  -0.79758  -0.78383  -0.77517
 Alpha  occ. eigenvalues --   -0.72081  -0.71208  -0.70497  -0.65248  -0.65050
 Alpha  occ. eigenvalues --   -0.64830  -0.62207  -0.61063  -0.59516  -0.57748
 Alpha  occ. eigenvalues --   -0.55536  -0.55270  -0.53161  -0.52960  -0.52779
 Alpha  occ. eigenvalues --   -0.52509  -0.50064  -0.48841  -0.48836  -0.48067
 Alpha  occ. eigenvalues --   -0.46785  -0.45937  -0.45833  -0.44844  -0.43938
 Alpha  occ. eigenvalues --   -0.37352  -0.36348
 Alpha virt. eigenvalues --    0.05006   0.11186   0.16426   0.20360   0.22867
 Alpha virt. eigenvalues --    0.24159   0.25780   0.26772   0.27513   0.28497
 Alpha virt. eigenvalues --    0.28582   0.30331   0.31471   0.31726   0.32433

 Mulliken charges:
               1
     1  C   -0.171485
     2  C   -0.213837
     3  C   -0.171352
     4  C    0.158503
     5  C   -0.171129
     6  C   -0.218541
     7  H    0.226207
     8  H    0.223572
     9  H    0.275168
    10  H    0.275654
    11  H    0.223666
    12  N    0.488125
    13  O   -0.460074
    14  O   -0.460879
    15  C   -0.297065
    16  C   -0.302037
    17  C   -0.473463
    18  H    0.143314
    19  H    0.149359
    20  H    0.155841
    21  H    0.154290
    22  H    0.153813
    23  H    0.145378
    24  H    0.161655
    25  C   -0.299802
    26  C   -0.299555
    27  C   -0.476244
    28  H    0.154811
    29  H    0.150522
    30  H    0.151166
    31  H    0.150839
    32  H    0.155283
    33  H    0.158172
    34  H    0.160126
 Sum of Mulliken charges =  -0.00000

 Dipole moment (field-independent basis, Debye):
    X=              0.5067    Y=             -5.0456    Z=              0.8999  Tot=              5.1502
 Quadrupole moment (field-independent basis, Debye-Ang):
   XX=            -88.7544   YY=           -101.8913   ZZ=            -93.2299
   XY=            -13.1266   XZ=              0.4203   YZ=              0.3709

 Normal termination of Gaussian 16 at Thu May  6 14:22:31 2021.
