 Gaussian 16, Revision A.03,
 Gaussian 16:  EM64L-G16RevA.03 25-Dec-2016

 -------------
 #p 6-31g* mp2
 -------------

 ------------------------------------------------------
 Input file generated by CHIRIPA (05-May-2021 14:57:22)
 ------------------------------------------------------
 Symbolic Z-matrix:
 Charge =  0 Multiplicity = 1

                         Standard orientation:
 ---------------------------------------------------------------------
 Center     Atomic      Atomic             Coordinates (Angstroms)
 Number     Number       Type             X           Y           Z
 ---------------------------------------------------------------------
      1          6           0       -1.154900   -0.731585    1.323704
      2          6           0       -1.976402    0.286245    1.819363
      3          6           0       -3.152559    0.638354    1.150616
      4          6           0       -3.478230   -0.051257   -0.016288
      5          6           0       -2.680440   -1.069844   -0.535231
      6          6           0       -1.508916   -1.405193    0.150058
      7          1           0       -0.243032   -0.998601    1.849628
      8          1           0       -1.703970    0.811087    2.730607
      9          1           0       -3.806799    1.422353    1.512187
     10          1           0       -2.978372   -1.575025   -1.445971
     11          1           0       -0.872840   -2.196069   -0.237200
     12          7           0       -4.720922    0.312633   -0.733017
     13          8           0       -4.985587   -0.310118   -1.759063
     14          8           0       -5.406749    1.213712   -0.255172
     15          6           0        3.388467    2.626207   -0.267920
     16          6           0        2.730690    2.025248    0.810366
     17          6           0        2.660743    0.632697    0.912619
     18          6           0        3.262297   -0.131908   -0.085781
     19          6           0        3.924862    0.437190   -1.172255
     20          6           0        3.982406    1.831660   -1.254050
     21          1           0        3.437987    3.708720   -0.339406
     22          1           0        2.268524    2.639804    1.577679
     23          1           0        2.157872    0.141292    1.736670
     24          1           0        4.376024   -0.201764   -1.921660
     25          1           0        4.493911    2.295630   -2.092584
     26          7           0        3.194812   -1.607155    0.011641
     27          8           0        3.732844   -2.258540   -0.881027
     28          8           0        2.605162   -2.084135    0.978823
 ---------------------------------------------------------------------

 SCF Done:  E(RHF) =  -868.339032280     A.U. after   16 cycles
 E2 =    -0.2599825765D+01 EUMP2 =    -0.87093885804521D+03

 The electronic state is 1-A.
 Alpha  occ. eigenvalues --  -20.61866 -20.61803 -20.60667 -20.60656 -15.86861
 Alpha  occ. eigenvalues --  -15.85715 -11.32016 -11.31027 -11.28639 -11.28504
 Alpha  occ. eigenvalues --  -11.28208 -11.27633 -11.27537 -11.27536 -11.27463
 Alpha  occ. eigenvalues --  -11.27237 -11.26652 -11.26451  -1.60896  -1.59741
 Alpha  occ. eigenvalues --   -1.40461  -1.39296  -1.20157  -1.19185  -1.09580
 Alpha  occ. eigenvalues --   -1.08577  -1.05535  -1.04578  -0.96459  -0.95424
 Alpha  occ. eigenvalues --   -0.86944  -0.85967  -0.83304  -0.82260  -0.78397
 Alpha  occ. eigenvalues --   -0.77325  -0.73088  -0.72212  -0.71932  -0.71279
 Alpha  occ. eigenvalues --   -0.71065  -0.70242  -0.65814  -0.65534  -0.64827
 Alpha  occ. eigenvalues --   -0.64560  -0.62907  -0.61920  -0.56024  -0.55035
 Alpha  occ. eigenvalues --   -0.53857  -0.53611  -0.52909  -0.52652  -0.49859
 Alpha  occ. eigenvalues --   -0.49807  -0.48692  -0.48685  -0.45904  -0.44714
 Alpha  occ. eigenvalues --   -0.38103  -0.37307  -0.36952  -0.36192
 Alpha virt. eigenvalues --    0.04094   0.05202   0.10509   0.11459   0.15665
 Alpha virt. eigenvalues --    0.16678   0.19720   0.21935   0.25576   0.26993
 Alpha virt. eigenvalues --    0.27588   0.28998   0.30356   0.31012   0.32684

 Mulliken charges:
               1
     1  C   -0.178925
     2  C   -0.220460
     3  C   -0.171575
     4  C    0.158176
     5  C   -0.171519
     6  C   -0.221969
     7  H    0.236590
     8  H    0.218025
     9  H    0.273635
    10  H    0.275989
    11  H    0.233955
    12  N    0.488047
    13  O   -0.460155
    14  O   -0.462042
    15  C   -0.169330
    16  C   -0.217165
    17  C   -0.169719
    18  C    0.158131
    19  C   -0.169950
    20  C   -0.217799
    21  H    0.229087
    22  H    0.223828
    23  H    0.267555
    24  H    0.277452
    25  H    0.226870
    26  N    0.488633
    27  O   -0.454254
    28  O   -0.471109
 Sum of Mulliken charges =  -0.00000

 Dipole moment (field-independent basis, Debye):
    X=              4.9233    Y=              3.9315    Z=              1.9617  Tot=              6.5988
 Quadrupole moment (field-independent basis, Debye-Ang):
   XX=           -133.1877   YY=           -104.0775   ZZ=            -99.5625
   XY=             20.9102   XZ=            -13.7673   YZ=              2.6478

 Normal termination of Gaussian 16 at Thu May  6 16:12:01 2021.
