 Gaussian 16, Revision A.03,
 Gaussian 16:  EM64L-G16RevA.03 25-Dec-2016

 -------------
 #p 6-31g* mp2
 -------------

 ------------------------------------------------------
 Input file generated by CHIRIPA (05-May-2021 14:55:25)
 ------------------------------------------------------
 Symbolic Z-matrix:
 Charge =  0 Multiplicity = 1

                         Standard orientation:
 ---------------------------------------------------------------------
 Center     Atomic      Atomic             Coordinates (Angstroms)
 Number     Number       Type             X           Y           Z
 ---------------------------------------------------------------------
      1          6           0        3.856067    2.400274   -0.190689
      2          6           0        4.362070    1.390192   -1.015442
      3          6           0        3.973106    0.060277   -0.829478
      4          6           0        3.072396   -0.225183    0.195473
      5          6           0        2.550635    0.758912    1.033693
      6          6           0        2.953556    2.081972    0.829447
      7          1           0        4.163645    3.430721   -0.342252
      8          1           0        5.063112    1.634460   -1.808485
      9          1           0        4.349290   -0.741349   -1.453416
     10          1           0        1.853279    0.484547    1.815892
     11          1           0        2.558959    2.864355    1.471486
     12          7           0        2.653229   -1.629476    0.402022
     13          8           0        1.858456   -1.854907    1.312051
     14          8           0        3.127397   -2.478138   -0.350025
     15          6           0       -3.287385    0.085298   -0.015857
     16          6           0       -2.325418   -0.710828   -0.898347
     17          6           0       -0.861270   -0.513819   -0.504328
     18          1           0       -3.030833    1.151943   -0.074136
     19          1           0       -3.145276   -0.213568    1.031940
     20          1           0       -2.470266   -0.411545   -1.944323
     21          1           0       -2.584408   -1.775680   -0.838111
     22          1           0       -0.694812   -0.830504    0.530371
     23          1           0       -0.580021    0.541381   -0.582127
     24          1           0       -0.191003   -1.091925   -1.148064
     25          6           0       -4.754803   -0.101326   -0.397408
     26          6           0       -5.716769    0.694800    0.485083
     27          6           0       -7.180918    0.497791    0.091063
     28          1           0       -4.896911    0.197540   -1.445206
     29          1           0       -5.011353   -1.167971   -0.339129
     30          1           0       -5.457778    1.759653    0.424846
     31          1           0       -5.571922    0.395518    1.531058
     32          1           0       -7.462167   -0.557409    0.168862
     33          1           0       -7.347375    0.814477   -0.943637
     34          1           0       -7.851185    1.075897    0.734799
 ---------------------------------------------------------------------

 SCF Done:  E(RHF) =  -669.535847558     A.U. after   15 cycles
 E2 =    -0.2092154062D+01 EUMP2 =    -0.67162800162020D+03

 The electronic state is 1-A.
 Alpha  occ. eigenvalues --  -20.60809 -20.60803 -15.85834 -11.31169 -11.27744
 Alpha  occ. eigenvalues --  -11.27738 -11.27491 -11.26758 -11.26748 -11.21440
 Alpha  occ. eigenvalues --  -11.21179 -11.21152 -11.21078 -11.20932 -11.20485
 Alpha  occ. eigenvalues --   -1.59865  -1.39424  -1.19345  -1.08748  -1.08152
 Alpha  occ. eigenvalues --   -1.04748  -1.03219  -0.95682  -0.95579  -0.86700
 Alpha  occ. eigenvalues --   -0.86144  -0.82428  -0.79306  -0.77976  -0.77469
 Alpha  occ. eigenvalues --   -0.72072  -0.71175  -0.70462  -0.65007  -0.64781
 Alpha  occ. eigenvalues --   -0.64754  -0.62099  -0.60605  -0.59050  -0.57283
 Alpha  occ. eigenvalues --   -0.55258  -0.54952  -0.53089  -0.52847  -0.52355
 Alpha  occ. eigenvalues --   -0.52091  -0.49621  -0.48825  -0.48818  -0.47613
 Alpha  occ. eigenvalues --   -0.46346  -0.45538  -0.45452  -0.44697  -0.43474
 Alpha  occ. eigenvalues --   -0.37315  -0.36337
 Alpha virt. eigenvalues --    0.05033   0.11275   0.16509   0.21347   0.23145
 Alpha virt. eigenvalues --    0.24570   0.26807   0.27096   0.27723   0.27851
 Alpha virt. eigenvalues --    0.28793   0.30708   0.31649   0.31923   0.32071

 Mulliken charges:
               1
     1  C   -0.170614
     2  C   -0.218680
     3  C   -0.171185
     4  C    0.159476
     5  C   -0.168136
     6  C   -0.219690
     7  H    0.225465
     8  H    0.223296
     9  H    0.275420
    10  H    0.275727
    11  H    0.223399
    12  N    0.489509
    13  O   -0.459085
    14  O   -0.460338
    15  C   -0.298252
    16  C   -0.299847
    17  C   -0.483858
    18  H    0.145660
    19  H    0.150395
    20  H    0.148954
    21  H    0.155597
    22  H    0.170987
    23  H    0.146397
    24  H    0.160674
    25  C   -0.298050
    26  C   -0.299366
    27  C   -0.475555
    28  H    0.148647
    29  H    0.151021
    30  H    0.150110
    31  H    0.152056
    32  H    0.155832
    33  H    0.154676
    34  H    0.159360
 Sum of Mulliken charges =  -0.00000

 Dipole moment (field-independent basis, Debye):
    X=              1.5694    Y=              4.8458    Z=             -0.6640  Tot=              5.1367
 Quadrupole moment (field-independent basis, Debye-Ang):
   XX=            -86.0378   YY=            -96.4832   ZZ=            -92.1765
   XY=             14.3534   XZ=             -4.8786   YZ=              1.8610

 Normal termination of Gaussian 16 at Thu May  6 14:23:48 2021.
