 Gaussian 16, Revision A.03,
 Gaussian 16:  EM64L-G16RevA.03 25-Dec-2016

 -------------
 #p 6-31g* mp2
 -------------

 ------------------------------------------------------
 Input file generated by CHIRIPA (05-May-2021 14:53:13)
 ------------------------------------------------------
 Symbolic Z-matrix:
 Charge =  0 Multiplicity = 1

                         Standard orientation:
 ---------------------------------------------------------------------
 Center     Atomic      Atomic             Coordinates (Angstroms)
 Number     Number       Type             X           Y           Z
 ---------------------------------------------------------------------
      1          6           0       -3.708671   -0.587282    0.413076
      2          6           0       -4.275519   -1.328539   -0.798207
      3          6           0       -4.748782   -2.742059   -0.457947
      4          1           0       -2.872478   -1.165006    0.830161
      5          1           0       -4.476995   -0.538920    1.197126
      6          1           0       -3.506813   -1.374277   -1.580265
      7          1           0       -5.110337   -0.748888   -1.212573
      8          1           0       -5.533690   -2.712382    0.304707
      9          1           0       -3.921054   -3.341325   -0.065075
     10          1           0       -5.150211   -3.253806   -1.338191
     11          6           0       -3.231358    0.827204    0.088836
     12          6           0       -2.664510    1.568461    1.300119
     13          6           0       -2.191247    2.981981    0.959859
     14          1           0       -2.463034    0.778842   -0.695214
     15          1           0       -4.067551    1.404928   -0.328249
     16          1           0       -1.829692    0.988810    1.714485
     17          1           0       -3.433216    1.614199    2.082177
     18          1           0       -3.018975    3.581247    0.566987
     19          1           0       -1.406339    2.952305    0.197205
     20          1           0       -1.789818    3.493728    1.840103
     21          6           0        4.409868   -1.648352    0.834822
     22          6           0        4.813116   -0.410011    0.324504
     23          6           0        3.880437    0.459384   -0.248914
     24          6           0        2.546704    0.056576   -0.295722
     25          6           0        2.113915   -1.170660    0.204153
     26          6           0        3.063927   -2.024061    0.773126
     27          1           0        5.141128   -2.317507    1.278541
     28          1           0        5.857720   -0.115596    0.371062
     29          1           0        4.165245    1.423849   -0.651545
     30          1           0        1.065526   -1.436393    0.143453
     31          1           0        2.747890   -2.985167    1.168653
     32          7           0        1.550143    0.968500   -0.900420
     33          8           0        0.381096    0.590195   -0.929594
     34          8           0        1.956956    2.044306   -1.333761
 ---------------------------------------------------------------------

 SCF Done:  E(RHF) =  -669.536634732     A.U. after   15 cycles
 E2 =    -0.2091745638D+01 EUMP2 =    -0.67162838036966D+03

 The electronic state is 1-A.
 Alpha  occ. eigenvalues --  -20.61094 -20.61088 -15.86115 -11.31377 -11.27935
 Alpha  occ. eigenvalues --  -11.27928 -11.27659 -11.26926 -11.26917 -11.20907
 Alpha  occ. eigenvalues --  -11.20617 -11.20550 -11.20451 -11.20039 -11.19726
 Alpha  occ. eigenvalues --   -1.60143  -1.39701  -1.19539  -1.08954  -1.07433
 Alpha  occ. eigenvalues --   -1.04926  -1.02580  -0.95805  -0.95030  -0.86330
 Alpha  occ. eigenvalues --   -0.86048  -0.82644  -0.78689  -0.77706  -0.77200
 Alpha  occ. eigenvalues --   -0.72346  -0.71449  -0.70648  -0.65203  -0.64929
 Alpha  occ. eigenvalues --   -0.64034  -0.62275  -0.59962  -0.58444  -0.56643
 Alpha  occ. eigenvalues --   -0.55433  -0.54303  -0.53259  -0.53018  -0.51776
 Alpha  occ. eigenvalues --   -0.51451  -0.49128  -0.49094  -0.48925  -0.46998
 Alpha  occ. eigenvalues --   -0.45719  -0.45140  -0.44778  -0.44526  -0.42818
 Alpha  occ. eigenvalues --   -0.37513  -0.36524
 Alpha virt. eigenvalues --    0.04802   0.11130   0.16299   0.21087   0.23561
 Alpha virt. eigenvalues --    0.25268   0.26695   0.27427   0.28503   0.28563
 Alpha virt. eigenvalues --    0.29027   0.31012   0.32208   0.32522   0.32667

 Mulliken charges:
               1
     1  C   -0.295452
     2  C   -0.299865
     3  C   -0.474469
     4  H    0.143052
     5  H    0.145146
     6  H    0.154973
     7  H    0.151361
     8  H    0.153799
     9  H    0.150690
    10  H    0.158361
    11  C   -0.307854
    12  C   -0.293737
    13  C   -0.482323
    14  H    0.177213
    15  H    0.144281
    16  H    0.147502
    17  H    0.144156
    18  H    0.150377
    19  H    0.175089
    20  H    0.152499
    21  C   -0.170372
    22  C   -0.218602
    23  C   -0.170303
    24  C    0.157708
    25  C   -0.170666
    26  C   -0.218494
    27  H    0.226378
    28  H    0.224150
    29  H    0.276104
    30  H    0.275421
    31  H    0.224241
    32  N    0.494183
    33  O   -0.466570
    34  O   -0.457977
 Sum of Mulliken charges =  -0.00000

 Dipole moment (field-independent basis, Debye):
    X=              3.8817    Y=             -3.1559    Z=              1.9255  Tot=              5.3605
 Quadrupole moment (field-independent basis, Debye-Ang):
   XX=            -74.6716   YY=            -94.6484   ZZ=            -96.9409
   XY=             -6.2390   XZ=              4.1539   YZ=              0.0482

 Normal termination of Gaussian 16 at Wed May  5 20:11:45 2021.
