 Gaussian 16, Revision A.03,
 Gaussian 16:  EM64L-G16RevA.03 25-Dec-2016

 -------------
 #p 6-31g* mp2
 -------------

 ------------------------------------------------------
 Input file generated by CHIRIPA (05-May-2021 14:55:23)
 ------------------------------------------------------
 Symbolic Z-matrix:
 Charge =  0 Multiplicity = 1

                         Standard orientation:
 ---------------------------------------------------------------------
 Center     Atomic      Atomic             Coordinates (Angstroms)
 Number     Number       Type             X           Y           Z
 ---------------------------------------------------------------------
      1          6           0        4.455655    2.250448   -0.166418
      2          6           0        3.730478    1.986959    1.000293
      3          6           0        3.024587    0.788564    1.142122
      4          6           0        3.065843   -0.128117    0.092701
      5          6           0        3.779151    0.105371   -1.082018
      6          6           0        4.477638    1.310470   -1.202024
      7          1           0        5.001132    3.183993   -0.268118
      8          1           0        3.711616    2.715123    1.806187
      9          1           0        2.455059    0.558964    2.034500
     10          1           0        3.779092   -0.639836   -1.868202
     11          1           0        5.039968    1.512413   -2.109244
     12          7           0        2.322467   -1.400352    0.231297
     13          8           0        2.374737   -2.191624   -0.707742
     14          8           0        1.701615   -1.582169    1.276344
     15          6           0       -4.791734    0.142996    0.041836
     16          6           0       -4.989125    1.622993   -0.287756
     17          6           0       -6.415858    2.103094   -0.019931
     18          1           0       -5.498492   -0.455208   -0.549425
     19          1           0       -5.044822   -0.027320    1.097456
     20          1           0       -4.734413    1.790723   -1.342082
     21          1           0       -4.281684    2.217731    0.304216
     22          1           0       -6.677481    1.964505    1.034083
     23          1           0       -7.132784    1.535071   -0.621570
     24          1           0       -6.534692    3.163739   -0.262357
     25          6           0       -3.370468   -0.351796   -0.220674
     26          6           0       -3.173078   -1.831794    0.108917
     27          6           0       -1.746345   -2.311895   -0.158906
     28          1           0       -3.117381   -0.181481   -1.276294
     29          1           0       -2.663711    0.246408    0.370587
     30          1           0       -3.880519   -2.426531   -0.483055
     31          1           0       -3.427789   -1.999524    1.163244
     32          1           0       -1.029419   -1.743871    0.442732
     33          1           0       -1.484721   -2.173305   -1.212921
     34          1           0       -1.627510   -3.372540    0.083519
 ---------------------------------------------------------------------

 SCF Done:  E(RHF) =  -669.536083367     A.U. after   15 cycles
 E2 =    -0.2091051741D+01 EUMP2 =    -0.67162713510797D+03

 The electronic state is 1-A.
 Alpha  occ. eigenvalues --  -20.60903 -20.60894 -15.85925 -11.31268 -11.27834
 Alpha  occ. eigenvalues --  -11.27828 -11.27573 -11.26844 -11.26834 -11.21252
 Alpha  occ. eigenvalues --  -11.20876 -11.20797 -11.20702 -11.20598 -11.19560
 Alpha  occ. eigenvalues --   -1.59952  -1.39510  -1.19436  -1.08836  -1.07799
 Alpha  occ. eigenvalues --   -1.04836  -1.02795  -0.95677  -0.95210  -0.86238
 Alpha  occ. eigenvalues --   -0.86217  -0.82510  -0.78890  -0.77581  -0.77561
 Alpha  occ. eigenvalues --   -0.72146  -0.71267  -0.70546  -0.65092  -0.64839
 Alpha  occ. eigenvalues --   -0.64438  -0.62184  -0.60194  -0.58658  -0.56824
 Alpha  occ. eigenvalues --   -0.55341  -0.54499  -0.53167  -0.52928  -0.51875
 Alpha  occ. eigenvalues --   -0.51642  -0.49245  -0.48902  -0.48829  -0.47177
 Alpha  occ. eigenvalues --   -0.45971  -0.45165  -0.45078  -0.44737  -0.43052
 Alpha  occ. eigenvalues --   -0.37414  -0.36438
 Alpha virt. eigenvalues --    0.04937   0.11217   0.16417   0.21349   0.23443
 Alpha virt. eigenvalues --    0.25116   0.27236   0.27272   0.28044   0.28219
 Alpha virt. eigenvalues --    0.28898   0.30893   0.32145   0.32341   0.32525

 Mulliken charges:
               1
     1  C   -0.170622
     2  C   -0.218503
     3  C   -0.170923
     4  C    0.158872
     5  C   -0.170775
     6  C   -0.218544
     7  H    0.225906
     8  H    0.223692
     9  H    0.275465
    10  H    0.275867
    11  H    0.223749
    12  N    0.488398
    13  O   -0.458069
    14  O   -0.459760
    15  C   -0.297518
    16  C   -0.298836
    17  C   -0.475264
    18  H    0.148977
    19  H    0.148850
    20  H    0.150784
    21  H    0.149965
    22  H    0.154769
    23  H    0.155044
    24  H    0.158255
    25  C   -0.297167
    26  C   -0.300387
    27  C   -0.478319
    28  H    0.147367
    29  H    0.147548
    30  H    0.147841
    31  H    0.149943
    32  H    0.169915
    33  H    0.151038
    34  H    0.162444
 Sum of Mulliken charges =  -0.00000

 Dipole moment (field-independent basis, Debye):
    X=              2.9030    Y=              4.4165    Z=             -0.4598  Tot=              5.3051
 Quadrupole moment (field-independent basis, Debye-Ang):
   XX=            -80.6675   YY=            -96.2891   ZZ=            -89.9850
   XY=             13.8212   XZ=             -2.6835   YZ=              2.0938

 Normal termination of Gaussian 16 at Thu May  6 07:53:18 2021.
