 Gaussian 16, Revision A.03,
 Gaussian 16:  EM64L-G16RevA.03 25-Dec-2016

 -------------
 #p 6-31g* mp2
 -------------

 ------------------------------------------------------
 Input file generated by CHIRIPA (05-May-2021 14:55:21)
 ------------------------------------------------------
 Symbolic Z-matrix:
 Charge =  0 Multiplicity = 1

                         Standard orientation:
 ---------------------------------------------------------------------
 Center     Atomic      Atomic             Coordinates (Angstroms)
 Number     Number       Type             X           Y           Z
 ---------------------------------------------------------------------
      1          6           0        0.354296   -0.521943    1.376305
      2          6           0        1.257777    0.464405    1.785403
      3          6           0        2.491285    0.607775    1.143179
      4          6           0        2.790089   -0.256203    0.090777
      5          6           0        1.911051   -1.248681   -0.339999
      6          6           0        0.683236   -1.373836    0.316779
      7          1           0       -0.601711   -0.626242    1.880853
      8          1           0        1.004993    1.127403    2.607946
      9          1           0        3.209367    1.362764    1.439432
     10          1           0        2.191230   -1.894762   -1.163101
     11          1           0       -0.016466   -2.140749   -0.003076
     12          7           0        4.092935   -0.114065   -0.596820
     13          8           0        4.332381   -0.887750   -1.521327
     14          8           0        4.849990    0.768336   -0.198231
     15          6           0       -2.947248    0.966336    0.040935
     16          6           0       -2.925400    2.178097   -0.891342
     17          6           0       -2.223392    3.387336   -0.272697
     18          1           0       -3.447873    1.242439    0.979064
     19          1           0       -1.915202    0.696923    0.304930
     20          1           0       -3.957122    2.444291   -1.154607
     21          1           0       -2.424939    1.899021   -1.827436
     22          1           0       -1.184624    3.145138   -0.025912
     23          1           0       -2.725512    3.693506    0.650740
     24          1           0       -2.219274    4.242198   -0.956110
     25          6           0       -3.645685   -0.250484   -0.563435
     26          6           0       -3.667533   -1.462247    0.368841
     27          6           0       -4.369540   -2.671486   -0.249804
     28          1           0       -4.677731    0.018928   -0.827431
     29          1           0       -3.145060   -0.526589   -1.501564
     30          1           0       -4.167993   -1.183171    1.304935
     31          1           0       -2.635811   -1.728441    0.632106
     32          1           0       -3.867421   -2.977656   -1.173240
     33          1           0       -5.408308   -2.429288   -0.496588
     34          1           0       -4.373659   -3.526348    0.433610
 ---------------------------------------------------------------------

 SCF Done:  E(RHF) =  -669.534679770     A.U. after   15 cycles
 E2 =    -0.2093614200D+01 EUMP2 =    -0.67162829396960D+03

 The electronic state is 1-A.
 Alpha  occ. eigenvalues --  -20.60801 -20.60796 -15.85856 -11.31238 -11.27821
 Alpha  occ. eigenvalues --  -11.27817 -11.27515 -11.26826 -11.26815 -11.22734
 Alpha  occ. eigenvalues --  -11.22220 -11.22160 -11.22065 -11.21970 -11.21561
 Alpha  occ. eigenvalues --   -1.59877  -1.39429  -1.19425  -1.09258  -1.08806
 Alpha  occ. eigenvalues --   -1.04825  -1.04303  -0.96725  -0.95647  -0.87744
 Alpha  occ. eigenvalues --   -0.86222  -0.82478  -0.80404  -0.79078  -0.77513
 Alpha  occ. eigenvalues --   -0.72074  -0.71201  -0.70553  -0.65918  -0.65065
 Alpha  occ. eigenvalues --   -0.64790  -0.62190  -0.61680  -0.60107  -0.58352
 Alpha  occ. eigenvalues --   -0.56038  -0.55316  -0.53421  -0.53266  -0.53054
 Alpha  occ. eigenvalues --   -0.52912  -0.50674  -0.48836  -0.48828  -0.48703
 Alpha  occ. eigenvalues --   -0.47455  -0.46570  -0.46482  -0.44831  -0.44547
 Alpha  occ. eigenvalues --   -0.37311  -0.36435
 Alpha virt. eigenvalues --    0.04982   0.11155   0.16385   0.19396   0.22695
 Alpha virt. eigenvalues --    0.23432   0.25549   0.25867   0.27180   0.27454
 Alpha virt. eigenvalues --    0.29608   0.30439   0.30867   0.31386   0.31484

 Mulliken charges:
               1
     1  C   -0.172527
     2  C   -0.220574
     3  C   -0.170736
     4  C    0.158498
     5  C   -0.170521
     6  C   -0.221581
     7  H    0.231621
     8  H    0.224662
     9  H    0.276013
    10  H    0.275865
    11  H    0.225384
    12  N    0.488043
    13  O   -0.460332
    14  O   -0.460190
    15  C   -0.308303
    16  C   -0.298863
    17  C   -0.477336
    18  H    0.147236
    19  H    0.153318
    20  H    0.153261
    21  H    0.154837
    22  H    0.155925
    23  H    0.153633
    24  H    0.163516
    25  C   -0.297805
    26  C   -0.303554
    27  C   -0.476119
    28  H    0.153484
    29  H    0.151296
    30  H    0.154118
    31  H    0.140443
    32  H    0.155894
    33  H    0.159874
    34  H    0.161518
 Sum of Mulliken charges =  -0.00000

 Dipole moment (field-independent basis, Debye):
    X=             -4.6729    Y=             -0.4659    Z=              2.3569  Tot=              5.2543
 Quadrupole moment (field-independent basis, Debye-Ang):
   XX=           -119.6832   YY=            -92.6256   ZZ=            -92.8174
   XY=              0.1890   XZ=              6.9887   YZ=              1.8092

 Normal termination of Gaussian 16 at Wed May  5 18:59:33 2021.
