 Gaussian 16, Revision A.03,
 Gaussian 16:  EM64L-G16RevA.03 25-Dec-2016

 -------------
 #p 6-31g* mp2
 -------------

 ------------------------------------------------------
 Input file generated by CHIRIPA (05-May-2021 14:55:24)
 ------------------------------------------------------
 Symbolic Z-matrix:
 Charge =  0 Multiplicity = 1

                         Standard orientation:
 ---------------------------------------------------------------------
 Center     Atomic      Atomic             Coordinates (Angstroms)
 Number     Number       Type             X           Y           Z
 ---------------------------------------------------------------------
      1          6           0       -0.852861   -2.253219   -0.594002
      2          6           0       -2.101941   -2.635266   -0.093642
      3          6           0       -3.075281   -1.674167    0.195226
      4          6           0       -2.764337   -0.333941   -0.029272
      5          6           0       -1.529087    0.078206   -0.526848
      6          6           0       -0.570918   -0.900088   -0.808630
      7          1           0       -0.102640   -3.006503   -0.815649
      8          1           0       -2.323680   -3.685392    0.074027
      9          1           0       -4.050429   -1.942137    0.583422
     10          1           0       -1.337319    1.132754   -0.683601
     11          1           0        0.398279   -0.600472   -1.197129
     12          7           0       -3.786738    0.692634    0.272789
     13          8           0       -3.488082    1.866847    0.066237
     14          8           0       -4.867393    0.303611    0.710376
     15          6           0        2.793320    1.111133    0.392775
     16          6           0        2.274407    2.141210   -0.611045
     17          6           0        1.216016    3.068461   -0.012875
     18          1           0        1.949533    0.514480    0.765565
     19          1           0        3.213299    1.635863    1.262069
     20          1           0        1.856783    1.614716   -1.478807
     21          1           0        3.119555    2.735353   -0.981633
     22          1           0        1.624513    3.619522    0.840392
     23          1           0        0.354567    2.492518    0.340392
     24          1           0        0.858913    3.796822   -0.747605
     25          6           0        3.852012    0.176888   -0.190394
     26          6           0        4.370925   -0.853190    0.813425
     27          6           0        5.429317   -1.780440    0.215255
     28          1           0        3.432033   -0.347842   -1.059688
     29          1           0        4.695800    0.773541   -0.563185
     30          1           0        3.525778   -1.447332    1.184013
     31          1           0        4.788549   -0.326696    1.681187
     32          1           0        6.290766   -1.204498   -0.138011
     33          1           0        5.020819   -2.331502   -0.638011
     34          1           0        5.786419   -2.508802    0.949986
 ---------------------------------------------------------------------

 SCF Done:  E(RHF) =  -669.535113861     A.U. after   15 cycles
 E2 =    -0.2092996538D+01 EUMP2 =    -0.67162811039897D+03

 The electronic state is 1-A.
 Alpha  occ. eigenvalues --  -20.60772 -20.60767 -15.85825 -11.31207 -11.27786
 Alpha  occ. eigenvalues --  -11.27755 -11.27530 -11.26804 -11.26783 -11.22376
 Alpha  occ. eigenvalues --  -11.22295 -11.22180 -11.22071 -11.21709 -11.21589
 Alpha  occ. eigenvalues --   -1.59847  -1.39400  -1.19387  -1.09183  -1.08776
 Alpha  occ. eigenvalues --   -1.04801  -1.04217  -0.96648  -0.95608  -0.87658
 Alpha  occ. eigenvalues --   -0.86186  -0.82442  -0.80276  -0.78981  -0.77492
 Alpha  occ. eigenvalues --   -0.72044  -0.71170  -0.70506  -0.65939  -0.65036
 Alpha  occ. eigenvalues --   -0.64758  -0.62321  -0.61423  -0.60001  -0.58246
 Alpha  occ. eigenvalues --   -0.55979  -0.55280  -0.53305  -0.53122  -0.53101
 Alpha  occ. eigenvalues --   -0.52839  -0.50549  -0.48806  -0.48797  -0.48571
 Alpha  occ. eigenvalues --   -0.47339  -0.46506  -0.46470  -0.44800  -0.44470
 Alpha  occ. eigenvalues --   -0.37366  -0.36375
 Alpha virt. eigenvalues --    0.05009   0.11166   0.16402   0.18479   0.22845
 Alpha virt. eigenvalues --    0.23544   0.25002   0.26086   0.26862   0.28644
 Alpha virt. eigenvalues --    0.29251   0.30741   0.31146   0.31458   0.32566

 Mulliken charges:
               1
     1  C   -0.172202
     2  C   -0.218352
     3  C   -0.170535
     4  C    0.159221
     5  C   -0.178055
     6  C   -0.224393
     7  H    0.225902
     8  H    0.223608
     9  H    0.275777
    10  H    0.282435
    11  H    0.230845
    12  N    0.487773
    13  O   -0.460099
    14  O   -0.460403
    15  C   -0.304013
    16  C   -0.303178
    17  C   -0.480966
    18  H    0.150580
    19  H    0.155083
    20  H    0.142534
    21  H    0.157157
    22  H    0.161035
    23  H    0.155973
    24  H    0.165583
    25  C   -0.298517
    26  C   -0.299931
    27  C   -0.475738
    28  H    0.141473
    29  H    0.153616
    30  H    0.150018
    31  H    0.155554
    32  H    0.157536
    33  H    0.152477
    34  H    0.162204
 Sum of Mulliken charges =  -0.00000

 Dipole moment (field-independent basis, Debye):
    X=              3.7102    Y=             -3.5031    Z=             -0.9628  Tot=              5.1928
 Quadrupole moment (field-independent basis, Debye-Ang):
   XX=           -112.5181   YY=            -89.6160   ZZ=            -95.1006
   XY=             12.8184   XZ=              2.4960   YZ=             -0.6922

 Normal termination of Gaussian 16 at Wed May  5 20:47:25 2021.
