 Gaussian 16, Revision A.03,
 Gaussian 16:  EM64L-G16RevA.03 25-Dec-2016

 -------------
 #p 6-31g* mp2
 -------------

 ------------------------------------------------------
 Input file generated by CHIRIPA (05-May-2021 14:51:12)
 ------------------------------------------------------
 Symbolic Z-matrix:
 Charge =  0 Multiplicity = 1

                         Standard orientation:
 ---------------------------------------------------------------------
 Center     Atomic      Atomic             Coordinates (Angstroms)
 Number     Number       Type             X           Y           Z
 ---------------------------------------------------------------------
      1          6           0        3.583177   -0.704574    0.064136
      2          6           0        4.183499    0.701577    0.082505
      3          6           0        5.689376    0.698038    0.347297
      4          1           0        3.786720   -1.195851    1.025470
      5          1           0        4.090403   -1.302225   -0.705883
      6          1           0        3.674346    1.296813    0.851319
      7          1           0        3.978336    1.189634   -0.878913
      8          1           0        6.215024    0.127522   -0.425235
      9          1           0        5.909306    0.235310    1.314827
     10          1           0        6.097828    1.713394    0.356164
     11          6           0        2.078486   -0.717500   -0.199427
     12          6           0        1.478164   -2.123651   -0.217796
     13          6           0       -0.027714   -2.120113   -0.482588
     14          1           0        1.571260   -0.119849    0.570592
     15          1           0        1.874943   -0.226223   -1.160761
     16          1           0        1.683326   -2.611708    0.743622
     17          1           0        1.987316   -2.718887   -0.986610
     18          1           0       -0.247644   -1.657385   -1.450118
     19          1           0       -0.553362   -1.549597    0.289944
     20          1           0       -0.436166   -3.135469   -0.491455
     21          6           0       -3.162401    0.099333   -0.247494
     22          6           0       -3.561147   -0.967363    0.772870
     23          6           0       -4.223232   -2.184931    0.127139
     24          1           0       -4.054815    0.417368   -0.803728
     25          1           0       -2.477394   -0.344678   -0.983030
     26          1           0       -4.244111   -0.521113    1.507063
     27          1           0       -2.667712   -1.282757    1.326871
     28          1           0       -3.545064   -2.656334   -0.591518
     29          1           0       -5.130419   -1.890362   -0.410303
     30          1           0       -4.500149   -2.934912    0.874604
     31          6           0       -2.499261    1.322740    0.382785
     32          6           0       -2.100515    2.389438   -0.637579
     33          6           0       -1.438431    3.607005    0.008152
     34          1           0       -3.184269    1.766752    1.118321
     35          1           0       -1.606847    1.004706    0.939019
     36          1           0       -2.993950    2.704831   -1.191580
     37          1           0       -1.417553    1.943187   -1.371771
     38          1           0       -0.531244    3.312437    0.545594
     39          1           0       -2.116599    4.078408    0.726809
     40          1           0       -1.161513    4.356987   -0.739313
 ---------------------------------------------------------------------

 SCF Done:  E(RHF) =  -470.732416023     A.U. after   11 cycles
 E2 =    -0.1584443690D+01 EUMP2 =    -0.47231685971369D+03

 The electronic state is 1-A.
 Alpha  occ. eigenvalues --  -11.21680 -11.21645 -11.21554 -11.21506 -11.21484
 Alpha  occ. eigenvalues --  -11.21417 -11.21334 -11.21218 -11.21150 -11.21103
 Alpha  occ. eigenvalues --  -11.21034 -11.20981  -1.08510  -1.08350  -1.03613
 Alpha  occ. eigenvalues --   -1.03449  -0.96060  -0.95905  -0.87101  -0.86907
 Alpha  occ. eigenvalues --   -0.79676  -0.79529  -0.78318  -0.78174  -0.65213
 Alpha  occ. eigenvalues --   -0.64959  -0.61098  -0.60790  -0.59422  -0.59275
 Alpha  occ. eigenvalues --   -0.57672  -0.57511  -0.55344  -0.55198  -0.52738
 Alpha  occ. eigenvalues --   -0.52613  -0.52496  -0.52313  -0.50069  -0.49792
 Alpha  occ. eigenvalues --   -0.48016  -0.47800  -0.46806  -0.46496  -0.45980
 Alpha  occ. eigenvalues --   -0.45867  -0.45505  -0.45474  -0.43850  -0.43709
 Alpha virt. eigenvalues --    0.20329   0.22845   0.23782   0.24681   0.24986
 Alpha virt. eigenvalues --    0.26073   0.27276   0.27676   0.28123   0.30117
 Alpha virt. eigenvalues --    0.30653   0.30978   0.31142   0.31899   0.32490

 Mulliken charges:
               1
     1  C   -0.298319
     2  C   -0.299701
     3  C   -0.475767
     4  H    0.149869
     5  H    0.149846
     6  H    0.151897
     7  H    0.152119
     8  H    0.155259
     9  H    0.155262
    10  H    0.160500
    11  C   -0.298920
    12  C   -0.300290
    13  C   -0.482675
    14  H    0.149207
    15  H    0.149620
    16  H    0.152204
    17  H    0.152235
    18  H    0.155251
    19  H    0.163106
    20  H    0.161077
    21  C   -0.303957
    22  C   -0.300998
    23  C   -0.477088
    24  H    0.149439
    25  H    0.156703
    26  H    0.151602
    27  H    0.152709
    28  H    0.157436
    29  H    0.154783
    30  H    0.159546
    31  C   -0.299233
    32  C   -0.299362
    33  C   -0.475668
    34  H    0.149347
    35  H    0.148965
    36  H    0.151782
    37  H    0.152062
    38  H    0.155145
    39  H    0.154950
    40  H    0.160053
 Sum of Mulliken charges =  -0.00000

 Dipole moment (field-independent basis, Debye):
    X=              0.0432    Y=             -0.0297    Z=             -0.0210  Tot=              0.0565
 Quadrupole moment (field-independent basis, Debye-Ang):
   XX=            -85.4511   YY=            -85.5327   ZZ=            -83.8964
   XY=             -1.0364   XZ=             -0.5646   YZ=             -0.2160

 Normal termination of Gaussian 16 at Wed May  5 19:54:33 2021.
