 Gaussian 16, Revision A.03,
 Gaussian 16:  EM64L-G16RevA.03 25-Dec-2016

 -------------
 #p 6-31g* mp2
 -------------

 ------------------------------------------------------
 Input file generated by CHIRIPA (05-May-2021 14:51:11)
 ------------------------------------------------------
 Symbolic Z-matrix:
 Charge =  0 Multiplicity = 1

                         Standard orientation:
 ---------------------------------------------------------------------
 Center     Atomic      Atomic             Coordinates (Angstroms)
 Number     Number       Type             X           Y           Z
 ---------------------------------------------------------------------
      1          6           0        3.000170    0.350117    0.798870
      2          6           0        1.499386    0.077490    0.692542
      3          6           0        0.682641    0.855508    1.724730
      4          1           0        3.342643    0.091355    1.810156
      5          1           0        3.179910    1.426912    0.673967
      6          1           0        1.322662   -0.998654    0.816230
      7          1           0        1.160483    0.336751   -0.318668
      8          1           0        0.829502    1.933146    1.599313
      9          1           0        0.992602    0.590153    2.740659
     10          1           0       -0.387424    0.645742    1.630818
     11          6           0        3.830016   -0.420471   -0.226448
     12          6           0        5.330800   -0.147844   -0.120120
     13          6           0        6.147545   -0.925862   -1.152308
     14          1           0        3.650276   -1.497266   -0.101545
     15          1           0        3.487543   -0.161709   -1.237734
     16          1           0        5.669702   -0.407105    0.891090
     17          1           0        5.507523    0.928300   -0.243808
     18          1           0        5.837584   -0.660507   -2.168237
     19          1           0        6.000684   -2.003500   -1.026891
     20          1           0        7.217610   -0.716096   -1.058396
     21          6           0       -3.507975   -0.669521   -0.565865
     22          6           0       -4.019146   -1.670711    0.470622
     23          6           0       -4.199918   -3.076057   -0.103939
     24          1           0       -4.210240   -0.634549   -1.409989
     25          1           0       -2.550906   -1.027287   -0.970114
     26          1           0       -4.974285   -1.310471    0.873801
     27          1           0       -3.315681   -1.703163    1.312466
     28          1           0       -3.249762   -3.459852   -0.489302
     29          1           0       -4.917789   -3.064930   -0.930460
     30          1           0       -4.566001   -3.775622    0.653986
     31          6           0       -3.322211    0.739874   -0.006558
     32          6           0       -2.811040    1.741065   -1.043044
     33          6           0       -2.630268    3.146411   -0.468483
     34          1           0       -4.279280    1.097641    0.397692
     35          1           0       -2.619946    0.704903    0.837567
     36          1           0       -3.514504    1.773517   -1.884888
     37          1           0       -1.855901    1.380825   -1.446222
     38          1           0       -1.912397    3.135284    0.358038
     39          1           0       -3.580424    3.530206   -0.083119
     40          1           0       -2.264185    3.845976   -1.226408
 ---------------------------------------------------------------------

 SCF Done:  E(RHF) =  -470.733341842     A.U. after   11 cycles
 E2 =    -0.1583068037D+01 EUMP2 =    -0.47231640987925D+03

 The electronic state is 1-A.
 Alpha  occ. eigenvalues --  -11.21685 -11.21632 -11.21600 -11.21591 -11.21454
 Alpha  occ. eigenvalues --  -11.21394 -11.21393 -11.21335 -11.21151 -11.21094
 Alpha  occ. eigenvalues --  -11.21067 -11.21038  -1.08485  -1.08421  -1.03590
 Alpha  occ. eigenvalues --   -1.03512  -0.96037  -0.95966  -0.87058  -0.86980
 Alpha  occ. eigenvalues --   -0.79661  -0.79570  -0.78296  -0.78235  -0.65141
 Alpha  occ. eigenvalues --   -0.65055  -0.61044  -0.60870  -0.59423  -0.59309
 Alpha  occ. eigenvalues --   -0.57670  -0.57556  -0.55349  -0.55222  -0.52766
 Alpha  occ. eigenvalues --   -0.52658  -0.52492  -0.52350  -0.49998  -0.49878
 Alpha  occ. eigenvalues --   -0.47985  -0.47891  -0.46723  -0.46570  -0.45856
 Alpha  occ. eigenvalues --   -0.45776  -0.45763  -0.45667  -0.43795  -0.43767
 Alpha virt. eigenvalues --    0.19924   0.23093   0.23855   0.25165   0.25897
 Alpha virt. eigenvalues --    0.26110   0.26666   0.27464   0.28198   0.28992
 Alpha virt. eigenvalues --    0.30733   0.31215   0.31637   0.31909   0.32182

 Mulliken charges:
               1
     1  C   -0.298571
     2  C   -0.299778
     3  C   -0.483642
     4  H    0.149907
     5  H    0.149868
     6  H    0.151849
     7  H    0.152150
     8  H    0.156018
     9  H    0.155756
    10  H    0.166418
    11  C   -0.298332
    12  C   -0.299707
    13  C   -0.475745
    14  H    0.149550
    15  H    0.149716
    16  H    0.152016
    17  H    0.152054
    18  H    0.155245
    19  H    0.155217
    20  H    0.160380
    21  C   -0.298394
    22  C   -0.299633
    23  C   -0.475720
    24  H    0.149718
    25  H    0.149933
    26  H    0.152013
    27  H    0.151567
    28  H    0.155258
    29  H    0.155200
    30  H    0.160221
    31  C   -0.305168
    32  C   -0.299737
    33  C   -0.477528
    34  H    0.149884
    35  H    0.155557
    36  H    0.151956
    37  H    0.152210
    38  H    0.157462
    39  H    0.155040
    40  H    0.159792
 Sum of Mulliken charges =  -0.00000

 Dipole moment (field-independent basis, Debye):
    X=              0.0212    Y=             -0.0018    Z=              0.0089  Tot=              0.0230
 Quadrupole moment (field-independent basis, Debye-Ang):
   XX=            -84.3600   YY=            -85.5277   ZZ=            -84.8196
   XY=             -0.1207   XZ=              0.7607   YZ=             -1.1899

 Normal termination of Gaussian 16 at Wed May  5 16:44:19 2021.
