 Gaussian 16, Revision A.03,
 Gaussian 16:  EM64L-G16RevA.03 25-Dec-2016

 -------------
 #p 6-31g* mp2
 -------------

 ------------------------------------------------------
 Input file generated by CHIRIPA (05-May-2021 14:55:18)
 ------------------------------------------------------
 Symbolic Z-matrix:
 Charge =  0 Multiplicity = 1

                         Standard orientation:
 ---------------------------------------------------------------------
 Center     Atomic      Atomic             Coordinates (Angstroms)
 Number     Number       Type             X           Y           Z
 ---------------------------------------------------------------------
      1          6           0       -5.700882    0.860062   -0.584736
      2          6           0       -5.697838   -0.513528   -0.320608
      3          6           0       -4.505887   -1.173730   -0.007663
      4          6           0       -3.330002   -0.426088    0.032544
      5          6           0       -3.300571    0.943479   -0.225738
      6          6           0       -4.504348    1.582907   -0.536544
      7          1           0       -6.631412    1.364853   -0.827008
      8          1           0       -6.625579   -1.077438   -0.357313
      9          1           0       -4.474885   -2.236211    0.201118
     10          1           0       -2.359914    1.478858   -0.181539
     11          1           0       -4.503710    2.649749   -0.741218
     12          7           0       -2.061877   -1.114018    0.362712
     13          8           0       -1.039292   -0.432757    0.391710
     14          8           0       -2.114517   -2.321452    0.586248
     15          6           0        3.951949    0.562351    0.500334
     16          6           0        3.042816    1.678712   -0.014642
     17          6           0        1.891218    1.991528    0.941268
     18          1           0        3.352701   -0.343824    0.663714
     19          1           0        4.355961    0.850863    1.480604
     20          1           0        2.641732    1.388780   -0.994278
     21          1           0        3.644332    2.582280   -0.176996
     22          1           0        2.275183    2.305754    1.917195
     23          1           0        1.266886    1.105472    1.095270
     24          1           0        1.253909    2.792390    0.553562
     25          6           0        5.107902    0.238184   -0.444343
     26          6           0        6.017035   -0.878177    0.070633
     27          6           0        7.168633   -1.190992   -0.885277
     28          1           0        4.703889   -0.050328   -1.424613
     29          1           0        5.707151    1.144360   -0.607723
     30          1           0        5.415518   -1.781745    0.232988
     31          1           0        6.418119   -0.588244    1.050269
     32          1           0        7.792965   -0.304937   -1.039278
     33          1           0        6.784668   -1.505218   -1.861203
     34          1           0        7.805941   -1.991855   -0.497572
 ---------------------------------------------------------------------

 SCF Done:  E(RHF) =  -669.536165990     A.U. after   15 cycles
 E2 =    -0.2090664064D+01 EUMP2 =    -0.67162683005441D+03

 The electronic state is 1-A.
 Alpha  occ. eigenvalues --  -20.60920 -20.60910 -15.85965 -11.31272 -11.27838
 Alpha  occ. eigenvalues --  -11.27828 -11.27576 -11.26844 -11.26833 -11.20951
 Alpha  occ. eigenvalues --  -11.20697 -11.20657 -11.20534 -11.20465 -11.19948
 Alpha  occ. eigenvalues --   -1.59986  -1.39542  -1.19442  -1.08849  -1.07626
 Alpha  occ. eigenvalues --   -1.04837  -1.02724  -0.95694  -0.95169  -0.86238
 Alpha  occ. eigenvalues --   -0.86189  -0.82528  -0.78807  -0.77582  -0.77426
 Alpha  occ. eigenvalues --   -0.72196  -0.71301  -0.70551  -0.65100  -0.64840
 Alpha  occ. eigenvalues --   -0.64246  -0.62183  -0.60101  -0.58573  -0.56792
 Alpha  occ. eigenvalues --   -0.55343  -0.54424  -0.53170  -0.52928  -0.51899
 Alpha  occ. eigenvalues --   -0.51592  -0.49138  -0.48945  -0.48872  -0.47116
 Alpha  occ. eigenvalues --   -0.45822  -0.44992  -0.44953  -0.44853  -0.42998
 Alpha  occ. eigenvalues --   -0.37422  -0.36438
 Alpha virt. eigenvalues --    0.04949   0.11217   0.16445   0.21261   0.23650
 Alpha virt. eigenvalues --    0.24937   0.27147   0.27441   0.27872   0.28316
 Alpha virt. eigenvalues --    0.29110   0.30949   0.31968   0.32371   0.32602

 Mulliken charges:
               1
     1  C   -0.170590
     2  C   -0.218631
     3  C   -0.170691
     4  C    0.157481
     5  C   -0.170833
     6  C   -0.218607
     7  H    0.225920
     8  H    0.223707
     9  H    0.275735
    10  H    0.276607
    11  H    0.223883
    12  N    0.495319
    13  O   -0.467577
    14  O   -0.459414
    15  C   -0.299900
    16  C   -0.297317
    17  C   -0.485443
    18  H    0.158493
    19  H    0.146707
    20  H    0.151989
    21  H    0.145947
    22  H    0.149350
    23  H    0.183880
    24  H    0.148856
    25  C   -0.297805
    26  C   -0.299560
    27  C   -0.475302
    28  H    0.149315
    29  H    0.146630
    30  H    0.154155
    31  H    0.150636
    32  H    0.153485
    33  H    0.154727
    34  H    0.158848
 Sum of Mulliken charges =  -0.00000

 Dipole moment (field-independent basis, Debye):
    X=             -4.7247    Y=              2.2685    Z=             -1.1399  Tot=              5.3636
 Quadrupole moment (field-independent basis, Debye-Ang):
   XX=            -65.5429   YY=            -93.3775   ZZ=            -95.9035
   XY=             -3.5671   XZ=              4.4643   YZ=              0.1100

 Normal termination of Gaussian 16 at Thu May  6 07:38:02 2021.
