 Gaussian 16, Revision A.03,
 Gaussian 16:  EM64L-G16RevA.03 25-Dec-2016

 -------------
 #p 6-31g* mp2
 -------------

 ------------------------------------------------------
 Input file generated by CHIRIPA (05-May-2021 14:53:18)
 ------------------------------------------------------
 Symbolic Z-matrix:
 Charge =  0 Multiplicity = 1

                         Standard orientation:
 ---------------------------------------------------------------------
 Center     Atomic      Atomic             Coordinates (Angstroms)
 Number     Number       Type             X           Y           Z
 ---------------------------------------------------------------------
      1          6           0        2.908785   -0.447841    0.997161
      2          6           0        1.503217    0.137354    0.856061
      3          6           0        0.566867   -0.294857    1.984882
      4          1           0        2.841975   -1.544169    1.020548
      5          1           0        3.331365   -0.139758    1.963549
      6          1           0        1.083951   -0.170598   -0.110374
      7          1           0        1.573398    1.232412    0.832814
      8          1           0        0.959424    0.026082    2.955190
      9          1           0        0.467196   -1.384900    2.006642
     10          1           0       -0.432462    0.134854    1.864259
     11          6           0        3.856470   -0.024829   -0.123857
     12          6           0        5.262038   -0.610025    0.017243
     13          6           0        6.198388   -0.177813   -1.111578
     14          1           0        3.433891   -0.332912   -1.090246
     15          1           0        3.923280    1.071498   -0.147244
     16          1           0        5.191857   -1.705082    0.040489
     17          1           0        5.681304   -0.302072    0.983678
     18          1           0        6.298060    0.912229   -1.133338
     19          1           0        5.805831   -0.498752   -2.081886
     20          1           0        7.197717   -0.607524   -0.990955
     21          6           0       -1.369474    2.359588   -0.461401
     22          6           0       -2.349272    2.175364    0.519709
     23          6           0       -3.060944    0.974410    0.595739
     24          6           0       -2.765767   -0.025629   -0.329508
     25          6           0       -1.795402    0.127717   -1.318532
     26          6           0       -1.096148    1.336979   -1.375777
     27          1           0       -0.821452    3.295744   -0.513167
     28          1           0       -2.563655    2.967796    1.231143
     29          1           0       -3.824620    0.805144    1.345117
     30          1           0       -1.603970   -0.680550   -2.013856
     31          1           0       -0.335763    1.477255   -2.138786
     32          7           0       -3.512609   -1.301423   -0.258961
     33          8           0       -3.233750   -2.166982   -1.085812
     34          8           0       -4.362702   -1.411674    0.621849
 ---------------------------------------------------------------------

 SCF Done:  E(RHF) =  -669.534236627     A.U. after   15 cycles
 E2 =    -0.2094807297D+01 EUMP2 =    -0.67162904392355D+03

 The electronic state is 1-A.
 Alpha  occ. eigenvalues --  -20.60820 -20.60814 -15.85874 -11.31277 -11.27821
 Alpha  occ. eigenvalues --  -11.27818 -11.27565 -11.26878 -11.26846 -11.21852
 Alpha  occ. eigenvalues --  -11.21748 -11.21703 -11.21538 -11.21333 -11.21037
 Alpha  occ. eigenvalues --   -1.59894  -1.39446  -1.19462  -1.08845  -1.08652
 Alpha  occ. eigenvalues --   -1.04870  -1.03714  -0.96162  -0.95666  -0.87179
 Alpha  occ. eigenvalues --   -0.86250  -0.82500  -0.79800  -0.78499  -0.77538
 Alpha  occ. eigenvalues --   -0.72092  -0.71218  -0.70544  -0.65303  -0.65097
 Alpha  occ. eigenvalues --   -0.64855  -0.62205  -0.61127  -0.59624  -0.57892
 Alpha  occ. eigenvalues --   -0.55462  -0.55344  -0.53503  -0.52946  -0.52679
 Alpha  occ. eigenvalues --   -0.52188  -0.50108  -0.48854  -0.48845  -0.48144
 Alpha  occ. eigenvalues --   -0.46846  -0.46041  -0.45970  -0.44844  -0.44000
 Alpha  occ. eigenvalues --   -0.37393  -0.36341
 Alpha virt. eigenvalues --    0.04959   0.11168   0.16382   0.21051   0.22724
 Alpha virt. eigenvalues --    0.24153   0.26116   0.26643   0.27649   0.28030
 Alpha virt. eigenvalues --    0.28295   0.30761   0.31429   0.31725   0.31868

 Mulliken charges:
               1
     1  C   -0.298652
     2  C   -0.296065
     3  C   -0.482845
     4  H    0.152037
     5  H    0.149318
     6  H    0.150338
     7  H    0.143203
     8  H    0.152868
     9  H    0.157976
    10  H    0.166078
    11  C   -0.297438
    12  C   -0.299653
    13  C   -0.475765
    14  H    0.146385
    15  H    0.146257
    16  H    0.153785
    17  H    0.152619
    18  H    0.153978
    19  H    0.154688
    20  H    0.161544
    21  C   -0.169253
    22  C   -0.217931
    23  C   -0.175717
    24  C    0.162887
    25  C   -0.172265
    26  C   -0.213045
    27  H    0.226128
    28  H    0.224328
    29  H    0.276199
    30  H    0.275717
    31  H    0.224640
    32  N    0.488077
    33  O   -0.460407
    34  O   -0.460014
 Sum of Mulliken charges =  -0.00000

 Dipole moment (field-independent basis, Debye):
    X=              2.5255    Y=              4.5012    Z=             -0.2840  Tot=              5.1691
 Quadrupole moment (field-independent basis, Debye-Ang):
   XX=           -109.1692   YY=            -94.2324   ZZ=            -92.1884
   XY=            -13.7805   XZ=             -1.7810   YZ=              0.6356

 Normal termination of Gaussian 16 at Thu May  6 07:37:29 2021.
