 Gaussian 16, Revision A.03,
 Gaussian 16:  EM64L-G16RevA.03 25-Dec-2016

 -------------
 #p 6-31g* mp2
 -------------

 ------------------------------------------------------
 Input file generated by CHIRIPA (05-May-2021 14:57:23)
 ------------------------------------------------------
 Symbolic Z-matrix:
 Charge =  0 Multiplicity = 1

                         Standard orientation:
 ---------------------------------------------------------------------
 Center     Atomic      Atomic             Coordinates (Angstroms)
 Number     Number       Type             X           Y           Z
 ---------------------------------------------------------------------
      1          6           0       -5.926307   -1.312515    0.411556
      2          6           0       -4.641882   -1.864206    0.460663
      3          6           0       -3.524938   -1.093954    0.123476
      4          6           0       -3.729881    0.230487   -0.260119
      5          6           0       -4.996919    0.808799   -0.318922
      6          6           0       -6.099421    0.019878    0.022606
      7          1           0       -6.788366   -1.918117    0.675177
      8          1           0       -4.504437   -2.898677    0.762364
      9          1           0       -2.519403   -1.495775    0.152779
     10          1           0       -5.102292    1.842989   -0.623497
     11          1           0       -7.095751    0.450978   -0.016445
     12          7           0       -2.555067    1.055800   -0.619381
     13          8           0       -2.762334    2.220120   -0.954100
     14          8           0       -1.449225    0.522734   -0.559450
     15          6           0        1.689093    0.361811    1.280326
     16          6           0        1.864175   -0.777664    0.488200
     17          6           0        3.097822   -1.040517   -0.114770
     18          6           0        4.139519   -0.138576    0.096554
     19          6           0        3.996298    1.005331    0.880299
     20          6           0        2.753837    1.248110    1.473506
     21          1           0        0.727343    0.558206    1.744935
     22          1           0        1.039051   -1.467723    0.336431
     23          1           0        3.260909   -1.915057   -0.732832
     24          1           0        4.837468    1.674796    1.013216
     25          1           0        2.620752    2.133839    2.088174
     26          7           0        5.450192   -0.406221   -0.536616
     27          8           0        6.352186    0.403941   -0.334926
     28          8           0        5.550683   -1.421096   -1.222595
 ---------------------------------------------------------------------

 SCF Done:  E(RHF) =  -868.338880547     A.U. after   16 cycles
 E2 =    -0.2599156382D+01 EUMP2 =    -0.87093803692840D+03

 The electronic state is 1-A.
 Alpha  occ. eigenvalues --  -20.61783 -20.61718 -20.60030 -20.60025 -15.86787
 Alpha  occ. eigenvalues --  -15.85079 -11.32003 -11.30243 -11.28603 -11.28509
 Alpha  occ. eigenvalues --  -11.28224 -11.27530 -11.27484 -11.26824 -11.26809
 Alpha  occ. eigenvalues --  -11.26419 -11.25754 -11.25728  -1.60816  -1.59110
 Alpha  occ. eigenvalues --   -1.40379  -1.38670  -1.20152  -1.18393  -1.09566
 Alpha  occ. eigenvalues --   -1.07796  -1.05532  -1.03785  -0.96432  -0.94672
 Alpha  occ. eigenvalues --   -0.86936  -0.85180  -0.83271  -0.81531  -0.78352
 Alpha  occ. eigenvalues --   -0.76626  -0.73017  -0.72134  -0.71304  -0.71252
 Alpha  occ. eigenvalues --   -0.70431  -0.69448  -0.65806  -0.65526  -0.64042
 Alpha  occ. eigenvalues --   -0.63788  -0.62890  -0.61160  -0.56016  -0.54222
 Alpha  occ. eigenvalues --   -0.53862  -0.53620  -0.52091  -0.51888  -0.49777
 Alpha  occ. eigenvalues --   -0.49732  -0.48069  -0.48042  -0.45812  -0.44123
 Alpha  occ. eigenvalues --   -0.38108  -0.37128  -0.36276  -0.35385
 Alpha virt. eigenvalues --    0.04156   0.05937   0.10529   0.12279   0.15679
 Alpha virt. eigenvalues --    0.17508   0.20184   0.22154   0.25767   0.27033
 Alpha virt. eigenvalues --    0.28589   0.29185   0.30573   0.31224   0.32597

 Mulliken charges:
               1
     1  C   -0.170056
     2  C   -0.218002
     3  C   -0.170955
     4  C    0.158290
     5  C   -0.170398
     6  C   -0.218155
     7  H    0.228414
     8  H    0.225061
     9  H    0.268774
    10  H    0.277349
    11  H    0.226230
    12  N    0.490168
    13  O   -0.454677
    14  O   -0.470102
    15  C   -0.158545
    16  C   -0.211003
    17  C   -0.172717
    18  C    0.157422
    19  C   -0.171533
    20  C   -0.219853
    21  H    0.227662
    22  H    0.219353
    23  H    0.271602
    24  H    0.272587
    25  H    0.220966
    26  N    0.488366
    27  O   -0.462899
    28  O   -0.463350
 Sum of Mulliken charges =  -0.00000

 Dipole moment (field-independent basis, Debye):
    X=             -9.3259    Y=             -1.8644    Z=              3.4894  Tot=             10.1304
 Quadrupole moment (field-independent basis, Debye-Ang):
   XX=           -110.5462   YY=           -100.2997   ZZ=           -105.6492
   XY=             13.8056   XZ=              6.6029   YZ=              1.8652

 Normal termination of Gaussian 16 at Wed May  5 21:01:23 2021.
