 Gaussian 16, Revision A.03,
 Gaussian 16:  EM64L-G16RevA.03 25-Dec-2016

 -------------
 #p 6-31g* mp2
 -------------

 ------------------------------------------------------
 Input file generated by CHIRIPA (05-May-2021 14:51:08)
 ------------------------------------------------------
 Symbolic Z-matrix:
 Charge =  0 Multiplicity = 1

                         Standard orientation:
 ---------------------------------------------------------------------
 Center     Atomic      Atomic             Coordinates (Angstroms)
 Number     Number       Type             X           Y           Z
 ---------------------------------------------------------------------
      1          6           0       -3.067027    1.431682    0.163288
      2          6           0       -1.761507    2.028432   -0.363486
      3          6           0       -1.634024    3.523514   -0.069767
      4          1           0       -3.914861    1.968305   -0.284104
      5          1           0       -3.127716    1.599788    1.247471
      6          1           0       -1.702652    1.858032   -1.446129
      7          1           0       -0.916685    1.490200    0.085065
      8          1           0       -1.666983    3.708403    1.008811
      9          1           0       -2.457416    4.078324   -0.531083
     10          1           0       -0.693503    3.929567   -0.454996
     11          6           0       -3.209084   -0.062231   -0.122669
     12          6           0       -4.514605   -0.658981    0.404106
     13          6           0       -4.642088   -2.154063    0.110387
     14          1           0       -3.148395   -0.230337   -1.206851
     15          1           0       -2.361251   -0.598854    0.324723
     16          1           0       -5.359427   -0.120750   -0.044445
     17          1           0       -4.573459   -0.488581    1.486749
     18          1           0       -3.818695   -2.708873    0.571703
     19          1           0       -4.609129   -2.338952   -0.968191
     20          1           0       -5.582609   -2.560116    0.495616
     21          6           0        3.895721   -0.666116    0.074714
     22          6           0        4.473224    0.749657    0.066904
     23          6           0        5.990066    0.770432    0.258086
     24          1           0        4.153818   -1.155317    1.023932
     25          1           0        4.374522   -1.254312   -0.720376
     26          1           0        3.992478    1.335408    0.860878
     27          1           0        4.213558    1.235612   -0.882326
     28          1           0        6.486701    0.209672   -0.540351
     29          1           0        6.264365    0.310036    1.212758
     30          1           0        6.381860    1.792332    0.249273
     31          6           0        2.380391   -0.703334   -0.115334
     32          6           0        1.802888   -2.119108   -0.107524
     33          6           0        0.286046   -2.139882   -0.298707
     34          1           0        1.901589   -0.115138    0.679757
     35          1           0        2.122295   -0.214134   -1.064552
     36          1           0        2.062554   -2.605062    0.841706
     37          1           0        2.283633   -2.704860   -0.901498
     38          1           0        0.011747   -1.679487   -1.253377
     39          1           0       -0.210589   -1.579123    0.499731
     40          1           0       -0.105749   -3.161782   -0.289893
 ---------------------------------------------------------------------

 SCF Done:  E(RHF) =  -470.733076889     A.U. after   11 cycles
 E2 =    -0.1583250121D+01 EUMP2 =    -0.47231632700980D+03

 The electronic state is 1-A.
 Alpha  occ. eigenvalues --  -11.21616 -11.21614 -11.21542 -11.21527 -11.21428
 Alpha  occ. eigenvalues --  -11.21368 -11.21321 -11.21228 -11.21081 -11.21073
 Alpha  occ. eigenvalues --  -11.21032 -11.21004  -1.08452  -1.08354  -1.03546
 Alpha  occ. eigenvalues --   -1.03465  -0.96007  -0.95904  -0.87030  -0.86918
 Alpha  occ. eigenvalues --   -0.79634  -0.79519  -0.78317  -0.78097  -0.65112
 Alpha  occ. eigenvalues --   -0.64971  -0.60950  -0.60862  -0.59374  -0.59268
 Alpha  occ. eigenvalues --   -0.57681  -0.57462  -0.55350  -0.55151  -0.52700
 Alpha  occ. eigenvalues --   -0.52630  -0.52504  -0.52245  -0.50005  -0.49804
 Alpha  occ. eigenvalues --   -0.47998  -0.47836  -0.46693  -0.46557  -0.46010
 Alpha  occ. eigenvalues --   -0.45758  -0.45640  -0.45265  -0.43800  -0.43712
 Alpha virt. eigenvalues --    0.21188   0.23059   0.23984   0.24251   0.25452
 Alpha virt. eigenvalues --    0.26461   0.27158   0.27440   0.27929   0.29792
 Alpha virt. eigenvalues --    0.30804   0.31387   0.31658   0.31834   0.31896

 Mulliken charges:
               1
     1  C   -0.297945
     2  C   -0.301294
     3  C   -0.475633
     4  H    0.149265
     5  H    0.148682
     6  H    0.151451
     7  H    0.153821
     8  H    0.154805
     9  H    0.155046
    10  H    0.160213
    11  C   -0.305190
    12  C   -0.299168
    13  C   -0.475664
    14  H    0.148832
    15  H    0.158995
    16  H    0.151480
    17  H    0.151206
    18  H    0.155480
    19  H    0.155088
    20  H    0.159764
    21  C   -0.298324
    22  C   -0.299664
    23  C   -0.475721
    24  H    0.149618
    25  H    0.149695
    26  H    0.151906
    27  H    0.152046
    28  H    0.155214
    29  H    0.155171
    30  H    0.160323
    31  C   -0.299023
    32  C   -0.300077
    33  C   -0.478042
    34  H    0.149425
    35  H    0.150477
    36  H    0.151669
    37  H    0.152049
    38  H    0.157237
    39  H    0.156511
    40  H    0.160276
 Sum of Mulliken charges =  -0.00000

 Dipole moment (field-independent basis, Debye):
    X=              0.0370    Y=             -0.0272    Z=             -0.0150  Tot=              0.0483
 Quadrupole moment (field-independent basis, Debye-Ang):
   XX=            -86.0134   YY=            -86.0049   ZZ=            -82.9643
   XY=             -0.5175   XZ=              0.1118   YZ=             -0.2938

 Normal termination of Gaussian 16 at Wed May  5 18:06:50 2021.
