 Gaussian 16, Revision A.03,
 Gaussian 16:  EM64L-G16RevA.03 25-Dec-2016

 -------------
 #p 6-31g* mp2
 -------------

 ------------------------------------------------------
 Input file generated by CHIRIPA (05-May-2021 14:55:23)
 ------------------------------------------------------
 Symbolic Z-matrix:
 Charge =  0 Multiplicity = 1

                         Standard orientation:
 ---------------------------------------------------------------------
 Center     Atomic      Atomic             Coordinates (Angstroms)
 Number     Number       Type             X           Y           Z
 ---------------------------------------------------------------------
      1          6           0        6.090796   -0.377702    0.016646
      2          6           0        5.264950   -1.379174    0.537754
      3          6           0        3.873815   -1.264288    0.459697
      4          6           0        3.339932   -0.129439   -0.148889
      5          6           0        4.136246    0.885360   -0.677430
      6          6           0        5.524806    0.749382   -0.588217
      7          1           0        7.170463   -0.475141    0.081615
      8          1           0        5.701728   -2.255583    1.008048
      9          1           0        3.211093   -2.024586    0.854873
     10          1           0        3.671581    1.747405   -1.140447
     11          1           0        6.163718    1.528711   -0.993780
     12          7           0        1.868562    0.003351   -0.237430
     13          8           0        1.422916    1.012951   -0.778488
     14          8           0        1.188810   -0.904683    0.235908
     15          6           0       -5.291184    0.238624   -0.116959
     16          6           0       -6.000718   -1.113446   -0.197299
     17          6           0       -7.411453   -1.007196   -0.777239
     18          1           0       -5.890910    0.924353    0.497085
     19          1           0       -5.243142    0.679947   -1.122107
     20          1           0       -6.046179   -1.552717    0.807484
     21          1           0       -5.399138   -1.796094   -0.811067
     22          1           0       -7.381417   -0.592339   -1.789955
     23          1           0       -8.032134   -0.347581   -0.162207
     24          1           0       -7.900341   -1.985208   -0.825618
     25          6           0       -3.879839    0.148766    0.460759
     26          6           0       -3.170306    1.500836    0.541099
     27          6           0       -1.759571    1.394586    1.121038
     28          1           0       -3.927881   -0.292556    1.465906
     29          1           0       -3.280114   -0.536962   -0.153287
     30          1           0       -3.771885    2.183485    1.154866
     31          1           0       -3.124845    1.940108   -0.463685
     32          1           0       -1.138890    0.734971    0.506007
     33          1           0       -1.789605    0.979730    2.133754
     34          1           0       -1.270683    2.372599    1.169417
 ---------------------------------------------------------------------

 SCF Done:  E(RHF) =  -669.536644805     A.U. after   15 cycles
 E2 =    -0.2091717757D+01 EUMP2 =    -0.67162836256165D+03

 The electronic state is 1-A.
 Alpha  occ. eigenvalues --  -20.61080 -20.61071 -15.86066 -11.31358 -11.27908
 Alpha  occ. eigenvalues --  -11.27905 -11.27639 -11.26905 -11.26896 -11.20770
 Alpha  occ. eigenvalues --  -11.20395 -11.20372 -11.20103 -11.20043 -11.18940
 Alpha  occ. eigenvalues --   -1.60110  -1.39666  -1.19516  -1.08929  -1.07263
 Alpha  occ. eigenvalues --   -1.04904  -1.02276  -0.95778  -0.94698  -0.86306
 Alpha  occ. eigenvalues --   -0.85714  -0.82610  -0.78397  -0.77673  -0.77016
 Alpha  occ. eigenvalues --   -0.72272  -0.71409  -0.70625  -0.65169  -0.64909
 Alpha  occ. eigenvalues --   -0.63903  -0.62251  -0.59675  -0.58170  -0.56311
 Alpha  occ. eigenvalues --   -0.55421  -0.53991  -0.53237  -0.52995  -0.51409
 Alpha  occ. eigenvalues --   -0.51157  -0.49323  -0.49045  -0.48347  -0.46639
 Alpha  occ. eigenvalues --   -0.45401  -0.45082  -0.44549  -0.44401  -0.42546
 Alpha  occ. eigenvalues --   -0.37491  -0.36502
 Alpha virt. eigenvalues --    0.04855   0.11154   0.16364   0.21295   0.23956
 Alpha virt. eigenvalues --    0.25667   0.27216   0.27800   0.28181   0.28616
 Alpha virt. eigenvalues --    0.29440   0.30864   0.32413   0.32692   0.32829

 Mulliken charges:
               1
     1  C   -0.170419
     2  C   -0.218620
     3  C   -0.170661
     4  C    0.160575
     5  C   -0.170724
     6  C   -0.218625
     7  H    0.226218
     8  H    0.224061
     9  H    0.276075
    10  H    0.276018
    11  H    0.224048
    12  N    0.488257
    13  O   -0.458198
    14  O   -0.459107
    15  C   -0.297391
    16  C   -0.298817
    17  C   -0.475021
    18  H    0.146636
    19  H    0.148169
    20  H    0.150414
    21  H    0.152048
    22  H    0.154221
    23  H    0.153676
    24  H    0.157693
    25  C   -0.297970
    26  C   -0.298760
    27  C   -0.485385
    28  H    0.146377
    29  H    0.154974
    30  H    0.143673
    31  H    0.150307
    32  H    0.188867
    33  H    0.144400
    34  H    0.152990
 Sum of Mulliken charges =  -0.00000

 Dipole moment (field-independent basis, Debye):
    X=              5.6826    Y=             -0.5696    Z=              0.1946  Tot=              5.7144
 Quadrupole moment (field-independent basis, Debye-Ang):
   XX=            -63.0174   YY=            -91.2782   ZZ=            -94.0685
   XY=             -1.6302   XZ=             -0.5206   YZ=             -2.5671

 Normal termination of Gaussian 16 at Thu May  6 20:49:25 2021.
