 Gaussian 16, Revision A.03,
 Gaussian 16:  EM64L-G16RevA.03 25-Dec-2016

 -------------
 #p 6-31g* mp2
 -------------

 ------------------------------------------------------
 Input file generated by CHIRIPA (05-May-2021 14:55:19)
 ------------------------------------------------------
 Symbolic Z-matrix:
 Charge =  0 Multiplicity = 1

                         Standard orientation:
 ---------------------------------------------------------------------
 Center     Atomic      Atomic             Coordinates (Angstroms)
 Number     Number       Type             X           Y           Z
 ---------------------------------------------------------------------
      1          6           0       -1.812963    2.452732   -1.277105
      2          6           0       -1.889779    2.562225    0.115243
      3          6           0       -2.175410    1.441633    0.900886
      4          6           0       -2.379606    0.221575    0.258194
      5          6           0       -2.309799    0.080407   -1.126901
      6          6           0       -2.022848    1.214356   -1.892648
      7          1           0       -1.590566    3.328423   -1.879683
      8          1           0       -1.727234    3.522691    0.596002
      9          1           0       -2.240812    1.498095    1.980679
     10          1           0       -2.476624   -0.890450   -1.577482
     11          1           0       -1.963815    1.126356   -2.973766
     12          7           0       -2.682690   -0.971816    1.079387
     13          8           0       -2.858540   -2.035361    0.488975
     14          8           0       -2.738657   -0.821054    2.297901
     15          6           0        2.260356   -0.653341   -0.378170
     16          6           0        1.986515   -2.094096   -0.810864
     17          6           0        0.538623   -2.314382   -1.250039
     18          1           0        1.581905   -0.389049    0.444508
     19          1           0        2.021502    0.023657   -1.210047
     20          1           0        2.227128   -2.768284    0.021116
     21          1           0        2.665827   -2.355051   -1.632481
     22          1           0        0.289627   -1.665395   -2.095863
     23          1           0       -0.151564   -2.080976   -0.432870
     24          1           0        0.364939   -3.351007   -1.555168
     25          6           0        3.703560   -0.417405    0.063671
     26          6           0        3.977400    1.023350    0.496364
     27          6           0        5.425293    1.243636    0.935540
     28          1           0        3.942414   -1.094403    0.895547
     29          1           0        4.382010   -0.681697   -0.759007
     30          1           0        3.298088    1.284305    1.317981
     31          1           0        3.736788    1.697538   -0.335616
     32          1           0        6.115480    1.010229    0.118371
     33          1           0        5.674288    0.594649    1.781363
     34          1           0        5.598976    2.280261    1.240669
 ---------------------------------------------------------------------

 SCF Done:  E(RHF) =  -669.535474353     A.U. after   15 cycles
 E2 =    -0.2093073709D+01 EUMP2 =    -0.67162854806251D+03

 The electronic state is 1-A.
 Alpha  occ. eigenvalues --  -20.60897 -20.60872 -15.85901 -11.31186 -11.27787
 Alpha  occ. eigenvalues --  -11.27750 -11.27517 -11.26763 -11.26752 -11.21691
 Alpha  occ. eigenvalues --  -11.21443 -11.21385 -11.21311 -11.21153 -11.20800
 Alpha  occ. eigenvalues --   -1.59947  -1.39503  -1.19374  -1.08785  -1.08398
 Alpha  occ. eigenvalues --   -1.04768  -1.03479  -0.95932  -0.95623  -0.86955
 Alpha  occ. eigenvalues --   -0.86163  -0.82464  -0.79564  -0.78220  -0.77508
 Alpha  occ. eigenvalues --   -0.72129  -0.71275  -0.70489  -0.65060  -0.65000
 Alpha  occ. eigenvalues --   -0.64773  -0.62122  -0.60874  -0.59298  -0.57547
 Alpha  occ. eigenvalues --   -0.55282  -0.55213  -0.53143  -0.52887  -0.52596
 Alpha  occ. eigenvalues --   -0.52304  -0.49896  -0.48890  -0.48883  -0.47872
 Alpha  occ. eigenvalues --   -0.46611  -0.45770  -0.45691  -0.44786  -0.43731
 Alpha  occ. eigenvalues --   -0.37343  -0.36325
 Alpha virt. eigenvalues --    0.04997   0.11267   0.16432   0.21276   0.22861
 Alpha virt. eigenvalues --    0.24311   0.26391   0.26788   0.27530   0.27878
 Alpha virt. eigenvalues --    0.28719   0.30532   0.31591   0.31740   0.32107

 Mulliken charges:
               1
     1  C   -0.169865
     2  C   -0.218585
     3  C   -0.170968
     4  C    0.155846
     5  C   -0.166481
     6  C   -0.220165
     7  H    0.225626
     8  H    0.223395
     9  H    0.275368
    10  H    0.277814
    11  H    0.223294
    12  N    0.487735
    13  O   -0.457749
    14  O   -0.459306
    15  C   -0.297542
    16  C   -0.300458
    17  C   -0.478745
    18  H    0.150076
    19  H    0.145752
    20  H    0.155309
    21  H    0.149668
    22  H    0.143591
    23  H    0.164316
    24  H    0.163278
    25  C   -0.298304
    26  C   -0.299050
    27  C   -0.475607
    28  H    0.151497
    29  H    0.149030
    30  H    0.151612
    31  H    0.148943
    32  H    0.155091
    33  H    0.156571
    34  H    0.159012
 Sum of Mulliken charges =  -0.00000

 Dipole moment (field-independent basis, Debye):
    X=              0.9791    Y=              4.1528    Z=             -2.8271  Tot=              5.1183
 Quadrupole moment (field-independent basis, Debye-Ang):
   XX=           -101.7229   YY=            -91.6544   ZZ=            -92.3492
   XY=             -9.9600   XZ=              7.0396   YZ=              2.5871

 Normal termination of Gaussian 16 at Wed May  5 20:30:39 2021.
