 Gaussian 16, Revision A.03,
 Gaussian 16:  EM64L-G16RevA.03 25-Dec-2016

 -------------
 #p 6-31g* mp2
 -------------

 ------------------------------------------------------
 Input file generated by CHIRIPA (05-May-2021 14:55:25)
 ------------------------------------------------------
 Symbolic Z-matrix:
 Charge =  0 Multiplicity = 1

                         Standard orientation:
 ---------------------------------------------------------------------
 Center     Atomic      Atomic             Coordinates (Angstroms)
 Number     Number       Type             X           Y           Z
 ---------------------------------------------------------------------
      1          6           0        1.950579    1.833394    0.342317
      2          6           0        3.068331    1.762021    1.180206
      3          6           0        3.995392    0.724924    1.040434
      4          6           0        3.772589   -0.228114    0.047778
      5          6           0        2.668741   -0.184298   -0.802452
      6          6           0        1.754697    0.861720   -0.644598
      7          1           0        1.235472    2.642501    0.457919
      8          1           0        3.223012    2.515243    1.947523
      9          1           0        4.869362    0.645586    1.675493
     10          1           0        2.541486   -0.949827   -1.558222
     11          1           0        0.887542    0.914625   -1.296739
     12          7           0        4.747137   -1.330764   -0.109764
     13          8           0        4.528104   -2.157997   -0.992003
     14          8           0        5.711567   -1.346909    0.651978
     15          6           0       -5.147545   -0.151375    0.419622
     16          6           0       -6.043635   -1.293165   -0.061338
     17          6           0       -7.087286   -1.703542    0.977978
     18          1           0       -4.643516   -0.455176    1.347310
     19          1           0       -5.773918    0.714994    0.673504
     20          1           0       -5.415644   -2.156658   -0.315550
     21          1           0       -6.545441   -0.986683   -0.988093
     22          1           0       -7.737867   -0.858402    1.225127
     23          1           0       -6.601649   -2.035024    1.901491
     24          1           0       -7.716969   -2.521146    0.613448
     25          6           0       -4.099102    0.270119   -0.608404
     26          6           0       -3.203012    1.411909   -0.127443
     27          6           0       -2.159362    1.822285   -1.166759
     28          1           0       -3.472729   -0.596251   -0.862285
     29          1           0       -4.603131    0.573919   -1.536092
     30          1           0       -2.701206    1.105427    0.799311
     31          1           0       -3.831003    2.275402    0.126768
     32          1           0       -2.644998    2.153768   -2.090273
     33          1           0       -1.508781    0.977145   -1.413908
     34          1           0       -1.529678    2.639890   -0.802229
 ---------------------------------------------------------------------

 SCF Done:  E(RHF) =  -669.535451494     A.U. after   15 cycles
 E2 =    -0.2091072503D+01 EUMP2 =    -0.67162652399657D+03

 The electronic state is 1-A.
 Alpha  occ. eigenvalues --  -20.60724 -20.60719 -15.85776 -11.31129 -11.27698
 Alpha  occ. eigenvalues --  -11.27682 -11.27426 -11.26714 -11.26645 -11.22511
 Alpha  occ. eigenvalues --  -11.22342 -11.22073 -11.22015 -11.21895 -11.21402
 Alpha  occ. eigenvalues --   -1.59799  -1.39353  -1.19296  -1.09086  -1.08692
 Alpha  occ. eigenvalues --   -1.04698  -1.04234  -0.96709  -0.95530  -0.87739
 Alpha  occ. eigenvalues --   -0.86090  -0.82364  -0.80311  -0.78848  -0.77415
 Alpha  occ. eigenvalues --   -0.71995  -0.71122  -0.70407  -0.65728  -0.64946
 Alpha  occ. eigenvalues --   -0.64715  -0.62113  -0.61565  -0.60116  -0.58293
 Alpha  occ. eigenvalues --   -0.56005  -0.55193  -0.53450  -0.53161  -0.53027
 Alpha  occ. eigenvalues --   -0.52738  -0.50614  -0.48759  -0.48751  -0.48606
 Alpha  occ. eigenvalues --   -0.47310  -0.46402  -0.46291  -0.44762  -0.44473
 Alpha  occ. eigenvalues --   -0.37275  -0.36300
 Alpha virt. eigenvalues --    0.05116   0.11320   0.16604   0.19747   0.22527
 Alpha virt. eigenvalues --    0.23902   0.25203   0.26081   0.26298   0.27399
 Alpha virt. eigenvalues --    0.29039   0.29598   0.31176   0.31625   0.32403

 Mulliken charges:
               1
     1  C   -0.173872
     2  C   -0.218591
     3  C   -0.171260
     4  C    0.158806
     5  C   -0.172523
     6  C   -0.223468
     7  H    0.226488
     8  H    0.223115
     9  H    0.275307
    10  H    0.275413
    11  H    0.232121
    12  N    0.488040
    13  O   -0.460618
    14  O   -0.460657
    15  C   -0.298972
    16  C   -0.300273
    17  C   -0.476113
    18  H    0.150755
    19  H    0.150244
    20  H    0.153081
    21  H    0.152534
    22  H    0.155459
    23  H    0.155951
    24  H    0.161828
    25  C   -0.299318
    26  C   -0.299645
    27  C   -0.480904
    28  H    0.150617
    29  H    0.151189
    30  H    0.153221
    31  H    0.154847
    32  H    0.161686
    33  H    0.151783
    34  H    0.153728
 Sum of Mulliken charges =  -0.00000

 Dipole moment (field-independent basis, Debye):
    X=             -3.6874    Y=              3.8680    Z=              0.5642  Tot=              5.3737
 Quadrupole moment (field-independent basis, Debye-Ang):
   XX=           -119.1745   YY=            -96.1981   ZZ=            -92.4766
   XY=             15.9441   XZ=              5.1339   YZ=              1.7050

 Normal termination of Gaussian 16 at Thu May  6 00:03:08 2021.
