 Gaussian 16, Revision A.03,
 Gaussian 16:  EM64L-G16RevA.03 25-Dec-2016

 -------------
 #p 6-31g* mp2
 -------------

 ------------------------------------------------------
 Input file generated by CHIRIPA (05-May-2021 14:55:22)
 ------------------------------------------------------
 Symbolic Z-matrix:
 Charge =  0 Multiplicity = 1

                         Standard orientation:
 ---------------------------------------------------------------------
 Center     Atomic      Atomic             Coordinates (Angstroms)
 Number     Number       Type             X           Y           Z
 ---------------------------------------------------------------------
      1          6           0       -0.046671   -2.229502    0.415120
      2          6           0       -0.984119   -2.485975   -0.590830
      3          6           0       -2.094619   -1.652801   -0.755632
      4          6           0       -2.237117   -0.567160    0.107135
      5          6           0       -1.320411   -0.285354    1.118830
      6          6           0       -0.217508   -1.131946    1.265240
      7          1           0        0.813041   -2.881943    0.535998
      8          1           0       -0.854008   -3.337623   -1.252504
      9          1           0       -2.835622   -1.828169   -1.526073
     10          1           0       -1.477119    0.571292    1.763049
     11          1           0        0.508926   -0.930336    2.047347
     12          7           0       -3.408732    0.321987   -0.057598
     13          8           0       -3.511472    1.271953    0.715477
     14          8           0       -4.202119    0.052097   -0.956672
     15          6           0        3.077230    0.443152    0.215098
     16          6           0        3.866239   -0.508631   -0.684656
     17          6           0        4.783780   -1.443365    0.104130
     18          1           0        3.779965    1.037272    0.815207
     19          1           0        2.479827   -0.145388    0.925115
     20          1           0        4.460915    0.081512   -1.393676
     21          1           0        3.161549   -1.100419   -1.282832
     22          1           0        4.202473   -2.056881    0.800034
     23          1           0        5.509222   -0.868234    0.688561
     24          1           0        5.338241   -2.115071   -0.558625
     25          6           0        2.155462    1.383924   -0.558868
     26          6           0        1.366453    2.335707    0.340886
     27          6           0        0.448912    3.270441   -0.447900
     28          1           0        2.752865    1.972464   -1.268885
     29          1           0        1.452728    0.789804   -1.158977
     30          1           0        2.071144    2.927495    0.939063
     31          1           0        0.771777    1.745564    1.049906
     32          1           0       -0.276530    2.695311   -1.032331
     33          1           0        1.030219    3.883957   -1.143803
     34          1           0       -0.105549    3.942147    0.214855
 ---------------------------------------------------------------------

 SCF Done:  E(RHF) =  -669.534025911     A.U. after   15 cycles
 E2 =    -0.2095528440D+01 EUMP2 =    -0.67162955435072D+03

 The electronic state is 1-A.
 Alpha  occ. eigenvalues --  -20.60851 -20.60844 -15.85905 -11.31315 -11.27872
 Alpha  occ. eigenvalues --  -11.27868 -11.27626 -11.26900 -11.26884 -11.22240
 Alpha  occ. eigenvalues --  -11.21954 -11.21847 -11.21828 -11.21682 -11.21052
 Alpha  occ. eigenvalues --   -1.59924  -1.39475  -1.19496  -1.08952  -1.08817
 Alpha  occ. eigenvalues --   -1.04909  -1.03950  -0.96387  -0.95702  -0.87396
 Alpha  occ. eigenvalues --   -0.86299  -0.82542  -0.80040  -0.78726  -0.77560
 Alpha  occ. eigenvalues --   -0.72121  -0.71251  -0.70594  -0.65659  -0.65148
 Alpha  occ. eigenvalues --   -0.64851  -0.62251  -0.61352  -0.59773  -0.57994
 Alpha  occ. eigenvalues --   -0.55718  -0.55373  -0.53210  -0.53067  -0.52984
 Alpha  occ. eigenvalues --   -0.52787  -0.50330  -0.48887  -0.48874  -0.48346
 Alpha  occ. eigenvalues --   -0.47098  -0.46230  -0.46134  -0.44868  -0.44188
 Alpha  occ. eigenvalues --   -0.37445  -0.36406
 Alpha virt. eigenvalues --    0.04915   0.11010   0.16275   0.19553   0.22992
 Alpha virt. eigenvalues --    0.23342   0.25299   0.26438   0.27155   0.27637
 Alpha virt. eigenvalues --    0.30046   0.30594   0.31139   0.31173   0.32012

 Mulliken charges:
               1
     1  C   -0.171687
     2  C   -0.218934
     3  C   -0.171276
     4  C    0.156764
     5  C   -0.170664
     6  C   -0.215307
     7  H    0.227194
     8  H    0.224233
     9  H    0.276151
    10  H    0.276793
    11  H    0.225387
    12  N    0.487968
    13  O   -0.459561
    14  O   -0.460049
    15  C   -0.298179
    16  C   -0.300921
    17  C   -0.474791
    18  H    0.150861
    19  H    0.139996
    20  H    0.155772
    21  H    0.149809
    22  H    0.146481
    23  H    0.158442
    24  H    0.162123
    25  C   -0.298579
    26  C   -0.300601
    27  C   -0.475947
    28  H    0.151329
    29  H    0.153370
    30  H    0.151422
    31  H    0.144202
    32  H    0.157691
    33  H    0.155340
    34  H    0.165165
 Sum of Mulliken charges =  -0.00000

 Dipole moment (field-independent basis, Debye):
    X=              4.0529    Y=             -3.0690    Z=              0.4935  Tot=              5.1076
 Quadrupole moment (field-independent basis, Debye-Ang):
   XX=           -113.2895   YY=            -89.9664   ZZ=            -92.2430
   XY=              6.8252   XZ=             -0.0372   YZ=              2.0323

 Normal termination of Gaussian 16 at Wed May  5 17:31:17 2021.
