 Gaussian 16, Revision A.03,
 Gaussian 16:  EM64L-G16RevA.03 25-Dec-2016

 -------------
 #p 6-31g* mp2
 -------------

 ------------------------------------------------------
 Input file generated by CHIRIPA (05-May-2021 14:55:19)
 ------------------------------------------------------
 Symbolic Z-matrix:
 Charge =  0 Multiplicity = 1

                         Standard orientation:
 ---------------------------------------------------------------------
 Center     Atomic      Atomic             Coordinates (Angstroms)
 Number     Number       Type             X           Y           Z
 ---------------------------------------------------------------------
      1          6           0        2.230007    2.430526    0.480505
      2          6           0        3.172677    2.126548   -0.507166
      3          6           0        3.641106    0.818563   -0.663046
      4          6           0        3.143192   -0.165227    0.189906
      5          6           0        2.203702    0.106175    1.183379
      6          6           0        1.749376    1.421149    1.321143
      7          1           0        1.871598    3.449315    0.594560
      8          1           0        3.547703    2.908420   -1.161441
      9          1           0        4.370637    0.555475   -1.419344
     10          1           0        1.848421   -0.694554    1.820581
     11          1           0        1.017260    1.654313    2.089053
     12          7           0        3.631632   -1.553631    0.034472
     13          8           0        3.177296   -2.402352    0.798598
     14          8           0        4.459559   -1.766852   -0.848540
     15          6           0       -4.520126   -0.520325   -0.100015
     16          6           0       -5.806825    0.273952    0.126954
     17          6           0       -6.998033   -0.618036    0.477923
     18          1           0       -4.684006   -1.249321   -0.905405
     19          1           0       -4.291084   -1.100314    0.804720
     20          1           0       -6.032623    0.853341   -0.777446
     21          1           0       -5.639806    1.001273    0.931768
     22          1           0       -6.797938   -1.185791    1.392371
     23          1           0       -7.192988   -1.334564   -0.326554
     24          1           0       -7.907302   -0.029727    0.635976
     25          6           0       -3.320364    0.357512   -0.451725
     26          6           0       -2.033664   -0.436764   -0.678694
     27          6           0       -0.842458    0.455223   -1.029662
     28          1           0       -3.549406    0.937501   -1.356461
     29          1           0       -3.156484    1.086508    0.353665
     30          1           0       -2.200684   -1.164085   -1.483508
     31          1           0       -1.807867   -1.016154    0.225706
     32          1           0       -0.647503    1.171750   -0.225187
     33          1           0       -1.042552    1.022979   -1.944111
     34          1           0        0.066812   -0.133087   -1.187716
 ---------------------------------------------------------------------

 SCF Done:  E(RHF) =  -669.534158085     A.U. after   15 cycles
 E2 =    -0.2093064089D+01 EUMP2 =    -0.67162722217324D+03

 The electronic state is 1-A.
 Alpha  occ. eigenvalues --  -20.60790 -20.60785 -15.85844 -11.31214 -11.27774
 Alpha  occ. eigenvalues --  -11.27748 -11.27500 -11.26793 -11.26763 -11.21785
 Alpha  occ. eigenvalues --  -11.21739 -11.21618 -11.21535 -11.21212 -11.21127
 Alpha  occ. eigenvalues --   -1.59867  -1.39420  -1.19383  -1.08781  -1.08612
 Alpha  occ. eigenvalues --   -1.04790  -1.03684  -0.96136  -0.95611  -0.87156
 Alpha  occ. eigenvalues --   -0.86187  -0.82443  -0.79752  -0.78431  -0.77493
 Alpha  occ. eigenvalues --   -0.72061  -0.71194  -0.70484  -0.65258  -0.65034
 Alpha  occ. eigenvalues --   -0.64796  -0.62137  -0.61108  -0.59516  -0.57748
 Alpha  occ. eigenvalues --   -0.55530  -0.55280  -0.53455  -0.52884  -0.52573
 Alpha  occ. eigenvalues --   -0.52411  -0.50044  -0.48821  -0.48816  -0.48075
 Alpha  occ. eigenvalues --   -0.46793  -0.45971  -0.45905  -0.44823  -0.43931
 Alpha  occ. eigenvalues --   -0.37317  -0.36299
 Alpha virt. eigenvalues --    0.05032   0.11179   0.16497   0.21112   0.22736
 Alpha virt. eigenvalues --    0.24130   0.26317   0.27135   0.27336   0.28008
 Alpha virt. eigenvalues --    0.28331   0.30599   0.31332   0.31710   0.31817

 Mulliken charges:
               1
     1  C   -0.169109
     2  C   -0.217311
     3  C   -0.171633
     4  C    0.158328
     5  C   -0.168985
     6  C   -0.216241
     7  H    0.225693
     8  H    0.223649
     9  H    0.275718
    10  H    0.275330
    11  H    0.222961
    12  N    0.487694
    13  O   -0.460353
    14  O   -0.460330
    15  C   -0.298294
    16  C   -0.299524
    17  C   -0.475788
    18  H    0.151429
    19  H    0.149633
    20  H    0.151921
    21  H    0.150337
    22  H    0.155465
    23  H    0.156149
    24  H    0.160276
    25  C   -0.297500
    26  C   -0.300316
    27  C   -0.475009
    28  H    0.149615
    29  H    0.144811
    30  H    0.154755
    31  H    0.150336
    32  H    0.150125
    33  H    0.152366
    34  H    0.163800
 Sum of Mulliken charges =  -0.00000

 Dipole moment (field-independent basis, Debye):
    X=             -1.6690    Y=              4.8863    Z=              0.5352  Tot=              5.1912
 Quadrupole moment (field-independent basis, Debye-Ang):
   XX=           -105.2546   YY=            -96.7941   ZZ=            -91.1516
   XY=             16.5460   XZ=             -0.6659   YZ=             -0.1673

 Normal termination of Gaussian 16 at Thu May  6 15:43:46 2021.
