 Gaussian 16, Revision A.03,
 Gaussian 16:  EM64L-G16RevA.03 25-Dec-2016

 -------------
 #p 6-31g* mp2
 -------------

 ------------------------------------------------------
 Input file generated by CHIRIPA (05-May-2021 14:51:11)
 ------------------------------------------------------
 Symbolic Z-matrix:
 Charge =  0 Multiplicity = 1

                         Standard orientation:
 ---------------------------------------------------------------------
 Center     Atomic      Atomic             Coordinates (Angstroms)
 Number     Number       Type             X           Y           Z
 ---------------------------------------------------------------------
      1          6           0       -2.425187   -1.546464    0.087007
      2          6           0       -0.918056   -1.522789    0.343874
      3          6           0       -0.320915   -2.922926    0.488212
      4          1           0       -2.922893   -2.075739    0.911083
      5          1           0       -2.625766   -2.127331   -0.823903
      6          1           0       -0.720269   -0.940976    1.253263
      7          1           0       -0.423900   -0.993341   -0.480814
      8          1           0       -0.489066   -3.509063   -0.421056
      9          1           0       -0.787119   -3.456400    1.322874
     10          1           0        0.757379   -2.882584    0.671284
     11          6           0       -3.036701   -0.154235   -0.059549
     12          6           0       -4.543832   -0.177909   -0.316416
     13          6           0       -5.140973    1.222227   -0.460754
     14          1           0       -2.836122    0.426632    0.851361
     15          1           0       -2.538995    0.375041   -0.883625
     16          1           0       -5.037988   -0.707357    0.508272
     17          1           0       -4.741619   -0.759723   -1.225805
     18          1           0       -4.674769    1.755702   -1.295415
     19          1           0       -4.972822    1.808365    0.448515
     20          1           0       -6.219267    1.181885   -0.643825
     21          6           0        2.982723    0.134636   -0.102015
     22          6           0        4.496752    0.044010   -0.295637
     23          6           0        4.985266   -1.394195   -0.470900
     24          1           0        2.695325   -0.461194    0.775101
     25          1           0        2.481511   -0.320965   -0.967236
     26          1           0        4.994949    0.500887    0.569046
     27          1           0        4.780603    0.640280   -1.172282
     28          1           0        4.515019   -1.857011   -1.344553
     29          1           0        4.730584   -1.997197    0.406669
     30          1           0        6.070343   -1.435750   -0.607793
     31          6           0        2.479165    1.566062    0.074557
     32          6           0        0.965136    1.656689    0.268179
     33          6           0        0.476622    3.094894    0.443441
     34          1           0        2.980377    2.021663    0.939778
     35          1           0        2.766563    2.161893   -0.802560
     36          1           0        0.681285    1.060418    1.144823
     37          1           0        0.466938    1.199812   -0.596505
     38          1           0        0.731304    3.697895   -0.434127
     39          1           0        0.946869    3.557709    1.317095
     40          1           0       -0.608455    3.136450    0.580334
 ---------------------------------------------------------------------

 SCF Done:  E(RHF) =  -470.731821813     A.U. after   11 cycles
 E2 =    -0.1584727905D+01 EUMP2 =    -0.47231654971796D+03

 The electronic state is 1-A.
 Alpha  occ. eigenvalues --  -11.21605 -11.21596 -11.21470 -11.21451 -11.21395
 Alpha  occ. eigenvalues --  -11.21381 -11.21322 -11.21306 -11.21079 -11.21072
 Alpha  occ. eigenvalues --  -11.21001 -11.20989  -1.08458  -1.08348  -1.03541
 Alpha  occ. eigenvalues --   -1.03444  -0.95966  -0.95930  -0.87010  -0.86922
 Alpha  occ. eigenvalues --   -0.79819  -0.79393  -0.78476  -0.77890  -0.65171
 Alpha  occ. eigenvalues --   -0.64918  -0.61012  -0.60780  -0.59426  -0.59222
 Alpha  occ. eigenvalues --   -0.57646  -0.57475  -0.55252  -0.55230  -0.52688
 Alpha  occ. eigenvalues --   -0.52594  -0.52492  -0.52265  -0.49952  -0.49849
 Alpha  occ. eigenvalues --   -0.48342  -0.47526  -0.46924  -0.46430  -0.46155
 Alpha  occ. eigenvalues --   -0.45900  -0.45326  -0.45083  -0.43760  -0.43723
 Alpha virt. eigenvalues --    0.21207   0.22627   0.23792   0.24174   0.24216
 Alpha virt. eigenvalues --    0.26123   0.26743   0.27557   0.28653   0.29610
 Alpha virt. eigenvalues --    0.30214   0.31479   0.31581   0.32041   0.32200

 Mulliken charges:
               1
     1  C   -0.298303
     2  C   -0.302036
     3  C   -0.477107
     4  H    0.149072
     5  H    0.148888
     6  H    0.152918
     7  H    0.156806
     8  H    0.154466
     9  H    0.154251
    10  H    0.161436
    11  C   -0.299201
    12  C   -0.299559
    13  C   -0.475707
    14  H    0.149559
    15  H    0.149833
    16  H    0.152026
    17  H    0.151908
    18  H    0.155122
    19  H    0.155017
    20  H    0.160296
    21  C   -0.300194
    22  C   -0.299618
    23  C   -0.475754
    24  H    0.150845
    25  H    0.149793
    26  H    0.152009
    27  H    0.151985
    28  H    0.155252
    29  H    0.154927
    30  H    0.160375
    31  C   -0.298335
    32  C   -0.301803
    33  C   -0.476259
    34  H    0.149046
    35  H    0.149066
    36  H    0.155425
    37  H    0.153838
    38  H    0.154432
    39  H    0.154399
    40  H    0.160886
 Sum of Mulliken charges =  -0.00000

 Dipole moment (field-independent basis, Debye):
    X=              0.0078    Y=              0.0044    Z=             -0.0015  Tot=              0.0091
 Quadrupole moment (field-independent basis, Debye-Ang):
   XX=            -85.4515   YY=            -86.8785   ZZ=            -82.7361
   XY=              0.9694   XZ=             -0.0491   YZ=             -0.0585

 Normal termination of Gaussian 16 at Thu May  6 00:40:45 2021.
