 Gaussian 16, Revision A.03,
 Gaussian 16:  EM64L-G16RevA.03 25-Dec-2016

 -------------
 #p 6-31g* mp2
 -------------

 ------------------------------------------------------
 Input file generated by CHIRIPA (05-May-2021 14:53:15)
 ------------------------------------------------------
 Symbolic Z-matrix:
 Charge =  0 Multiplicity = 1

                         Standard orientation:
 ---------------------------------------------------------------------
 Center     Atomic      Atomic             Coordinates (Angstroms)
 Number     Number       Type             X           Y           Z
 ---------------------------------------------------------------------
      1          6           0       -4.087747   -0.821063   -0.134915
      2          6           0       -2.852761   -0.590358    0.736617
      3          6           0       -1.719359   -1.568686    0.426666
      4          1           0       -4.441663   -1.851358    0.007151
      5          1           0       -3.803543   -0.731229   -1.192532
      6          1           0       -3.139496   -0.679233    1.792316
      7          1           0       -2.501858    0.439566    0.592605
      8          1           0       -1.405103   -1.475736   -0.617942
      9          1           0       -2.046364   -2.600892    0.588586
     10          1           0       -0.846468   -1.385863    1.061093
     11          6           0       -5.229416    0.149234    0.163154
     12          6           0       -6.464402   -0.081471   -0.708378
     13          6           0       -7.597804    0.896856   -0.398427
     14          1           0       -5.513620    0.059400    1.220770
     15          1           0       -4.875500    1.179528    0.021088
     16          1           0       -6.815305   -1.111395   -0.564366
     17          1           0       -6.177667    0.007404   -1.764077
     18          1           0       -7.270799    1.929062   -0.560348
     19          1           0       -7.912060    0.803907    0.646180
     20          1           0       -8.470695    0.714033   -1.032855
     21          6           0        5.726647   -1.083958   -0.454922
     22          6           0        5.769861    0.313036   -0.510234
     23          6           0        4.619580    1.069193   -0.266049
     24          6           0        3.437741    0.392598    0.031883
     25          6           0        3.362717   -0.997996    0.094417
     26          6           0        4.525330   -1.733870   -0.153305
     27          1           0        6.625003   -1.663481   -0.645986
     28          1           0        6.701428    0.820455   -0.744236
     29          1           0        4.624827    2.151818   -0.302317
     30          1           0        2.419406   -1.475483    0.330193
     31          1           0        4.488813   -2.818677   -0.109663
     32          7           0        2.213461    1.182371    0.292264
     33          8           0        1.184653    0.562367    0.552622
     34          8           0        2.305861    2.406444    0.231061
 ---------------------------------------------------------------------

 SCF Done:  E(RHF) =  -669.535935420     A.U. after   15 cycles
 E2 =    -0.2090859862D+01 EUMP2 =    -0.67162679528229D+03

 The electronic state is 1-A.
 Alpha  occ. eigenvalues --  -20.60876 -20.60870 -15.85919 -11.31251 -11.27818
 Alpha  occ. eigenvalues --  -11.27810 -11.27559 -11.26829 -11.26818 -11.21040
 Alpha  occ. eigenvalues --  -11.20681 -11.20583 -11.20566 -11.20489 -11.19945
 Alpha  occ. eigenvalues --   -1.59945  -1.39501  -1.19422  -1.08825  -1.07648
 Alpha  occ. eigenvalues --   -1.04820  -1.02709  -0.95670  -0.95172  -0.86221
 Alpha  occ. eigenvalues --   -0.86206  -0.82498  -0.78802  -0.77550  -0.77438
 Alpha  occ. eigenvalues --   -0.72151  -0.71262  -0.70531  -0.65080  -0.64823
 Alpha  occ. eigenvalues --   -0.64280  -0.62167  -0.60104  -0.58548  -0.56753
 Alpha  occ. eigenvalues --   -0.55325  -0.54476  -0.53152  -0.52912  -0.51857
 Alpha  occ. eigenvalues --   -0.51610  -0.49158  -0.48899  -0.48875  -0.47106
 Alpha  occ. eigenvalues --   -0.45838  -0.44996  -0.44913  -0.44881  -0.42966
 Alpha  occ. eigenvalues --   -0.37404  -0.36422
 Alpha virt. eigenvalues --    0.04978   0.11232   0.16473   0.21184   0.23597
 Alpha virt. eigenvalues --    0.24846   0.26832   0.27407   0.27699   0.28279
 Alpha virt. eigenvalues --    0.29128   0.30573   0.31717   0.32185   0.32548

 Mulliken charges:
               1
     1  C   -0.297913
     2  C   -0.300139
     3  C   -0.476366
     4  H    0.145632
     5  H    0.148203
     6  H    0.147986
     7  H    0.164153
     8  H    0.152462
     9  H    0.144024
    10  H    0.173084
    11  C   -0.298038
    12  C   -0.298996
    13  C   -0.475348
    14  H    0.148271
    15  H    0.151515
    16  H    0.150142
    17  H    0.151118
    18  H    0.155513
    19  H    0.154443
    20  H    0.158258
    21  C   -0.170617
    22  C   -0.218621
    23  C   -0.170910
    24  C    0.157662
    25  C   -0.171052
    26  C   -0.218836
    27  H    0.225837
    28  H    0.223632
    29  H    0.275672
    30  H    0.277071
    31  H    0.223944
    32  N    0.493838
    33  O   -0.465755
    34  O   -0.459868
 Sum of Mulliken charges =  -0.00000

 Dipole moment (field-independent basis, Debye):
    X=              4.5640    Y=             -2.6560    Z=             -0.8897  Tot=              5.3550
 Quadrupole moment (field-independent basis, Debye-Ang):
   XX=            -65.8884   YY=            -93.8425   ZZ=            -95.1957
   XY=             -5.1439   XZ=             -3.8023   YZ=             -1.6680

 Normal termination of Gaussian 16 at Thu May  6 15:30:40 2021.
