 Gaussian 16, Revision A.03,
 Gaussian 16:  EM64L-G16RevA.03 25-Dec-2016

 -------------
 #p 6-31g* mp2
 -------------

 ------------------------------------------------------
 Input file generated by CHIRIPA (05-May-2021 14:53:15)
 ------------------------------------------------------
 Symbolic Z-matrix:
 Charge =  0 Multiplicity = 1

                         Standard orientation:
 ---------------------------------------------------------------------
 Center     Atomic      Atomic             Coordinates (Angstroms)
 Number     Number       Type             X           Y           Z
 ---------------------------------------------------------------------
      1          6           0       -3.828444    0.320457   -0.453410
      2          6           0       -4.968399    1.196433    0.067314
      3          6           0       -5.435357    2.230120   -0.957985
      4          1           0       -2.983780    0.961497   -0.740734
      5          1           0       -4.157411   -0.191771   -1.368177
      6          1           0       -4.637848    1.705788    0.981595
      7          1           0       -5.810377    0.553220    0.353610
      8          1           0       -5.791068    1.736481   -1.868145
      9          1           0       -4.611878    2.895597   -1.236592
     10          1           0       -6.250697    2.845446   -0.564977
     11          6           0       -3.350699   -0.717840    0.560210
     12          6           0       -2.210744   -1.593817    0.039486
     13          6           0       -1.743786   -2.627503    1.064784
     14          1           0       -3.021732   -0.205613    1.474977
     15          1           0       -4.195363   -1.358880    0.847533
     16          1           0       -1.368766   -0.950603   -0.246811
     17          1           0       -2.541295   -2.103171   -0.874796
     18          1           0       -2.567265   -3.292981    1.343391
     19          1           0       -1.388075   -2.133864    1.974944
     20          1           0       -0.928446   -3.242830    0.671776
     21          6           0        3.417554    2.484958    0.708125
     22          6           0        2.573250    1.695554    1.495851
     23          6           0        2.226803    0.403268    1.090241
     24          6           0        2.745071   -0.070002   -0.114211
     25          6           0        3.588521    0.692195   -0.921018
     26          6           0        3.921606    1.981646   -0.495673
     27          1           0        3.681492    3.487735    1.030878
     28          1           0        2.180310    2.083825    2.431206
     29          1           0        1.575156   -0.229309    1.680683
     30          1           0        3.964565    0.277672   -1.848476
     31          1           0        4.577513    2.592460   -1.109463
     32          7           0        2.385376   -1.436587   -0.554057
     33          8           0        2.855190   -1.830342   -1.619360
     34          8           0        1.640444   -2.088084    0.174821
 ---------------------------------------------------------------------

 SCF Done:  E(RHF) =  -669.536050717     A.U. after   15 cycles
 E2 =    -0.2091518169D+01 EUMP2 =    -0.67162756888563D+03

 The electronic state is 1-A.
 Alpha  occ. eigenvalues --  -20.60941 -20.60929 -15.85962 -11.31291 -11.27852
 Alpha  occ. eigenvalues --  -11.27849 -11.27591 -11.26863 -11.26854 -11.21404
 Alpha  occ. eigenvalues --  -11.21061 -11.20940 -11.20900 -11.20782 -11.19940
 Alpha  occ. eigenvalues --   -1.59994  -1.39550  -1.19459  -1.08863  -1.07987
 Alpha  occ. eigenvalues --   -1.04856  -1.02989  -0.95714  -0.95419  -0.86454
 Alpha  occ. eigenvalues --   -0.86255  -0.82536  -0.79089  -0.77771  -0.77588
 Alpha  occ. eigenvalues --   -0.72197  -0.71306  -0.70566  -0.65118  -0.64860
 Alpha  occ. eigenvalues --   -0.64632  -0.62203  -0.60403  -0.58821  -0.56993
 Alpha  occ. eigenvalues --   -0.55359  -0.54750  -0.53188  -0.52947  -0.52063
 Alpha  occ. eigenvalues --   -0.51856  -0.49429  -0.48948  -0.48929  -0.47376
 Alpha  occ. eigenvalues --   -0.46165  -0.45328  -0.45280  -0.44877  -0.43228
 Alpha  occ. eigenvalues --   -0.37438  -0.36457
 Alpha virt. eigenvalues --    0.04923   0.11174   0.16398   0.21068   0.23125
 Alpha virt. eigenvalues --    0.24419   0.26759   0.27341   0.27828   0.27878
 Alpha virt. eigenvalues --    0.29056   0.30828   0.31600   0.32161   0.32778

 Mulliken charges:
               1
     1  C   -0.297397
     2  C   -0.298873
     3  C   -0.475264
     4  H    0.147089
     5  H    0.150374
     6  H    0.149336
     7  H    0.152137
     8  H    0.155761
     9  H    0.153566
    10  H    0.158990
    11  C   -0.297268
    12  C   -0.298253
    13  C   -0.476145
    14  H    0.143768
    15  H    0.148859
    16  H    0.150210
    17  H    0.152029
    18  H    0.147496
    19  H    0.144675
    20  H    0.184799
    21  C   -0.170600
    22  C   -0.218638
    23  C   -0.171807
    24  C    0.157795
    25  C   -0.170639
    26  C   -0.218574
    27  H    0.226003
    28  H    0.223861
    29  H    0.276841
    30  H    0.275877
    31  H    0.223840
    32  N    0.491350
    33  O   -0.459017
    34  O   -0.462180
 Sum of Mulliken charges =  -0.00000

 Dipole moment (field-independent basis, Debye):
    X=              1.5100    Y=              4.6984    Z=              1.4705  Tot=              5.1495
 Quadrupole moment (field-independent basis, Debye-Ang):
   XX=            -87.1435   YY=            -95.8750   ZZ=            -92.4371
   XY=             14.6586   XZ=              1.6532   YZ=             -0.2470

 Normal termination of Gaussian 16 at Thu May  6 10:36:35 2021.
