 Gaussian 16, Revision A.03,
 Gaussian 16:  EM64L-G16RevA.03 25-Dec-2016

 -------------
 #p 6-31g* mp2
 -------------

 ------------------------------------------------------
 Input file generated by CHIRIPA (05-May-2021 14:57:24)
 ------------------------------------------------------
 Symbolic Z-matrix:
 Charge =  0 Multiplicity = 1

                         Standard orientation:
 ---------------------------------------------------------------------
 Center     Atomic      Atomic             Coordinates (Angstroms)
 Number     Number       Type             X           Y           Z
 ---------------------------------------------------------------------
      1          6           0        2.164068    0.442831    1.970637
      2          6           0        2.930391   -0.726687    2.009337
      3          6           0        3.854858   -1.003586    0.997785
      4          6           0        3.987844   -0.084904   -0.042228
      5          6           0        3.238932    1.088968   -0.108908
      6          6           0        2.320509    1.345335    0.913502
      7          1           0        1.448267    0.649958    2.760652
      8          1           0        2.811013   -1.429386    2.829097
      9          1           0        4.460997   -1.901354    1.002930
     10          1           0        3.380231    1.770454   -0.938986
     11          1           0        1.726722    2.254398    0.880847
     12          7           0        4.963337   -0.367176   -1.118860
     13          8           0        5.061673    0.458225   -2.024222
     14          8           0        5.611121   -1.408477   -1.036976
     15          6           0       -1.674344    1.325921    0.136689
     16          6           0       -2.861073    2.002077   -0.164986
     17          6           0       -4.059709    1.298910   -0.317886
     18          6           0       -4.035189   -0.086093   -0.161501
     19          6           0       -2.869068   -0.788307    0.139076
     20          6           0       -1.682115   -0.064661    0.287492
     21          1           0       -0.747753    1.880112    0.253724
     22          1           0       -2.858022    3.081978   -0.282669
     23          1           0       -4.992770    1.797180   -0.551424
     24          1           0       -2.903551   -1.865263    0.250407
     25          1           0       -0.761988   -0.592412    0.521778
     26          7           0       -5.297947   -0.841345   -0.320995
     27          8           0       -5.249799   -2.061148   -0.178170
     28          8           0       -6.311933   -0.199206   -0.585811
 ---------------------------------------------------------------------

 SCF Done:  E(RHF) =  -868.337083724     A.U. after   16 cycles
 E2 =    -0.2600586142D+01 EUMP2 =    -0.87093766986563D+03

 The electronic state is 1-A.
 Alpha  occ. eigenvalues --  -20.61526 -20.61519 -20.61109 -20.61104 -15.86589
 Alpha  occ. eigenvalues --  -15.86164 -11.32181 -11.31624 -11.28825 -11.28753
 Alpha  occ. eigenvalues --  -11.28624 -11.28188 -11.28182 -11.28025 -11.27967
 Alpha  occ. eigenvalues --  -11.27804 -11.27263 -11.27220  -1.60596  -1.60182
 Alpha  occ. eigenvalues --   -1.40143  -1.39733  -1.20403  -1.19806  -1.09765
 Alpha  occ. eigenvalues --   -1.09201  -1.05837  -1.05214  -0.96544  -0.96022
 Alpha  occ. eigenvalues --   -0.87231  -0.86614  -0.83371  -0.82842  -0.78372
 Alpha  occ. eigenvalues --   -0.77857  -0.72802  -0.72381  -0.71924  -0.71506
 Alpha  occ. eigenvalues --   -0.71495  -0.70987  -0.66052  -0.65861  -0.65461
 Alpha  occ. eigenvalues --   -0.65211  -0.63167  -0.62553  -0.56350  -0.55794
 Alpha  occ. eigenvalues --   -0.54161  -0.53899  -0.53551  -0.53287  -0.49579
 Alpha  occ. eigenvalues --   -0.49541  -0.49147  -0.49130  -0.45498  -0.45116
 Alpha  occ. eigenvalues --   -0.38417  -0.37825  -0.37438  -0.36812
 Alpha virt. eigenvalues --    0.04156   0.04664   0.10041   0.10819   0.15532
 Alpha virt. eigenvalues --    0.16121   0.18727   0.21826   0.24755   0.26614
 Alpha virt. eigenvalues --    0.27452   0.28766   0.29562   0.31110   0.32098

 Mulliken charges:
               1
     1  C   -0.176574
     2  C   -0.220420
     3  C   -0.168975
     4  C    0.159212
     5  C   -0.169182
     6  C   -0.224996
     7  H    0.228849
     8  H    0.227761
     9  H    0.279621
    10  H    0.278362
    11  H    0.219222
    12  N    0.488016
    13  O   -0.458107
    14  O   -0.457193
    15  C   -0.173009
    16  C   -0.218696
    17  C   -0.170445
    18  C    0.159329
    19  C   -0.170638
    20  C   -0.223087
    21  H    0.218252
    22  H    0.223644
    23  H    0.276953
    24  H    0.276636
    25  H    0.226117
    26  N    0.487924
    27  O   -0.459371
    28  O   -0.459206
 Sum of Mulliken charges =  -0.00000

 Dipole moment (field-independent basis, Debye):
    X=              1.2269    Y=              3.4971    Z=              4.3177  Tot=              5.6901
 Quadrupole moment (field-independent basis, Debye-Ang):
   XX=           -166.1966   YY=            -98.5104   ZZ=           -105.3234
   XY=            -10.7633   XZ=             13.6124   YZ=             -4.1954

 Normal termination of Gaussian 16 at Thu May  6 19:39:02 2021.
