 Gaussian 16, Revision A.03,
 Gaussian 16:  EM64L-G16RevA.03 25-Dec-2016

 -------------
 #p 6-31g* mp2
 -------------

 ------------------------------------------------------
 Input file generated by CHIRIPA (05-May-2021 14:51:10)
 ------------------------------------------------------
 Symbolic Z-matrix:
 Charge =  0 Multiplicity = 1

                         Standard orientation:
 ---------------------------------------------------------------------
 Center     Atomic      Atomic             Coordinates (Angstroms)
 Number     Number       Type             X           Y           Z
 ---------------------------------------------------------------------
      1          6           0        3.289446    1.163666   -0.325226
      2          6           0        2.058607    1.879563    0.232010
      3          6           0        2.106466    3.392477    0.016151
      4          1           0        4.191008    1.574835    0.149192
      5          1           0        3.375439    1.379200   -1.399258
      6          1           0        1.974180    1.661620    1.304386
      7          1           0        1.159857    1.466510   -0.243649
      8          1           0        2.166822    3.627578   -1.051410
      9          1           0        2.985772    3.823797    0.505421
     10          1           0        1.216956    3.884262    0.422082
     11          6           0        3.256243   -0.349375   -0.117060
     12          6           0        4.487082   -1.065271   -0.674296
     13          6           0        4.439223   -2.578185   -0.458437
     14          1           0        3.170250   -0.564909    0.956972
     15          1           0        2.354681   -0.760543   -0.591478
     16          1           0        5.385832   -0.652218   -0.198637
     17          1           0        4.571509   -0.847328   -1.746672
     18          1           0        3.559917   -3.009506   -0.947706
     19          1           0        4.378866   -2.813287    0.609124
     20          1           0        5.328732   -3.069971   -0.864368
     21          6           0       -3.969755   -0.098206    0.269130
     22          6           0       -4.836444   -0.362808   -0.962464
     23          6           0       -6.227712    0.261571   -0.851482
     24          1           0       -4.479495   -0.490924    1.159569
     25          1           0       -3.875157    0.986621    0.416092
     26          1           0       -4.928237   -1.446804   -1.107865
     27          1           0       -4.324493    0.030416   -1.850100
     28          1           0       -6.154203    1.347103   -0.729754
     29          1           0       -6.761376   -0.138511    0.016700
     30          1           0       -6.830395    0.060150   -1.742584
     31          6           0       -2.575933   -0.716086    0.173156
     32          6           0       -1.709245   -0.451484    1.404750
     33          6           0       -0.317977   -1.075862    1.293767
     34          1           0       -2.670532   -1.800913    0.026193
     35          1           0       -2.066193   -0.323367   -0.717284
     36          1           0       -2.221196   -0.844708    2.292385
     37          1           0       -1.617452    0.632512    1.550150
     38          1           0        0.215687   -0.675780    0.425587
     39          1           0       -0.391487   -2.161394    1.172039
     40          1           0        0.284706   -0.874442    2.184870
 ---------------------------------------------------------------------

 SCF Done:  E(RHF) =  -470.732109380     A.U. after   11 cycles
 E2 =    -0.1583908297D+01 EUMP2 =    -0.47231601767672D+03

 The electronic state is 1-A.
 Alpha  occ. eigenvalues --  -11.21607 -11.21595 -11.21567 -11.21531 -11.21388
 Alpha  occ. eigenvalues --  -11.21388 -11.21329 -11.21306 -11.21087 -11.21066
 Alpha  occ. eigenvalues --  -11.21035 -11.20896  -1.08446  -1.08381  -1.03532
 Alpha  occ. eigenvalues --   -1.03475  -0.95990  -0.95916  -0.86987  -0.86957
 Alpha  occ. eigenvalues --   -0.79603  -0.79574  -0.78311  -0.78123  -0.65135
 Alpha  occ. eigenvalues --   -0.64974  -0.60974  -0.60848  -0.59343  -0.59295
 Alpha  occ. eigenvalues --   -0.57645  -0.57499  -0.55305  -0.55202  -0.52730
 Alpha  occ. eigenvalues --   -0.52592  -0.52445  -0.52299  -0.49943  -0.49901
 Alpha  occ. eigenvalues --   -0.47927  -0.47899  -0.46730  -0.46611  -0.45914
 Alpha  occ. eigenvalues --   -0.45708  -0.45701  -0.45235  -0.43779  -0.43719
 Alpha virt. eigenvalues --    0.21288   0.23078   0.23839   0.24591   0.25256
 Alpha virt. eigenvalues --    0.26257   0.26877   0.27721   0.28008   0.29839
 Alpha virt. eigenvalues --    0.30676   0.31389   0.31787   0.31878   0.32210

 Mulliken charges:
               1
     1  C   -0.298530
     2  C   -0.301653
     3  C   -0.475469
     4  H    0.149554
     5  H    0.149006
     6  H    0.153527
     7  H    0.152837
     8  H    0.154984
     9  H    0.155294
    10  H    0.159900
    11  C   -0.301007
    12  C   -0.299269
    13  C   -0.475530
    14  H    0.151298
    15  H    0.152313
    16  H    0.151628
    17  H    0.151493
    18  H    0.155324
    19  H    0.155322
    20  H    0.159977
    21  C   -0.298177
    22  C   -0.299612
    23  C   -0.475688
    24  H    0.149728
    25  H    0.149463
    26  H    0.151892
    27  H    0.151737
    28  H    0.155170
    29  H    0.155197
    30  H    0.160193
    31  C   -0.298207
    32  C   -0.300617
    33  C   -0.479301
    34  H    0.149514
    35  H    0.148374
    36  H    0.151407
    37  H    0.152020
    38  H    0.163326
    39  H    0.153501
    40  H    0.159083
 Sum of Mulliken charges =  -0.00000

 Dipole moment (field-independent basis, Debye):
    X=              0.0323    Y=              0.0001    Z=              0.0051  Tot=              0.0327
 Quadrupole moment (field-independent basis, Debye-Ang):
   XX=            -85.6448   YY=            -85.4833   ZZ=            -83.8287
   XY=              0.8681   XZ=              0.2668   YZ=             -0.1290

 Normal termination of Gaussian 16 at Wed May  5 15:12:15 2021.
