 Gaussian 16, Revision A.03,
 Gaussian 16:  EM64L-G16RevA.03 25-Dec-2016

 -------------
 #p 6-31g* mp2
 -------------

 ------------------------------------------------------
 Input file generated by CHIRIPA (05-May-2021 14:57:22)
 ------------------------------------------------------
 Symbolic Z-matrix:
 Charge =  0 Multiplicity = 1

                         Standard orientation:
 ---------------------------------------------------------------------
 Center     Atomic      Atomic             Coordinates (Angstroms)
 Number     Number       Type             X           Y           Z
 ---------------------------------------------------------------------
      1          6           0       -2.486048    2.701405   -0.430614
      2          6           0       -3.096788    1.909887   -1.408886
      3          6           0       -3.416403    0.574818   -1.144337
      4          6           0       -3.109764    0.061387    0.114889
      5          6           0       -2.501523    0.824553    1.110334
      6          6           0       -2.190885    2.157172    0.823663
      7          1           0       -2.241250    3.737567   -0.644714
      8          1           0       -3.327177    2.329882   -2.383858
      9          1           0       -3.889442   -0.060399   -1.883358
     10          1           0       -2.284101    0.377812    2.072918
     11          1           0       -1.716600    2.769522    1.585323
     12          7           0       -3.443374   -1.350693    0.406665
     13          8           0       -3.162889   -1.779328    1.523910
     14          8           0       -3.979025   -2.002109   -0.487411
     15          6           0        1.153985   -1.918559   -0.404565
     16          6           0        2.475391   -2.339754   -0.586228
     17          6           0        3.536462   -1.448314   -0.401806
     18          6           0        3.238542   -0.137070   -0.034147
     19          6           0        1.932623    0.312724    0.154394
     20          6           0        0.887288   -0.595996   -0.035484
     21          1           0        0.335832   -2.617762   -0.549947
     22          1           0        2.685490   -3.366277   -0.872854
     23          1           0        4.568829   -1.747789   -0.535785
     24          1           0        1.754570    1.342307    0.440182
     25          1           0       -0.137949   -0.266101    0.106296
     26          7           0        4.353521    0.815804    0.163980
     27          8           0        4.064557    1.965697    0.487835
     28          8           0        5.495292    0.394730   -0.008334
 ---------------------------------------------------------------------

 SCF Done:  E(RHF) =  -868.338050626     A.U. after   16 cycles
 E2 =    -0.2601450349D+01 EUMP2 =    -0.87093950097405D+03

 The electronic state is 1-A.
 Alpha  occ. eigenvalues --  -20.61835 -20.61829 -20.60794 -20.60776 -15.86885
 Alpha  occ. eigenvalues --  -15.85836 -11.32264 -11.31088 -11.28802 -11.28785
 Alpha  occ. eigenvalues --  -11.28469 -11.27788 -11.27737 -11.27661 -11.27622
 Alpha  occ. eigenvalues --  -11.27256 -11.26583 -11.26495  -1.60925  -1.59865
 Alpha  occ. eigenvalues --   -1.40468  -1.39423  -1.20449  -1.19229  -1.09802
 Alpha  occ. eigenvalues --   -1.08627  -1.05814  -1.04617  -0.96633  -0.95490
 Alpha  occ. eigenvalues --   -0.87188  -0.86016  -0.83440  -0.82333  -0.78509
 Alpha  occ. eigenvalues --   -0.77424  -0.73078  -0.72294  -0.72054  -0.71450
 Alpha  occ. eigenvalues --   -0.71186  -0.70302  -0.66043  -0.65741  -0.64871
 Alpha  occ. eigenvalues --   -0.64646  -0.63118  -0.62020  -0.56227  -0.55121
 Alpha  occ. eigenvalues --   -0.54238  -0.53839  -0.52950  -0.52534  -0.49851
 Alpha  occ. eigenvalues --   -0.49844  -0.48823  -0.48797  -0.45858  -0.44855
 Alpha  occ. eigenvalues --   -0.38391  -0.37432  -0.37163  -0.36223
 Alpha virt. eigenvalues --    0.03967   0.05119   0.10137   0.11452   0.15477
 Alpha virt. eigenvalues --    0.16662   0.20551   0.21685   0.26368   0.27438
 Alpha virt. eigenvalues --    0.27653   0.28371   0.30206   0.31272   0.31796

 Mulliken charges:
               1
     1  C   -0.170638
     2  C   -0.216574
     3  C   -0.171832
     4  C    0.156558
     5  C   -0.190694
     6  C   -0.218378
     7  H    0.232226
     8  H    0.228592
     9  H    0.278418
    10  H    0.279527
    11  H    0.230020
    12  N    0.486349
    13  O   -0.458938
    14  O   -0.458403
    15  C   -0.173759
    16  C   -0.218576
    17  C   -0.171813
    18  C    0.158909
    19  C   -0.176446
    20  C   -0.224480
    21  H    0.233088
    22  H    0.224615
    23  H    0.274999
    24  H    0.269164
    25  H    0.233758
    26  N    0.488330
    27  O   -0.463931
    28  O   -0.460092
 Sum of Mulliken charges =  -0.00000

 Dipole moment (field-independent basis, Debye):
    X=             -3.0803    Y=              1.6821    Z=             -1.8161  Tot=              3.9517
 Quadrupole moment (field-independent basis, Debye-Ang):
   XX=           -135.5418   YY=           -100.7490   ZZ=           -101.1725
   XY=            -29.0678   XZ=              2.5301   YZ=              2.1136

 Normal termination of Gaussian 16 at Fri May  7 00:11:55 2021.
