 Gaussian 16, Revision A.03,
 Gaussian 16:  EM64L-G16RevA.03 25-Dec-2016

 -------------
 #p 6-31g* mp2
 -------------

 ------------------------------------------------------
 Input file generated by CHIRIPA (05-May-2021 14:55:24)
 ------------------------------------------------------
 Symbolic Z-matrix:
 Charge =  0 Multiplicity = 1

                         Standard orientation:
 ---------------------------------------------------------------------
 Center     Atomic      Atomic             Coordinates (Angstroms)
 Number     Number       Type             X           Y           Z
 ---------------------------------------------------------------------
      1          6           0        0.580690    0.165920    0.485345
      2          6           0        1.503322    0.385490    1.513480
      3          6           0        2.871258    0.201418    1.291181
      4          6           0        3.283501   -0.204550    0.022901
      5          6           0        2.388783   -0.431376   -1.021762
      6          6           0        1.025581   -0.241094   -0.776769
      7          1           0       -0.480116    0.311323    0.666846
      8          1           0        1.160682    0.701625    2.494653
      9          1           0        3.607167    0.364288    2.069210
     10          1           0        2.760567   -0.746076   -1.989315
     11          1           0        0.311321   -0.412361   -1.577110
     12          7           0        4.729168   -0.402706   -0.224449
     13          8           0        5.066837   -0.760735   -1.350696
     14          8           0        5.497238   -0.196239    0.712608
     15          6           0       -4.525987   -0.210853   -0.138864
     16          6           0       -4.298156   -1.670428    0.255749
     17          6           0       -5.563884   -2.519735    0.135740
     18          1           0       -5.316192    0.214596    0.494788
     19          1           0       -4.898537   -0.171439   -1.171845
     20          1           0       -3.924833   -1.706997    1.287209
     21          1           0       -3.508268   -2.092395   -0.378787
     22          1           0       -5.936123   -2.513036   -0.893820
     23          1           0       -6.355054   -2.125447    0.781641
     24          1           0       -5.378365   -3.559505    0.422659
     25          6           0       -3.269822    0.650896   -0.024124
     26          6           0       -3.497653    2.110471   -0.418737
     27          6           0       -2.231924    2.959779   -0.298727
     28          1           0       -2.897272    0.611483    1.008857
     29          1           0       -2.479617    0.225447   -0.657776
     30          1           0       -4.287540    2.532439    0.215799
     31          1           0       -3.870975    2.147041   -1.450197
     32          1           0       -1.440754    2.565491   -0.944628
     33          1           0       -1.859685    2.953080    0.730833
     34          1           0       -2.417443    3.999547   -0.585647
 ---------------------------------------------------------------------

 SCF Done:  E(RHF) =  -669.534945736     A.U. after   15 cycles
 E2 =    -0.2092665862D+01 EUMP2 =    -0.67162761159801D+03

 The electronic state is 1-A.
 Alpha  occ. eigenvalues --  -20.60673 -20.60668 -15.85728 -11.31059 -11.27652
 Alpha  occ. eigenvalues --  -11.27640 -11.27238 -11.26634 -11.26607 -11.22846
 Alpha  occ. eigenvalues --  -11.22702 -11.22538 -11.22428 -11.22133 -11.21802
 Alpha  occ. eigenvalues --   -1.59750  -1.39304  -1.19231  -1.09591  -1.08615
 Alpha  occ. eigenvalues --   -1.04640  -1.04546  -0.97009  -0.95462  -0.88018
 Alpha  occ. eigenvalues --   -0.86034  -0.82321  -0.80626  -0.79468  -0.77364
 Alpha  occ. eigenvalues --   -0.71945  -0.71074  -0.70307  -0.66213  -0.64877
 Alpha  occ. eigenvalues --   -0.64653  -0.62014  -0.61907  -0.60390  -0.58637
 Alpha  occ. eigenvalues --   -0.56302  -0.55158  -0.53622  -0.53443  -0.52938
 Alpha  occ. eigenvalues --   -0.52731  -0.50944  -0.48901  -0.48703  -0.48696
 Alpha  occ. eigenvalues --   -0.47666  -0.46883  -0.46867  -0.44842  -0.44718
 Alpha  occ. eigenvalues --   -0.37172  -0.36256
 Alpha virt. eigenvalues --    0.05171   0.11354   0.16631   0.19632   0.22398
 Alpha virt. eigenvalues --    0.23650   0.23928   0.25798   0.26982   0.27945
 Alpha virt. eigenvalues --    0.29620   0.29985   0.30510   0.31297   0.31602

 Mulliken charges:
               1
     1  C   -0.175242
     2  C   -0.222630
     3  C   -0.170360
     4  C    0.157627
     5  C   -0.170402
     6  C   -0.225725
     7  H    0.242474
     8  H    0.222727
     9  H    0.275041
    10  H    0.275001
    11  H    0.222190
    12  N    0.488066
    13  O   -0.460961
    14  O   -0.460834
    15  C   -0.296928
    16  C   -0.300818
    17  C   -0.476386
    18  H    0.153712
    19  H    0.153050
    20  H    0.151720
    21  H    0.150651
    22  H    0.156879
    23  H    0.156991
    24  H    0.163169
    25  C   -0.306989
    26  C   -0.299224
    27  C   -0.479587
    28  H    0.146006
    29  H    0.143749
    30  H    0.156342
    31  H    0.155961
    32  H    0.155610
    33  H    0.152278
    34  H    0.166845
 Sum of Mulliken charges =  -0.00000

 Dipole moment (field-independent basis, Debye):
    X=             -5.4469    Y=              0.7530    Z=              0.8503  Tot=              5.5640
 Quadrupole moment (field-independent basis, Debye-Ang):
   XX=           -128.1440   YY=            -95.5022   ZZ=            -89.3982
   XY=              2.9108   XZ=              3.6785   YZ=              1.3593

 Normal termination of Gaussian 16 at Thu May  6 16:02:12 2021.
