 Gaussian 16, Revision A.03,
 Gaussian 16:  EM64L-G16RevA.03 25-Dec-2016

 -------------
 #p 6-31g* mp2
 -------------

 ------------------------------------------------------
 Input file generated by CHIRIPA (05-May-2021 14:53:15)
 ------------------------------------------------------
 Symbolic Z-matrix:
 Charge =  0 Multiplicity = 1

                         Standard orientation:
 ---------------------------------------------------------------------
 Center     Atomic      Atomic             Coordinates (Angstroms)
 Number     Number       Type             X           Y           Z
 ---------------------------------------------------------------------
      1          6           0        3.380179    0.499344   -0.232168
      2          6           0        3.497920    1.996949    0.052969
      3          6           0        2.187915    2.748750   -0.184677
      4          1           0        3.056283    0.354886   -1.271960
      5          1           0        2.591325    0.073152    0.403021
      6          1           0        4.287262    2.419925   -0.581575
      7          1           0        3.821758    2.137855    1.092146
      8          1           0        1.395046    2.354105    0.458918
      9          1           0        1.863195    2.637778   -1.224313
     10          1           0        2.294681    3.817598    0.025149
     11          6           0        4.681667   -0.265875    0.000847
     12          6           0        4.563925   -1.763480   -0.284289
     13          6           0        5.873930   -2.515282   -0.046644
     14          1           0        5.470520    0.160317   -0.634341
     15          1           0        5.005563   -0.121417    1.040640
     16          1           0        4.240087   -1.904386   -1.323467
     17          1           0        3.774583   -2.186456    0.350254
     18          1           0        6.198650   -2.404309    0.992992
     19          1           0        6.666799   -2.120636   -0.690239
     20          1           0        5.767165   -3.584129   -0.256470
     21          6           0       -4.424461   -2.251787   -0.176816
     22          6           0       -4.903235   -1.078513   -0.769035
     23          6           0       -4.204859    0.124323   -0.627600
     24          6           0       -3.025867    0.117679    0.116189
     25          6           0       -2.523173   -1.034735    0.718294
     26          6           0       -3.238049   -2.226199    0.563653
     27          1           0       -4.973385   -3.181762   -0.291815
     28          1           0       -5.824335   -1.095413   -1.344652
     29          1           0       -4.552852    1.047234   -1.075433
     30          1           0       -1.601994   -0.986568    1.286209
     31          1           0       -2.863852   -3.135849    1.024694
     32          7           0       -2.277793    1.385048    0.272911
     33          8           0       -1.241616    1.352751    0.933160
     34          8           0       -2.741796    2.386711   -0.267470
 ---------------------------------------------------------------------

 SCF Done:  E(RHF) =  -669.536140628     A.U. after   15 cycles
 E2 =    -0.2090922123D+01 EUMP2 =    -0.67162706275120D+03

 The electronic state is 1-A.
 Alpha  occ. eigenvalues --  -20.60932 -20.60924 -15.85964 -11.31285 -11.27849
 Alpha  occ. eigenvalues --  -11.27844 -11.27585 -11.26855 -11.26845 -11.21289
 Alpha  occ. eigenvalues --  -11.20874 -11.20837 -11.20658 -11.20590 -11.19534
 Alpha  occ. eigenvalues --   -1.59986  -1.39544  -1.19452  -1.08856  -1.07791
 Alpha  occ. eigenvalues --   -1.04849  -1.02799  -0.95700  -0.95216  -0.86254
 Alpha  occ. eigenvalues --   -0.86223  -0.82535  -0.78907  -0.77598  -0.77544
 Alpha  occ. eigenvalues --   -0.72190  -0.71299  -0.70562  -0.65109  -0.64853
 Alpha  occ. eigenvalues --   -0.64430  -0.62197  -0.60196  -0.58675  -0.56824
 Alpha  occ. eigenvalues --   -0.55354  -0.54493  -0.53180  -0.52942  -0.51913
 Alpha  occ. eigenvalues --   -0.51634  -0.49253  -0.48936  -0.48846  -0.47179
 Alpha  occ. eigenvalues --   -0.45960  -0.45152  -0.45052  -0.44795  -0.43068
 Alpha  occ. eigenvalues --   -0.37430  -0.36450
 Alpha virt. eigenvalues --    0.04930   0.11205   0.16415   0.21313   0.23432
 Alpha virt. eigenvalues --    0.25106   0.27071   0.27335   0.27910   0.28393
 Alpha virt. eigenvalues --    0.28917   0.30884   0.32082   0.32274   0.32566

 Mulliken charges:
               1
     1  C   -0.297235
     2  C   -0.299466
     3  C   -0.484501
     4  H    0.147367
     5  H    0.150405
     6  H    0.147056
     7  H    0.149291
     8  H    0.182813
     9  H    0.150322
    10  H    0.156348
    11  C   -0.297655
    12  C   -0.298520
    13  C   -0.475198
    14  H    0.148583
    15  H    0.148817
    16  H    0.150756
    17  H    0.148876
    18  H    0.154813
    19  H    0.155231
    20  H    0.157823
    21  C   -0.170603
    22  C   -0.218583
    23  C   -0.170597
    24  C    0.157973
    25  C   -0.170499
    26  C   -0.218495
    27  H    0.225971
    28  H    0.223793
    29  H    0.275900
    30  H    0.275306
    31  H    0.223805
    32  N    0.490657
    33  O   -0.462136
    34  O   -0.458417
 Sum of Mulliken charges =  -0.00000

 Dipole moment (field-independent basis, Debye):
    X=             -2.9406    Y=             -4.4213    Z=             -0.5000  Tot=              5.3334
 Quadrupole moment (field-independent basis, Debye-Ang):
   XX=            -78.3784   YY=            -95.7946   ZZ=            -93.1342
   XY=             12.1721   XZ=              3.4453   YZ=             -2.0688

 Normal termination of Gaussian 16 at Wed May  5 18:39:04 2021.
