 Gaussian 16, Revision A.03,
 Gaussian 16:  EM64L-G16RevA.03 25-Dec-2016

 -------------
 #p 6-31g* mp2
 -------------

 ------------------------------------------------------
 Input file generated by CHIRIPA (05-May-2021 14:53:11)
 ------------------------------------------------------
 Symbolic Z-matrix:
 Charge =  0 Multiplicity = 1

                         Standard orientation:
 ---------------------------------------------------------------------
 Center     Atomic      Atomic             Coordinates (Angstroms)
 Number     Number       Type             X           Y           Z
 ---------------------------------------------------------------------
      1          6           0       -4.252946   -0.592582    0.427548
      2          6           0       -4.009429   -1.806140   -0.470206
      3          6           0       -4.548359   -3.104296    0.131574
      4          1           0       -3.783615   -0.767713    1.405301
      5          1           0       -5.331507   -0.492248    0.612035
      6          1           0       -2.931765   -1.903341   -0.654075
      7          1           0       -4.479231   -1.628019   -1.446000
      8          1           0       -5.627853   -3.032182    0.299185
      9          1           0       -4.071594   -3.309068    1.095610
     10          1           0       -4.363581   -3.958979   -0.526632
     11          6           0       -3.719802    0.712692   -0.160453
     12          6           0       -3.963319    1.926250    0.737301
     13          6           0       -3.424390    3.224406    0.135521
     14          1           0       -2.641242    0.612358   -0.344940
     15          1           0       -4.189134    0.887823   -1.138207
     16          1           0       -3.493517    1.748129    1.713095
     17          1           0       -5.040983    2.023451    0.921170
     18          1           0       -3.901155    3.429177   -0.828515
     19          1           0       -2.344896    3.152291   -0.032090
     20          1           0       -3.609167    4.079089    0.793726
     21          6           0        0.697092    0.294356   -0.741750
     22          6           0        1.162758   -0.985266   -0.421993
     23          6           0        2.500095   -1.186103   -0.067395
     24          6           0        3.348047   -0.079911   -0.042710
     25          6           0        2.914112    1.207260   -0.356052
     26          6           0        1.572713    1.384613   -0.707818
     27          1           0       -0.343361    0.441249   -1.016110
     28          1           0        0.485002   -1.833818   -0.447501
     29          1           0        2.887087   -2.165933    0.184774
     30          1           0        3.613562    2.033705   -0.321733
     31          1           0        1.213847    2.379518   -0.955661
     32          7           0        4.765977   -0.280097    0.331188
     33          8           0        5.492905    0.710867    0.345428
     34          8           0        5.123573   -1.424177    0.602930
 ---------------------------------------------------------------------

 SCF Done:  E(RHF) =  -669.535539119     A.U. after   15 cycles
 E2 =    -0.2091441809D+01 EUMP2 =    -0.67162698092808D+03

 The electronic state is 1-A.
 Alpha  occ. eigenvalues --  -20.60755 -20.60750 -15.85809 -11.31178 -11.27748
 Alpha  occ. eigenvalues --  -11.27744 -11.27467 -11.26766 -11.26755 -11.22586
 Alpha  occ. eigenvalues --  -11.22543 -11.22483 -11.22308 -11.22005 -11.21849
 Alpha  occ. eigenvalues --   -1.59831  -1.39384  -1.19350  -1.09418  -1.08744
 Alpha  occ. eigenvalues --   -1.04755  -1.04451  -0.96898  -0.95580  -0.87910
 Alpha  occ. eigenvalues --   -0.86151  -0.82414  -0.80516  -0.79255  -0.77458
 Alpha  occ. eigenvalues --   -0.72027  -0.71154  -0.70479  -0.66052  -0.65002
 Alpha  occ. eigenvalues --   -0.64753  -0.62107  -0.61843  -0.60262  -0.58515
 Alpha  occ. eigenvalues --   -0.56223  -0.55255  -0.53559  -0.53313  -0.53083
 Alpha  occ. eigenvalues --   -0.52846  -0.50837  -0.48837  -0.48782  -0.48779
 Alpha  occ. eigenvalues --   -0.47556  -0.46778  -0.46694  -0.44789  -0.44724
 Alpha  occ. eigenvalues --   -0.37326  -0.36360
 Alpha virt. eigenvalues --    0.05063   0.11286   0.16480   0.18434   0.22618
 Alpha virt. eigenvalues --    0.22943   0.24898   0.26097   0.26401   0.27192
 Alpha virt. eigenvalues --    0.29711   0.30398   0.30958   0.30989   0.31497

 Mulliken charges:
               1
     1  C   -0.298894
     2  C   -0.298473
     3  C   -0.476518
     4  H    0.151954
     5  H    0.153875
     6  H    0.142002
     7  H    0.154462
     8  H    0.158363
     9  H    0.156452
    10  H    0.162022
    11  C   -0.303486
    12  C   -0.300172
    13  C   -0.475060
    14  H    0.141457
    15  H    0.152379
    16  H    0.154921
    17  H    0.156028
    18  H    0.156895
    19  H    0.147606
    20  H    0.164884
    21  C   -0.177521
    22  C   -0.222030
    23  C   -0.170807
    24  C    0.158527
    25  C   -0.170721
    26  C   -0.221065
    27  H    0.236549
    28  H    0.223971
    29  H    0.275624
    30  H    0.275629
    31  H    0.224020
    32  N    0.487984
    33  O   -0.460403
    34  O   -0.460455
 Sum of Mulliken charges =  -0.00000

 Dipole moment (field-independent basis, Debye):
    X=             -5.2585    Y=              0.7145    Z=             -1.2467  Tot=              5.4513
 Quadrupole moment (field-independent basis, Debye-Ang):
   XX=           -126.7307   YY=            -90.7571   ZZ=            -95.2831
   XY=              3.2324   XZ=             -4.0521   YZ=             -0.3292

 Normal termination of Gaussian 16 at Wed May  5 21:41:15 2021.
