 Gaussian 16, Revision A.03,
 Gaussian 16:  EM64L-G16RevA.03 25-Dec-2016

 -------------
 #p 6-31g* mp2
 -------------

 ------------------------------------------------------
 Input file generated by CHIRIPA (05-May-2021 14:57:26)
 ------------------------------------------------------
 Symbolic Z-matrix:
 Charge =  0 Multiplicity = 1

                         Standard orientation:
 ---------------------------------------------------------------------
 Center     Atomic      Atomic             Coordinates (Angstroms)
 Number     Number       Type             X           Y           Z
 ---------------------------------------------------------------------
      1          6           0        2.607620    2.462674   -0.108370
      2          6           0        3.818791    2.026326    0.438609
      3          6           0        4.179519    0.676927    0.379048
      4          6           0        3.301279   -0.212848   -0.237625
      5          6           0        2.087617    0.191142   -0.791796
      6          6           0        1.747415    1.545307   -0.720747
      7          1           0        2.335371    3.512771   -0.057639
      8          1           0        4.488798    2.736525    0.914794
      9          1           0        5.111041    0.311984    0.794380
     10          1           0        1.440377   -0.540424   -1.260101
     11          1           0        0.806161    1.881336   -1.146388
     12          7           0        3.672301   -1.643919   -0.306761
     13          8           0        2.881131   -2.407884   -0.855437
     14          8           0        4.747251   -1.974530    0.189036
     15          6           0       -4.457766   -0.024717   -1.983585
     16          6           0       -5.018858   -0.666625   -0.874689
     17          6           0       -4.353091   -0.672045    0.354651
     18          6           0       -3.122414   -0.022844    0.439868
     19          6           0       -2.537454    0.625450   -0.646790
     20          6           0       -3.221035    0.618138   -1.866303
     21          1           0       -4.981869   -0.025452   -2.934748
     22          1           0       -5.979179   -1.166681   -0.962845
     23          1           0       -4.764590   -1.161272    1.229146
     24          1           0       -1.578689    1.115445   -0.528083
     25          1           0       -2.782886    1.117462   -2.725807
     26          7           0       -2.408168   -0.021844    1.736113
     27          8           0       -1.325180    0.557267    1.785162
     28          8           0       -2.944853   -0.600187    2.678515
 ---------------------------------------------------------------------

 SCF Done:  E(RHF) =  -868.336874618     A.U. after   16 cycles
 E2 =    -0.2600073266D+01 EUMP2 =    -0.87093694788447D+03

 The electronic state is 1-A.
 Alpha  occ. eigenvalues --  -20.61119 -20.61102 -20.60471 -20.60465 -15.86168
 Alpha  occ. eigenvalues --  -15.85528 -11.31629 -11.30878 -11.28301 -11.28137
 Alpha  occ. eigenvalues --  -11.27909 -11.27529 -11.27460 -11.27275 -11.27246
 Alpha  occ. eigenvalues --  -11.27165 -11.26617 -11.26458  -1.60183  -1.59544
 Alpha  occ. eigenvalues --   -1.39737  -1.39099  -1.19794  -1.19068  -1.09160
 Alpha  occ. eigenvalues --   -1.08468  -1.05226  -1.04502  -0.95990  -0.95303
 Alpha  occ. eigenvalues --   -0.86613  -0.85907  -0.82828  -0.82162  -0.77883
 Alpha  occ. eigenvalues --   -0.77200  -0.72384  -0.71754  -0.71505  -0.70908
 Alpha  occ. eigenvalues --   -0.70858  -0.70198  -0.65449  -0.65252  -0.64748
 Alpha  occ. eigenvalues --   -0.64560  -0.62622  -0.61842  -0.55691  -0.55008
 Alpha  occ. eigenvalues --   -0.53523  -0.53348  -0.52765  -0.52615  -0.49152
 Alpha  occ. eigenvalues --   -0.49135  -0.48511  -0.48503  -0.45123  -0.44510
 Alpha  occ. eigenvalues --   -0.37746  -0.37019  -0.36828  -0.36062
 Alpha virt. eigenvalues --    0.04671   0.05375   0.10818   0.11540   0.16171
 Alpha virt. eigenvalues --    0.16747   0.19172   0.22105   0.25017   0.27431
 Alpha virt. eigenvalues --    0.28518   0.29165   0.30403   0.31197   0.32518

 Mulliken charges:
               1
     1  C   -0.167712
     2  C   -0.217955
     3  C   -0.169065
     4  C    0.159068
     5  C   -0.165269
     6  C   -0.210610
     7  H    0.225042
     8  H    0.223327
     9  H    0.275584
    10  H    0.272158
    11  H    0.210253
    12  N    0.488592
    13  O   -0.461723
    14  O   -0.460537
    15  C   -0.170167
    16  C   -0.217882
    17  C   -0.169220
    18  C    0.160226
    19  C   -0.177331
    20  C   -0.218842
    21  H    0.227407
    22  H    0.225811
    23  H    0.277802
    24  H    0.271670
    25  H    0.220952
    26  N    0.487624
    27  O   -0.462030
    28  O   -0.457173
 Sum of Mulliken charges =  -0.00000

 Dipole moment (field-independent basis, Debye):
    X=             -3.9177    Y=              4.9542    Z=             -4.1733  Tot=              7.5703
 Quadrupole moment (field-independent basis, Debye-Ang):
   XX=            -90.5983   YY=           -106.6668   ZZ=           -108.1615
   XY=             20.8528   XZ=             15.3231   YZ=             -1.7361

 Normal termination of Gaussian 16 at Wed May  5 16:30:22 2021.
