 Gaussian 16, Revision A.03,
 Gaussian 16:  EM64L-G16RevA.03 25-Dec-2016

 -------------
 #p 6-31g* mp2
 -------------

 ------------------------------------------------------
 Input file generated by CHIRIPA (05-May-2021 14:55:21)
 ------------------------------------------------------
 Symbolic Z-matrix:
 Charge =  0 Multiplicity = 1

                         Standard orientation:
 ---------------------------------------------------------------------
 Center     Atomic      Atomic             Coordinates (Angstroms)
 Number     Number       Type             X           Y           Z
 ---------------------------------------------------------------------
      1          6           0       -1.799924    1.523743   -0.195074
      2          6           0       -1.614528    0.137439   -0.212720
      3          6           0       -2.711321   -0.726540   -0.141080
      4          6           0       -3.985238   -0.167496   -0.052226
      5          6           0       -4.202433    1.209357   -0.032447
      6          6           0       -3.091009    2.054342   -0.105153
      7          1           0       -0.942226    2.187525   -0.251140
      8          1           0       -0.613003   -0.277442   -0.282486
      9          1           0       -2.596452   -1.803613   -0.152801
     10          1           0       -5.212909    1.593309    0.037817
     11          1           0       -3.237995    3.130561   -0.091246
     12          7           0       -5.154108   -1.072098    0.024180
     13          8           0       -6.266209   -0.554570    0.101854
     14          8           0       -4.936035   -2.281524    0.004946
     15          6           0        5.446540   -0.393066    0.326623
     16          6           0        6.678200   -0.280374   -0.572432
     17          6           0        7.854245   -1.119516   -0.071879
     18          1           0        5.714266   -0.080867    1.345348
     19          1           0        5.144239   -1.447446    0.392116
     20          1           0        6.977259    0.773651   -0.637321
     21          1           0        6.407463   -0.592694   -1.589178
     22          1           0        7.579356   -2.178171   -0.024058
     23          1           0        8.152390   -0.804063    0.933207
     24          1           0        8.724025   -1.024215   -0.729344
     25          6           0        4.262501    0.440187   -0.160687
     26          6           0        3.030840    0.327495    0.738367
     27          6           0        1.854796    1.166637    0.237816
     28          1           0        4.564801    1.494568   -0.226179
     29          1           0        3.994775    0.127988   -1.179411
     30          1           0        3.301577    0.639815    1.755114
     31          1           0        2.731782   -0.726530    0.803258
     32          1           0        1.556650    0.851184   -0.767271
     33          1           0        2.129683    2.225293    0.189994
     34          1           0        0.985015    1.071336    0.895280
 ---------------------------------------------------------------------

 SCF Done:  E(RHF) =  -669.534320215     A.U. after   15 cycles
 E2 =    -0.2092245547D+01 EUMP2 =    -0.67162656576183D+03

 The electronic state is 1-A.
 Alpha  occ. eigenvalues --  -20.60693 -20.60688 -15.85744 -11.31086 -11.27656
 Alpha  occ. eigenvalues --  -11.27636 -11.27320 -11.26655 -11.26560 -11.22680
 Alpha  occ. eigenvalues --  -11.22514 -11.22216 -11.22128 -11.22010 -11.21495
 Alpha  occ. eigenvalues --   -1.59769  -1.39323  -1.19251  -1.09231  -1.08646
 Alpha  occ. eigenvalues --   -1.04663  -1.04377  -0.96888  -0.95481  -0.87937
 Alpha  occ. eigenvalues --   -0.86032  -0.82320  -0.80481  -0.78975  -0.77377
 Alpha  occ. eigenvalues --   -0.71964  -0.71092  -0.70356  -0.65882  -0.64908
 Alpha  occ. eigenvalues --   -0.64715  -0.62150  -0.61673  -0.60207  -0.58431
 Alpha  occ. eigenvalues --   -0.56160  -0.55162  -0.53590  -0.53313  -0.52925
 Alpha  occ. eigenvalues --   -0.52682  -0.50775  -0.48772  -0.48721  -0.48711
 Alpha  occ. eigenvalues --   -0.47464  -0.46532  -0.46417  -0.44734  -0.44604
 Alpha  occ. eigenvalues --   -0.37210  -0.36253
 Alpha virt. eigenvalues --    0.05144   0.11275   0.16642   0.20612   0.22354
 Alpha virt. eigenvalues --    0.23687   0.25755   0.26149   0.26841   0.27559
 Alpha virt. eigenvalues --    0.29131   0.29970   0.30604   0.31208   0.31996

 Mulliken charges:
               1
     1  C   -0.176100
     2  C   -0.223734
     3  C   -0.172004
     4  C    0.158302
     5  C   -0.171199
     6  C   -0.219004
     7  H    0.233031
     8  H    0.230744
     9  H    0.275123
    10  H    0.275119
    11  H    0.223004
    12  N    0.488067
    13  O   -0.460743
    14  O   -0.460762
    15  C   -0.299088
    16  C   -0.300211
    17  C   -0.476160
    18  H    0.151139
    19  H    0.150704
    20  H    0.152517
    21  H    0.152586
    22  H    0.156073
    23  H    0.155943
    24  H    0.161827
    25  C   -0.299403
    26  C   -0.300586
    27  C   -0.491338
    28  H    0.151003
    29  H    0.150346
    30  H    0.156986
    31  H    0.153004
    32  H    0.153106
    33  H    0.159529
    34  H    0.162183
 Sum of Mulliken charges =  -0.00000

 Dipole moment (field-independent basis, Debye):
    X=              4.4166    Y=              3.1967    Z=             -0.2394  Tot=              5.4573
 Quadrupole moment (field-independent basis, Debye-Ang):
   XX=           -126.0693   YY=            -92.5665   ZZ=            -95.3496
   XY=            -15.5393   XZ=              0.7819   YZ=              0.6780

 Normal termination of Gaussian 16 at Thu May  6 12:30:29 2021.
