 Gaussian 16, Revision A.03,
 Gaussian 16:  EM64L-G16RevA.03 25-Dec-2016

 -------------
 #p 6-31g* mp2
 -------------

 ------------------------------------------------------
 Input file generated by CHIRIPA (05-May-2021 14:51:08)
 ------------------------------------------------------
 Symbolic Z-matrix:
 Charge =  0 Multiplicity = 1

                         Standard orientation:
 ---------------------------------------------------------------------
 Center     Atomic      Atomic             Coordinates (Angstroms)
 Number     Number       Type             X           Y           Z
 ---------------------------------------------------------------------
      1          6           0        3.325060    0.585453   -0.136917
      2          6           0        3.510125   -0.759077    0.567338
      3          6           0        4.870216   -1.395256    0.278852
      4          1           0        3.443040    0.444161   -1.219997
      5          1           0        4.125124    1.269632    0.178030
      6          1           0        2.709152   -1.440072    0.252213
      7          1           0        3.391502   -0.614603    1.648852
      8          1           0        5.680887   -0.737943    0.609536
      9          1           0        4.994660   -1.568103   -0.795038
     10          1           0        4.981257   -2.355497    0.792142
     11          6           0        1.970218    1.233889    0.141760
     12          6           0        1.785153    2.578419   -0.562494
     13          6           0        0.425063    3.214599   -0.274008
     14          1           0        1.170155    0.549710   -0.173187
     15          1           0        1.852239    1.375181    1.224841
     16          1           0        1.903777    2.433945   -1.644008
     17          1           0        2.586127    3.259414   -0.247370
     18          1           0        0.300618    3.387445    0.799881
     19          1           0       -0.385609    2.557286   -0.604693
     20          1           0        0.314022    4.174840   -0.787299
     21          6           0       -2.831615   -0.223156    0.277366
     22          6           0       -4.261413    0.204155   -0.055907
     23          6           0       -4.614566    1.579686    0.510655
     24          1           0       -2.702702   -0.230271    1.368364
     25          1           0       -2.131221    0.526976   -0.115250
     26          1           0       -4.958828   -0.547259    0.336015
     27          1           0       -4.386992    0.210070   -1.146232
     28          1           0       -3.942142    2.345377    0.110449
     29          1           0       -4.517226    1.583744    1.601118
     30          1           0       -5.641073    1.865382    0.260612
     31          6           0       -2.463664   -1.596187   -0.282210
     32          6           0       -1.033867   -2.023498    0.051063
     33          6           0       -0.680712   -3.399029   -0.515498
     34          1           0       -3.164057   -2.346317    0.110407
     35          1           0       -2.592577   -1.589071   -1.373207
     36          1           0       -0.908286   -2.029411    1.141389
     37          1           0       -0.336451   -1.272082   -0.340858
     38          1           0       -0.778052   -3.403086   -1.605962
     39          1           0       -1.353136   -4.164719   -0.115292
     40          1           0        0.345795   -3.684724   -0.265455
 ---------------------------------------------------------------------

 SCF Done:  E(RHF) =  -470.733191538     A.U. after   11 cycles
 E2 =    -0.1583999719D+01 EUMP2 =    -0.47231719125634D+03

 The electronic state is 1-A.
 Alpha  occ. eigenvalues --  -11.21616 -11.21614 -11.21599 -11.21595 -11.21418
 Alpha  occ. eigenvalues --  -11.21396 -11.21357 -11.21332 -11.21108 -11.21103
 Alpha  occ. eigenvalues --  -11.21068 -11.21048  -1.08464  -1.08415  -1.03544
 Alpha  occ. eigenvalues --   -1.03534  -0.95997  -0.95979  -0.87024  -0.86984
 Alpha  occ. eigenvalues --   -0.79613  -0.79599  -0.78389  -0.78112  -0.65224
 Alpha  occ. eigenvalues --   -0.64937  -0.60955  -0.60929  -0.59383  -0.59332
 Alpha  occ. eigenvalues --   -0.57630  -0.57565  -0.55344  -0.55216  -0.52697
 Alpha  occ. eigenvalues --   -0.52670  -0.52483  -0.52344  -0.50028  -0.49845
 Alpha  occ. eigenvalues --   -0.47949  -0.47928  -0.46784  -0.46655  -0.46164
 Alpha  occ. eigenvalues --   -0.45773  -0.45734  -0.45077  -0.43796  -0.43783
 Alpha virt. eigenvalues --    0.20106   0.21965   0.23633   0.24259   0.25304
 Alpha virt. eigenvalues --    0.26819   0.27011   0.27317   0.27423   0.29556
 Alpha virt. eigenvalues --    0.30883   0.31508   0.31665   0.31832   0.32160

 Mulliken charges:
               1
     1  C   -0.297734
     2  C   -0.301880
     3  C   -0.475702
     4  H    0.149188
     5  H    0.149605
     6  H    0.154043
     7  H    0.152045
     8  H    0.155228
     9  H    0.155153
    10  H    0.160174
    11  C   -0.307143
    12  C   -0.299077
    13  C   -0.479518
    14  H    0.157932
    15  H    0.149907
    16  H    0.151462
    17  H    0.152168
    18  H    0.156037
    19  H    0.157568
    20  H    0.160360
    21  C   -0.303505
    22  C   -0.299490
    23  C   -0.476026
    24  H    0.150122
    25  H    0.153861
    26  H    0.152012
    27  H    0.151688
    28  H    0.155982
    29  H    0.155229
    30  H    0.160141
    31  C   -0.297741
    32  C   -0.307841
    33  C   -0.476293
    34  H    0.149799
    35  H    0.149150
    36  H    0.152727
    37  H    0.159113
    38  H    0.154927
    39  H    0.155595
    40  H    0.160732
 Sum of Mulliken charges =  -0.00000

 Dipole moment (field-independent basis, Debye):
    X=             -0.0063    Y=              0.0008    Z=              0.0205  Tot=              0.0214
 Quadrupole moment (field-independent basis, Debye-Ang):
   XX=            -85.6146   YY=            -85.6752   ZZ=            -83.4824
   XY=              1.2932   XZ=              0.2721   YZ=             -0.3887

 Normal termination of Gaussian 16 at Thu May  6 13:12:39 2021.
