 Gaussian 16, Revision A.03,
 Gaussian 16:  EM64L-G16RevA.03 25-Dec-2016

 -------------
 #p 6-31g* mp2
 -------------

 ------------------------------------------------------
 Input file generated by CHIRIPA (05-May-2021 14:53:16)
 ------------------------------------------------------
 Symbolic Z-matrix:
 Charge =  0 Multiplicity = 1

                         Standard orientation:
 ---------------------------------------------------------------------
 Center     Atomic      Atomic             Coordinates (Angstroms)
 Number     Number       Type             X           Y           Z
 ---------------------------------------------------------------------
      1          6           0        4.427999   -0.131861    0.245124
      2          6           0        4.879110   -1.399234   -0.481684
      3          6           0        5.958609   -2.166417    0.282454
      4          1           0        5.297694    0.519566    0.407047
      5          1           0        4.050954   -0.403145    1.240933
      6          1           0        5.253907   -1.125793   -1.476356
      7          1           0        4.008207   -2.047634   -0.642067
      8          1           0        5.591848   -2.467561    1.269064
      9          1           0        6.844626   -1.540482    0.430034
     10          1           0        6.266404   -3.068773   -0.255019
     11          6           0        3.349107    0.645962   -0.506349
     12          6           0        2.897997    1.913336    0.220459
     13          6           0        1.818498    2.680518   -0.543679
     14          1           0        3.726153    0.917247   -1.502159
     15          1           0        2.479413   -0.005465   -0.668273
     16          1           0        3.768900    2.561735    0.380841
     17          1           0        2.523199    1.639894    1.215131
     18          1           0        0.932481    2.054583   -0.691259
     19          1           0        2.185259    2.981662   -1.530289
     20          1           0        1.510702    3.582874   -0.006207
     21          6           0       -0.632512    0.232504    0.728223
     22          6           0       -1.618974    0.200345    1.719372
     23          6           0       -2.954944   -0.038882    1.383957
     24          6           0       -3.270479   -0.242713    0.041505
     25          6           0       -2.310409   -0.216750   -0.968882
     26          6           0       -0.980763    0.024222   -0.610381
     27          1           0        0.402846    0.419019    0.997747
     28          1           0       -1.351425    0.361758    2.759761
     29          1           0       -3.738720   -0.069142    2.131085
     30          1           0       -2.607752   -0.381248   -1.997447
     31          1           0       -0.216769    0.048635   -1.382237
     32          7           0       -4.681463   -0.496895   -0.325804
     33          8           0       -4.933584   -0.673437   -1.515723
     34          8           0       -5.508555   -0.514768    0.583172
 ---------------------------------------------------------------------

 SCF Done:  E(RHF) =  -669.533308071     A.U. after   15 cycles
 E2 =    -0.2094193548D+01 EUMP2 =    -0.67162750161861D+03

 The electronic state is 1-A.
 Alpha  occ. eigenvalues --  -20.60758 -20.60752 -15.85812 -11.31184 -11.27767
 Alpha  occ. eigenvalues --  -11.27762 -11.27451 -11.26758 -11.26743 -11.22860
 Alpha  occ. eigenvalues --  -11.22635 -11.22410 -11.22343 -11.22083 -11.21717
 Alpha  occ. eigenvalues --   -1.59833  -1.39386  -1.19368  -1.09531  -1.08759
 Alpha  occ. eigenvalues --   -1.04782  -1.04523  -0.96962  -0.95591  -0.87969
 Alpha  occ. eigenvalues --   -0.86185  -0.82427  -0.80604  -0.79309  -0.77469
 Alpha  occ. eigenvalues --   -0.72033  -0.71157  -0.70604  -0.66211  -0.65019
 Alpha  occ. eigenvalues --   -0.64776  -0.62214  -0.61811  -0.60313  -0.58559
 Alpha  occ. eigenvalues --   -0.56337  -0.55167  -0.53611  -0.53447  -0.53017
 Alpha  occ. eigenvalues --   -0.52865  -0.50894  -0.48891  -0.48788  -0.48779
 Alpha  occ. eigenvalues --   -0.47665  -0.46818  -0.46760  -0.44791  -0.44780
 Alpha  occ. eigenvalues --   -0.37288  -0.36363
 Alpha virt. eigenvalues --    0.05056   0.11104   0.16516   0.18922   0.22635
 Alpha virt. eigenvalues --    0.24044   0.24611   0.25468   0.27163   0.28100
 Alpha virt. eigenvalues --    0.29720   0.29851   0.30882   0.31440   0.31752

 Mulliken charges:
               1
     1  C   -0.297937
     2  C   -0.300559
     3  C   -0.476297
     4  H    0.153615
     5  H    0.147881
     6  H    0.153844
     7  H    0.151955
     8  H    0.155745
     9  H    0.156638
    10  H    0.163011
    11  C   -0.302853
    12  C   -0.306866
    13  C   -0.483136
    14  H    0.155330
    15  H    0.141689
    16  H    0.160746
    17  H    0.144203
    18  H    0.154825
    19  H    0.159480
    20  H    0.165730
    21  C   -0.172997
    22  C   -0.221878
    23  C   -0.170357
    24  C    0.157885
    25  C   -0.171471
    26  C   -0.224539
    27  H    0.237045
    28  H    0.223665
    29  H    0.275679
    30  H    0.275931
    31  H    0.226737
    32  N    0.488040
    33  O   -0.460354
    34  O   -0.460428
 Sum of Mulliken charges =  -0.00000

 Dipole moment (field-independent basis, Debye):
    X=              5.1741    Y=              0.9285    Z=              1.2655  Tot=              5.4070
 Quadrupole moment (field-independent basis, Debye-Ang):
   XX=           -126.5338   YY=            -95.8249   ZZ=            -89.9745
   XY=             -3.3173   XZ=             -6.3420   YZ=              0.1124

 Normal termination of Gaussian 16 at Thu May  6 18:54:57 2021.
