 Gaussian 16, Revision A.03,
 Gaussian 16:  EM64L-G16RevA.03 25-Dec-2016

 -------------
 #p 6-31g* mp2
 -------------

 ------------------------------------------------------
 Input file generated by CHIRIPA (05-May-2021 14:51:13)
 ------------------------------------------------------
 Symbolic Z-matrix:
 Charge =  0 Multiplicity = 1

                         Standard orientation:
 ---------------------------------------------------------------------
 Center     Atomic      Atomic             Coordinates (Angstroms)
 Number     Number       Type             X           Y           Z
 ---------------------------------------------------------------------
      1          6           0       -3.822244    1.023931   -0.099930
      2          6           0       -2.498623    1.785691   -0.175660
      3          6           0       -2.684047    3.301665   -0.103306
      4          1           0       -4.475533    1.354368   -0.919056
      5          1           0       -4.335830    1.287230    0.835109
      6          1           0       -1.987042    1.519976   -1.109629
      7          1           0       -1.848336    1.453263    0.643628
      8          1           0       -3.172276    3.585730    0.834532
      9          1           0       -3.311771    3.652822   -0.928687
     10          1           0       -1.725261    3.826515   -0.159188
     11          6           0       -3.653311   -0.492690   -0.171003
     12          6           0       -4.976931   -1.254450   -0.095273
     13          6           0       -4.791508   -2.770424   -0.167627
     14          1           0       -3.139725   -0.755989   -1.106042
     15          1           0       -3.000021   -0.823127    0.648123
     16          1           0       -5.627219   -0.922022   -0.914561
     17          1           0       -5.488512   -0.988735    0.838696
     18          1           0       -4.163784   -3.121581    0.657754
     19          1           0       -4.303279   -3.054489   -1.105465
     20          1           0       -5.750293   -3.295274   -0.111745
     21          6           0        3.116819    0.009704    0.484809
     22          6           0        1.852928   -0.804290    0.205559
     23          6           0        0.619070   -0.241052    0.911356
     24          1           0        3.294182    0.039363    1.568602
     25          1           0        2.953325    1.048555    0.166292
     26          1           0        2.019243   -1.841612    0.523235
     27          1           0        1.678661   -0.832176   -0.877709
     28          1           0        0.425233    0.786494    0.587045
     29          1           0        0.767752   -0.228677    1.995949
     30          1           0       -0.273024   -0.838140    0.698007
     31          6           0        4.358736   -0.540944   -0.213876
     32          6           0        5.622626    0.273048    0.065375
     33          6           0        6.856485   -0.290189   -0.640423
     34          1           0        4.522229   -1.579795    0.104640
     35          1           0        4.181373   -0.570604   -1.297669
     36          1           0        5.796894    0.300936    1.148642
     37          1           0        5.456311    1.310370   -0.252301
     38          1           0        6.707803   -0.302563   -1.725016
     39          1           0        7.050321   -1.317735   -0.316112
     40          1           0        7.748578    0.306898   -0.427075
 ---------------------------------------------------------------------

 SCF Done:  E(RHF) =  -470.732530338     A.U. after   11 cycles
 E2 =    -0.1583243590D+01 EUMP2 =    -0.47231577392768D+03

 The electronic state is 1-A.
 Alpha  occ. eigenvalues --  -11.21594 -11.21591 -11.21566 -11.21473 -11.21391
 Alpha  occ. eigenvalues --  -11.21378 -11.21331 -11.21311 -11.21069 -11.21066
 Alpha  occ. eigenvalues --  -11.21028 -11.20982  -1.08425  -1.08386  -1.03536
 Alpha  occ. eigenvalues --   -1.03469  -0.95966  -0.95950  -0.87019  -0.86938
 Alpha  occ. eigenvalues --   -0.79696  -0.79468  -0.78275  -0.78151  -0.65067
 Alpha  occ. eigenvalues --   -0.65011  -0.60982  -0.60835  -0.59370  -0.59288
 Alpha  occ. eigenvalues --   -0.57678  -0.57464  -0.55290  -0.55204  -0.52766
 Alpha  occ. eigenvalues --   -0.52557  -0.52456  -0.52314  -0.50002  -0.49839
 Alpha  occ. eigenvalues --   -0.48034  -0.47727  -0.46722  -0.46477  -0.45844
 Alpha  occ. eigenvalues --   -0.45737  -0.45691  -0.45518  -0.43774  -0.43672
 Alpha virt. eigenvalues --    0.22186   0.22992   0.23895   0.24286   0.25646
 Alpha virt. eigenvalues --    0.26527   0.26910   0.27123   0.27839   0.29198
 Alpha virt. eigenvalues --    0.30436   0.31301   0.31739   0.31807   0.32171

 Mulliken charges:
               1
     1  C   -0.297857
     2  C   -0.305516
     3  C   -0.475712
     4  H    0.149156
     5  H    0.149192
     6  H    0.150742
     7  H    0.161825
     8  H    0.155026
     9  H    0.154817
    10  H    0.159309
    11  C   -0.301253
    12  C   -0.299444
    13  C   -0.475746
    14  H    0.149287
    15  H    0.152291
    16  H    0.152011
    17  H    0.151952
    18  H    0.155000
    19  H    0.155106
    20  H    0.160295
    21  C   -0.298549
    22  C   -0.299745
    23  C   -0.482003
    24  H    0.149491
    25  H    0.149465
    26  H    0.151529
    27  H    0.151828
    28  H    0.159328
    29  H    0.153678
    30  H    0.164581
    31  C   -0.298204
    32  C   -0.299611
    33  C   -0.475690
    34  H    0.149518
    35  H    0.149582
    36  H    0.151899
    37  H    0.151875
    38  H    0.155154
    39  H    0.155175
    40  H    0.160218
 Sum of Mulliken charges =  -0.00000

 Dipole moment (field-independent basis, Debye):
    X=             -0.0026    Y=             -0.0038    Z=              0.0128  Tot=              0.0136
 Quadrupole moment (field-independent basis, Debye-Ang):
   XX=            -85.8670   YY=            -85.8739   ZZ=            -83.2746
   XY=              0.1821   XZ=              0.6193   YZ=             -0.6679

 Normal termination of Gaussian 16 at Wed May  5 23:13:59 2021.
