 Gaussian 16, Revision A.03,
 Gaussian 16:  EM64L-G16RevA.03 25-Dec-2016

 -------------
 #p 6-31g* mp2
 -------------

 ------------------------------------------------------
 Input file generated by CHIRIPA (05-May-2021 14:57:24)
 ------------------------------------------------------
 Symbolic Z-matrix:
 Charge =  0 Multiplicity = 1

                         Standard orientation:
 ---------------------------------------------------------------------
 Center     Atomic      Atomic             Coordinates (Angstroms)
 Number     Number       Type             X           Y           Z
 ---------------------------------------------------------------------
      1          6           0        1.170342   -1.789532   -0.075587
      2          6           0        1.181412   -0.615017    0.683961
      3          6           0        2.322598    0.191405    0.727862
      4          6           0        3.440086   -0.208609   -0.003232
      5          6           0        3.460025   -1.373088   -0.769314
      6          6           0        2.307679   -2.164159   -0.798525
      7          1           0        0.279507   -2.410017   -0.103984
      8          1           0        0.299590   -0.321601    1.246404
      9          1           0        2.358493    1.105722    1.307649
     10          1           0        4.354339   -1.639496   -1.319448
     11          1           0        2.301946   -3.075774   -1.389262
     12          7           0        4.654116    0.636987    0.035468
     13          8           0        5.625732    0.262553   -0.617524
     14          8           0        4.611068    1.658188    0.718060
     15          6           0       -4.155312   -1.973422    0.382767
     16          6           0       -4.505776   -1.259372   -0.767810
     17          6           0       -4.004605    0.027573   -0.984945
     18          6           0       -3.151510    0.572398   -0.026464
     19          6           0       -2.783810   -0.113825    1.129902
     20          6           0       -3.296959   -1.399381    1.326288
     21          1           0       -4.549286   -2.972613    0.543384
     22          1           0       -5.172189   -1.702673   -1.502264
     23          1           0       -4.259579    0.602607   -1.866843
     24          1           0       -2.117448    0.354496    1.844084
     25          1           0       -3.023071   -1.951592    2.220767
     26          7           0       -2.614602    1.934095   -0.245353
     27          8           0       -1.864754    2.391783    0.614232
     28          8           0       -2.953787    2.517919   -1.272358
 ---------------------------------------------------------------------

 SCF Done:  E(RHF) =  -868.337261426     A.U. after   16 cycles
 E2 =    -0.2600627763D+01 EUMP2 =    -0.87093788918908D+03

 The electronic state is 1-A.
 Alpha  occ. eigenvalues --  -20.61565 -20.61537 -20.60511 -20.60495 -15.86610
 Alpha  occ. eigenvalues --  -15.85561 -11.32152 -11.30969 -11.28802 -11.28656
 Alpha  occ. eigenvalues --  -11.28442 -11.27813 -11.27701 -11.27582 -11.27513
 Alpha  occ. eigenvalues --  -11.27368 -11.26627 -11.26586  -1.60619  -1.59580
 Alpha  occ. eigenvalues --   -1.40172  -1.39132  -1.20327  -1.19164  -1.09672
 Alpha  occ. eigenvalues --   -1.08566  -1.05757  -1.04571  -0.96486  -0.95384
 Alpha  occ. eigenvalues --   -0.87136  -0.85983  -0.83314  -0.82212  -0.78355
 Alpha  occ. eigenvalues --   -0.77239  -0.72820  -0.71944  -0.71782  -0.71414
 Alpha  occ. eigenvalues --   -0.70903  -0.70294  -0.65966  -0.65752  -0.64822
 Alpha  occ. eigenvalues --   -0.64618  -0.63096  -0.61900  -0.56208  -0.55118
 Alpha  occ. eigenvalues --   -0.54079  -0.53836  -0.52903  -0.52648  -0.49590
 Alpha  occ. eigenvalues --   -0.49570  -0.48547  -0.48528  -0.45537  -0.44527
 Alpha  occ. eigenvalues --   -0.38292  -0.37387  -0.37157  -0.36163
 Alpha virt. eigenvalues --    0.04146   0.05299   0.10160   0.11497   0.15641
 Alpha virt. eigenvalues --    0.16762   0.19715   0.21801   0.25176   0.26934
 Alpha virt. eigenvalues --    0.28338   0.28641   0.29799   0.30810   0.32341

 Mulliken charges:
               1
     1  C   -0.172866
     2  C   -0.218817
     3  C   -0.169141
     4  C    0.158459
     5  C   -0.170857
     6  C   -0.218609
     7  H    0.221845
     8  H    0.220933
     9  H    0.280692
    10  H    0.275083
    11  H    0.221322
    12  N    0.488073
    13  O   -0.461704
    14  O   -0.458194
    15  C   -0.172322
    16  C   -0.217729
    17  C   -0.170239
    18  C    0.162100
    19  C   -0.179439
    20  C   -0.222227
    21  H    0.228285
    22  H    0.227020
    23  H    0.279165
    24  H    0.272498
    25  H    0.225064
    26  N    0.488858
    27  O   -0.462199
    28  O   -0.455054
 Sum of Mulliken charges =  -0.00000

 Dipole moment (field-independent basis, Debye):
    X=             -6.3933    Y=             -7.6262    Z=              0.5156  Tot=              9.9649
 Quadrupole moment (field-independent basis, Debye-Ang):
   XX=           -120.0849   YY=           -108.0146   ZZ=            -99.9367
   XY=              3.2180   XZ=             -1.5195   YZ=              2.5616

 Normal termination of Gaussian 16 at Thu May  6 13:02:27 2021.
