 Gaussian 16, Revision A.03,
 Gaussian 16:  EM64L-G16RevA.03 25-Dec-2016

 -------------
 #p 6-31g* mp2
 -------------

 ------------------------------------------------------
 Input file generated by CHIRIPA (05-May-2021 14:55:19)
 ------------------------------------------------------
 Symbolic Z-matrix:
 Charge =  0 Multiplicity = 1

                         Standard orientation:
 ---------------------------------------------------------------------
 Center     Atomic      Atomic             Coordinates (Angstroms)
 Number     Number       Type             X           Y           Z
 ---------------------------------------------------------------------
      1          6           0        0.732913   -0.363820    0.669039
      2          6           0        1.509648    0.537083    1.404960
      3          6           0        2.855108    0.741145    1.084580
      4          6           0        3.393893    0.024329    0.017258
      5          6           0        2.645944   -0.880179   -0.734891
      6          6           0        1.302536   -1.068333   -0.396658
      7          1           0       -0.311475   -0.516161    0.924852
      8          1           0        1.069930    1.085595    2.233107
      9          1           0        3.479311    1.432491    1.637599
     10          1           0        3.112291   -1.412449   -1.555029
     11          1           0        0.701712   -1.768626   -0.969935
     12          7           0        4.817185    0.231940   -0.331363
     13          8           0        5.268204   -0.411829   -1.276234
     14          8           0        5.454792    1.034504    0.346859
     15          6           0       -4.235092   -0.706490   -0.268019
     16          6           0       -3.428088   -1.750291    0.504774
     17          6           0       -3.822005   -3.184192    0.149032
     18          1           0       -5.304530   -0.855463   -0.065401
     19          1           0       -4.095471   -0.869451   -1.345676
     20          1           0       -3.568089   -1.584548    1.580667
     21          1           0       -2.360435   -1.598695    0.300444
     22          1           0       -3.665498   -3.373267   -0.917907
     23          1           0       -4.880014   -3.359039    0.369590
     24          1           0       -3.232775   -3.914049    0.712925
     25          6           0       -3.852760    0.731803    0.076747
     26          6           0       -4.659763    1.775604   -0.696046
     27          6           0       -4.265846    3.209505   -0.340303
     28          1           0       -3.992381    0.894764    1.154404
     29          1           0       -2.783322    0.880776   -0.125870
     30          1           0       -5.727417    1.624007   -0.491715
     31          1           0       -4.519762    1.609861   -1.771938
     32          1           0       -3.207838    3.384353   -0.560861
     33          1           0       -4.422354    3.398579    0.726636
     34          1           0       -4.855076    3.939362   -0.904197
 ---------------------------------------------------------------------

 SCF Done:  E(RHF) =  -669.535586616     A.U. after   15 cycles
 E2 =    -0.2091341976D+01 EUMP2 =    -0.67162692859274D+03

 The electronic state is 1-A.
 Alpha  occ. eigenvalues --  -20.60735 -20.60730 -15.85789 -11.31149 -11.27721
 Alpha  occ. eigenvalues --  -11.27714 -11.27414 -11.26730 -11.26716 -11.22848
 Alpha  occ. eigenvalues --  -11.22388 -11.22344 -11.22299 -11.22050 -11.21696
 Alpha  occ. eigenvalues --   -1.59811  -1.39365  -1.19319  -1.09399  -1.08711
 Alpha  occ. eigenvalues --   -1.04723  -1.04441  -0.96855  -0.95549  -0.87873
 Alpha  occ. eigenvalues --   -0.86119  -0.82387  -0.80538  -0.79219  -0.77433
 Alpha  occ. eigenvalues --   -0.72007  -0.71134  -0.70437  -0.66028  -0.64969
 Alpha  occ. eigenvalues --   -0.64726  -0.62077  -0.61834  -0.60243  -0.58476
 Alpha  occ. eigenvalues --   -0.56130  -0.55244  -0.53539  -0.53273  -0.53050
 Alpha  occ. eigenvalues --   -0.52813  -0.50800  -0.48837  -0.48763  -0.48757
 Alpha  occ. eigenvalues --   -0.47576  -0.46732  -0.46649  -0.44772  -0.44697
 Alpha  occ. eigenvalues --   -0.37292  -0.36332
 Alpha virt. eigenvalues --    0.05091   0.11324   0.16533   0.19179   0.22532
 Alpha virt. eigenvalues --    0.23546   0.24873   0.25976   0.26845   0.27423
 Alpha virt. eigenvalues --    0.29364   0.30613   0.30814   0.31195   0.31883

 Mulliken charges:
               1
     1  C   -0.178515
     2  C   -0.219653
     3  C   -0.170741
     4  C    0.158221
     5  C   -0.170935
     6  C   -0.221162
     7  H    0.236771
     8  H    0.224090
     9  H    0.275413
    10  H    0.275418
    11  H    0.222656
    12  N    0.488037
    13  O   -0.460596
    14  O   -0.460494
    15  C   -0.298235
    16  C   -0.304499
    17  C   -0.476037
    18  H    0.154116
    19  H    0.151583
    20  H    0.154019
    21  H    0.142103
    22  H    0.156518
    23  H    0.159870
    24  H    0.161827
    25  C   -0.300643
    26  C   -0.300084
    27  C   -0.476605
    28  H    0.149523
    29  H    0.145529
    30  H    0.154243
    31  H    0.153945
    32  H    0.155783
    33  H    0.155206
    34  H    0.163327
 Sum of Mulliken charges =  -0.00000

 Dipole moment (field-independent basis, Debye):
    X=             -5.2826    Y=             -0.7254    Z=              1.2036  Tot=              5.4663
 Quadrupole moment (field-independent basis, Debye-Ang):
   XX=           -127.8840   YY=            -93.8719   ZZ=            -91.7464
   XY=             -2.3732   XZ=              4.0349   YZ=              2.7100

 Normal termination of Gaussian 16 at Thu May  6 07:41:12 2021.
