 Gaussian 16, Revision A.03,
 Gaussian 16:  EM64L-G16RevA.03 25-Dec-2016

 -------------
 #p 6-31g* mp2
 -------------

 ------------------------------------------------------
 Input file generated by CHIRIPA (05-May-2021 14:55:22)
 ------------------------------------------------------
 Symbolic Z-matrix:
 Charge =  0 Multiplicity = 1

                         Standard orientation:
 ---------------------------------------------------------------------
 Center     Atomic      Atomic             Coordinates (Angstroms)
 Number     Number       Type             X           Y           Z
 ---------------------------------------------------------------------
      1          6           0        2.264490    2.728159    0.448407
      2          6           0        1.723760    1.696862    1.223364
      3          6           0        2.081773    0.366697    0.984544
      4          6           0        2.987280    0.102620   -0.041911
      5          6           0        3.543277    1.108140   -0.831271
      6          6           0        3.170925    2.431030   -0.574634
      7          1           0        1.980808    3.758638    0.640848
      8          1           0        1.019589    1.924661    2.018534
      9          1           0        1.678383   -0.451100    1.569270
     10          1           0        4.242887    0.849911   -1.616943
     11          1           0        3.592458    3.229915   -1.178072
     12          7           0        3.373882   -1.301715   -0.304170
     13          8           0        4.173612   -1.508070   -1.214382
     14          8           0        2.869850   -2.169488    0.405449
     15          6           0       -4.429976   -0.386085   -0.331252
     16          6           0       -5.162129    0.925045   -0.043375
     17          6           0       -6.536689    0.993138   -0.709517
     18          1           0       -4.318845   -0.505710   -1.417661
     19          1           0       -5.047887   -1.226485    0.014158
     20          1           0       -4.542407    1.762789   -0.387971
     21          1           0       -5.271359    1.041656    1.042483
     22          1           0       -7.176029    0.176913   -0.357919
     23          1           0       -6.442936    0.902143   -1.796500
     24          1           0       -7.042509    1.938696   -0.490597
     25          6           0       -3.054345   -0.469140    0.327892
     26          6           0       -2.322191   -1.780270    0.040016
     27          6           0       -0.947633   -1.848361    0.706158
     28          1           0       -2.436433    0.371261   -0.017516
     29          1           0       -3.165475   -0.349515    1.414302
     30          1           0       -2.212961   -1.896881   -1.045841
     31          1           0       -2.941914   -2.618013    0.384611
     32          1           0       -1.041385   -1.757368    1.793141
     33          1           0       -0.308291   -1.032137    0.354560
     34          1           0       -0.441812   -2.793919    0.487239
 ---------------------------------------------------------------------

 SCF Done:  E(RHF) =  -669.534983670     A.U. after   15 cycles
 E2 =    -0.2092278029D+01 EUMP2 =    -0.67162726169900D+03

 The electronic state is 1-A.
 Alpha  occ. eigenvalues --  -20.60773 -20.60759 -15.85814 -11.31179 -11.27766
 Alpha  occ. eigenvalues --  -11.27703 -11.27509 -11.26775 -11.26757 -11.21772
 Alpha  occ. eigenvalues --  -11.21558 -11.21508 -11.21455 -11.21212 -11.20902
 Alpha  occ. eigenvalues --   -1.59838  -1.39390  -1.19367  -1.08757  -1.08517
 Alpha  occ. eigenvalues --   -1.04772  -1.03578  -0.96039  -0.95583  -0.87064
 Alpha  occ. eigenvalues --   -0.86153  -0.82419  -0.79668  -0.78353  -0.77450
 Alpha  occ. eigenvalues --   -0.72033  -0.71160  -0.70477  -0.65155  -0.65013
 Alpha  occ. eigenvalues --   -0.64766  -0.62140  -0.60971  -0.59373  -0.57640
 Alpha  occ. eigenvalues --   -0.55402  -0.55223  -0.53166  -0.52936  -0.52643
 Alpha  occ. eigenvalues --   -0.52330  -0.49979  -0.48795  -0.48785  -0.47958
 Alpha  occ. eigenvalues --   -0.46699  -0.45882  -0.45814  -0.44786  -0.43799
 Alpha  occ. eigenvalues --   -0.37346  -0.36328
 Alpha virt. eigenvalues --    0.05037   0.11215   0.16521   0.21301   0.22783
 Alpha virt. eigenvalues --    0.24315   0.26339   0.26635   0.27482   0.27855
 Alpha virt. eigenvalues --    0.28974   0.30601   0.31313   0.31684   0.32137

 Mulliken charges:
               1
     1  C   -0.170573
     2  C   -0.221011
     3  C   -0.173494
     4  C    0.157189
     5  C   -0.170861
     6  C   -0.218689
     7  H    0.225644
     8  H    0.224389
     9  H    0.283880
    10  H    0.275554
    11  H    0.223378
    12  N    0.488458
    13  O   -0.460586
    14  O   -0.460129
    15  C   -0.298129
    16  C   -0.299356
    17  C   -0.475686
    18  H    0.150684
    19  H    0.150624
    20  H    0.149983
    21  H    0.150917
    22  H    0.156000
    23  H    0.155732
    24  H    0.159687
    25  C   -0.298273
    26  C   -0.300302
    27  C   -0.482139
    28  H    0.146681
    29  H    0.146824
    30  H    0.154019
    31  H    0.152840
    32  H    0.147629
    33  H    0.152284
    34  H    0.176833
 Sum of Mulliken charges =  -0.00000

 Dipole moment (field-independent basis, Debye):
    X=             -1.3153    Y=              4.8502    Z=              0.8903  Tot=              5.1036
 Quadrupole moment (field-independent basis, Debye-Ang):
   XX=           -102.6499   YY=            -93.3898   ZZ=            -92.0129
   XY=             16.3000   XZ=             -0.3689   YZ=             -1.6347

 Normal termination of Gaussian 16 at Thu May  6 12:32:36 2021.
