 Gaussian 16, Revision A.03,
 Gaussian 16:  EM64L-G16RevA.03 25-Dec-2016

 -------------
 #p 6-31g* mp2
 -------------

 ------------------------------------------------------
 Input file generated by CHIRIPA (05-May-2021 14:53:18)
 ------------------------------------------------------
 Symbolic Z-matrix:
 Charge =  0 Multiplicity = 1

                         Standard orientation:
 ---------------------------------------------------------------------
 Center     Atomic      Atomic             Coordinates (Angstroms)
 Number     Number       Type             X           Y           Z
 ---------------------------------------------------------------------
      1          6           0       -4.463303    0.636901    0.237977
      2          6           0       -3.097160    0.233096    0.793475
      3          6           0       -2.183173    1.432756    1.044947
      4          1           0       -4.321265    1.194054   -0.698159
      5          1           0       -4.948175    1.327218    0.942076
      6          1           0       -2.615597   -0.457339    0.089193
      7          1           0       -3.242475   -0.323327    1.728298
      8          1           0       -2.639193    2.120320    1.764601
      9          1           0       -2.008753    1.985546    0.116183
     10          1           0       -1.211939    1.121272    1.441863
     11          6           0       -5.388285   -0.551498   -0.018621
     12          6           0       -6.754429   -0.147692   -0.574120
     13          6           0       -7.668415   -1.347352   -0.825591
     14          1           0       -4.903413   -1.241815   -0.722721
     15          1           0       -5.530323   -1.108651    0.917515
     16          1           0       -6.609114    0.408730   -1.508942
     17          1           0       -7.235992    0.542743    0.130162
     18          1           0       -7.842835   -1.900142    0.103172
     19          1           0       -7.212395   -2.034916   -1.545246
     20          1           0       -8.639649   -1.035869   -1.222508
     21          6           0        2.745895    2.226776   -0.291749
     22          6           0        4.033202    2.026789   -0.801031
     23          6           0        4.653740    0.778713   -0.692468
     24          6           0        3.954851   -0.251863   -0.065764
     25          6           0        2.671363   -0.083877    0.451663
     26          6           0        2.070276    1.172663    0.331873
     27          1           0        2.271401    3.199598   -0.380444
     28          1           0        4.560279    2.843608   -1.285841
     29          1           0        5.649525    0.596302   -1.077898
     30          1           0        2.171045   -0.917287    0.929709
     31          1           0        1.070452    1.325083    0.728314
     32          7           0        4.601491   -1.577624    0.055109
     33          8           0        3.964579   -2.469384    0.611657
     34          8           0        5.732996   -1.699895   -0.408986
 ---------------------------------------------------------------------

 SCF Done:  E(RHF) =  -669.535544575     A.U. after   15 cycles
 E2 =    -0.2090689176D+01 EUMP2 =    -0.67162623375106D+03

 The electronic state is 1-A.
 Alpha  occ. eigenvalues --  -20.60724 -20.60719 -15.85777 -11.31132 -11.27700
 Alpha  occ. eigenvalues --  -11.27688 -11.27432 -11.26717 -11.26664 -11.22323
 Alpha  occ. eigenvalues --  -11.22142 -11.21941 -11.21927 -11.21770 -11.21320
 Alpha  occ. eigenvalues --   -1.59800  -1.39354  -1.19300  -1.08948  -1.08697
 Alpha  occ. eigenvalues --   -1.04703  -1.04096  -0.96570  -0.95535  -0.87596
 Alpha  occ. eigenvalues --   -0.86098  -0.82368  -0.80164  -0.78719  -0.77419
 Alpha  occ. eigenvalues --   -0.71995  -0.71123  -0.70410  -0.65572  -0.64951
 Alpha  occ. eigenvalues --   -0.64731  -0.62094  -0.61477  -0.59962  -0.58158
 Alpha  occ. eigenvalues --   -0.55844  -0.55204  -0.53411  -0.53033  -0.53018
 Alpha  occ. eigenvalues --   -0.52636  -0.50489  -0.48754  -0.48751  -0.48474
 Alpha  occ. eigenvalues --   -0.47170  -0.46273  -0.46168  -0.44762  -0.44341
 Alpha  occ. eigenvalues --   -0.37282  -0.36305
 Alpha virt. eigenvalues --    0.05115   0.11344   0.16611   0.20105   0.22550
 Alpha virt. eigenvalues --    0.23745   0.25871   0.26189   0.26998   0.28230
 Alpha virt. eigenvalues --    0.28625   0.29999   0.30866   0.31534   0.32318

 Mulliken charges:
               1
     1  C   -0.299233
     2  C   -0.299509
     3  C   -0.481528
     4  H    0.149958
     5  H    0.150460
     6  H    0.154002
     7  H    0.155138
     8  H    0.160119
     9  H    0.154793
    10  H    0.153476
    11  C   -0.298986
    12  C   -0.300044
    13  C   -0.476055
    14  H    0.151000
    15  H    0.150970
    16  H    0.152096
    17  H    0.152184
    18  H    0.155928
    19  H    0.156077
    20  H    0.161135
    21  C   -0.173132
    22  C   -0.218444
    23  C   -0.171359
    24  C    0.158733
    25  C   -0.173651
    26  C   -0.225809
    27  H    0.226203
    28  H    0.223103
    29  H    0.275348
    30  H    0.275253
    31  H    0.234912
    32  N    0.488116
    33  O   -0.460559
    34  O   -0.460694
 Sum of Mulliken charges =  -0.00000

 Dipole moment (field-independent basis, Debye):
    X=             -2.5113    Y=              4.6623    Z=             -0.4362  Tot=              5.3135
 Quadrupole moment (field-independent basis, Debye-Ang):
   XX=           -109.4686   YY=            -97.6440   ZZ=            -93.4454
   XY=             20.3034   XZ=             -4.3548   YZ=             -1.3011

 Normal termination of Gaussian 16 at Wed May  5 23:38:29 2021.
