 Gaussian 16, Revision A.03,
 Gaussian 16:  EM64L-G16RevA.03 25-Dec-2016

 -------------
 #p 6-31g* mp2
 -------------

 ------------------------------------------------------
 Input file generated by CHIRIPA (05-May-2021 14:57:21)
 ------------------------------------------------------
 Symbolic Z-matrix:
 Charge =  0 Multiplicity = 1

                         Standard orientation:
 ---------------------------------------------------------------------
 Center     Atomic      Atomic             Coordinates (Angstroms)
 Number     Number       Type             X           Y           Z
 ---------------------------------------------------------------------
      1          6           0       -2.973616   -2.186686    0.901975
      2          6           0       -3.725644   -1.611503   -0.127656
      3          6           0       -3.416915   -0.333865   -0.603971
      4          6           0       -2.344693    0.343358   -0.025182
      5          6           0       -1.576590   -0.202837    1.001941
      6          6           0       -1.903376   -1.481760    1.462499
      7          1           0       -3.220458   -3.179685    1.265868
      8          1           0       -4.557353   -2.156635   -0.564846
      9          1           0       -3.982487    0.135135   -1.399952
     10          1           0       -0.753267    0.365051    1.417944
     11          1           0       -1.317600   -1.925969    2.262242
     12          7           0       -2.008297    1.696617   -0.521095
     13          8           0       -1.058800    2.272590    0.005544
     14          8           0       -2.700496    2.155703   -1.427040
     15          6           0        2.311620    1.193933    2.095382
     16          6           0        2.224783    1.856379    0.866503
     17          6           0        2.272725    1.138346   -0.332113
     18          6           0        2.408692   -0.247383   -0.264592
     19          6           0        2.497720   -0.936154    0.944109
     20          6           0        2.447572   -0.197766    2.130202
     21          1           0        2.273520    1.759624    3.021631
     22          1           0        2.119153    2.937112    0.836425
     23          1           0        2.207713    1.625813   -1.297290
     24          1           0        2.602514   -2.014315    0.942098
     25          1           0        2.515242   -0.714890    3.083117
     26          7           0        2.460613   -1.018307   -1.526884
     27          8           0        2.580826   -2.238431   -1.440386
     28          8           0        2.380114   -0.387835   -2.578864
 ---------------------------------------------------------------------

 SCF Done:  E(RHF) =  -868.339045252     A.U. after   16 cycles
 E2 =    -0.2602348122D+01 EUMP2 =    -0.87094139337462D+03

 The electronic state is 1-A.
 Alpha  occ. eigenvalues --  -20.61004 -20.60956 -20.60662 -20.60635 -15.86020
 Alpha  occ. eigenvalues --  -15.85701 -11.31202 -11.31048 -11.27765 -11.27733
 Alpha  occ. eigenvalues --  -11.27687 -11.27508 -11.27451 -11.27348 -11.26778
 Alpha  occ. eigenvalues --  -11.26776 -11.26737 -11.26456  -1.60052  -1.59727
 Alpha  occ. eigenvalues --   -1.39613  -1.39280  -1.19377  -1.19227  -1.08810
 Alpha  occ. eigenvalues --   -1.08635  -1.04758  -1.04586  -0.95672  -0.95459
 Alpha  occ. eigenvalues --   -0.86167  -0.85993  -0.82531  -0.82255  -0.77591
 Alpha  occ. eigenvalues --   -0.77307  -0.72275  -0.71918  -0.71365  -0.71049
 Alpha  occ. eigenvalues --   -0.70491  -0.70315  -0.65042  -0.64856  -0.64779
 Alpha  occ. eigenvalues --   -0.64570  -0.62129  -0.61911  -0.55292  -0.55113
 Alpha  occ. eigenvalues --   -0.53250  -0.53048  -0.52656  -0.52572  -0.49020
 Alpha  occ. eigenvalues --   -0.48994  -0.48683  -0.48667  -0.45068  -0.44685
 Alpha  occ. eigenvalues --   -0.37386  -0.37249  -0.36401  -0.36027
 Alpha virt. eigenvalues --    0.04768   0.05366   0.11269   0.11476   0.16387
 Alpha virt. eigenvalues --    0.16749   0.21216   0.21782   0.27013   0.27738
 Alpha virt. eigenvalues --    0.28291   0.28508   0.30862   0.31257   0.32399

 Mulliken charges:
               1
     1  C   -0.168692
     2  C   -0.218405
     3  C   -0.168739
     4  C    0.156726
     5  C   -0.173798
     6  C   -0.219573
     7  H    0.226021
     8  H    0.224438
     9  H    0.276206
    10  H    0.278922
    11  H    0.219506
    12  N    0.490075
    13  O   -0.469720
    14  O   -0.457628
    15  C   -0.181346
    16  C   -0.202169
    17  C   -0.164579
    18  C    0.155625
    19  C   -0.175946
    20  C   -0.226544
    21  H    0.226051
    22  H    0.233319
    23  H    0.281282
    24  H    0.272269
    25  H    0.219557
    26  N    0.488126
    27  O   -0.463735
    28  O   -0.457250
 Sum of Mulliken charges =  -0.00000

 Dipole moment (field-independent basis, Debye):
    X=             -1.4029    Y=             -1.7746    Z=              5.9598  Tot=              6.3747
 Quadrupole moment (field-independent basis, Debye-Ang):
   XX=            -98.1618   YY=           -106.2661   ZZ=           -104.9915
   XY=             18.2509   XZ=              9.7533   YZ=             -3.3859

 Normal termination of Gaussian 16 at Thu May  6 06:29:55 2021.
