 Gaussian 16, Revision A.03,
 Gaussian 16:  EM64L-G16RevA.03 25-Dec-2016

 -------------
 #p 6-31g* mp2
 -------------

 ------------------------------------------------------
 Input file generated by CHIRIPA (05-May-2021 14:57:26)
 ------------------------------------------------------
 Symbolic Z-matrix:
 Charge =  0 Multiplicity = 1

                         Standard orientation:
 ---------------------------------------------------------------------
 Center     Atomic      Atomic             Coordinates (Angstroms)
 Number     Number       Type             X           Y           Z
 ---------------------------------------------------------------------
      1          6           0        1.587669    1.935350   -1.222937
      2          6           0        1.254977    0.582736   -1.095367
      3          6           0        2.148587   -0.315568   -0.504556
      4          6           0        3.371729    0.175169   -0.050255
      5          6           0        3.732178    1.517053   -0.163012
      6          6           0        2.823030    2.397377   -0.757174
      7          1           0        0.887456    2.626190   -1.683195
      8          1           0        0.296289    0.221108   -1.456183
      9          1           0        1.916598   -1.367797   -0.393138
     10          1           0        4.695328    1.847907    0.206170
     11          1           0        3.084083    3.447301   -0.854920
     12          7           0        4.325979   -0.766308    0.576983
     13          8           0        5.397251   -0.308947    0.969200
     14          8           0        3.984579   -1.943771    0.664519
     15          6           0       -4.678964    1.591251    0.880713
     16          6           0       -3.542662    1.256677    1.624620
     17          6           0       -2.723966    0.193922    1.231125
     18          6           0       -3.072874   -0.516108    0.083340
     19          6           0       -4.198417   -0.207112   -0.678870
     20          6           0       -5.002645    0.859578   -0.266635
     21          1           0       -5.309327    2.418352    1.193668
     22          1           0       -3.288844    1.823151    2.516096
     23          1           0       -1.838469   -0.086577    1.788470
     24          1           0       -4.425690   -0.790272   -1.563002
     25          1           0       -5.884503    1.117160   -0.846308
     26          7           0       -2.213816   -1.643282   -0.343154
     27          8           0       -2.542940   -2.253226   -1.358183
     28          8           0       -1.227629   -1.895475    0.345664
 ---------------------------------------------------------------------

 SCF Done:  E(RHF) =  -868.338910630     A.U. after   16 cycles
 E2 =    -0.2599679455D+01 EUMP2 =    -0.87093859008426D+03

 The electronic state is 1-A.
 Alpha  occ. eigenvalues --  -20.61693 -20.61680 -20.60186 -20.60155 -15.86710
 Alpha  occ. eigenvalues --  -15.85224 -11.31917 -11.30560 -11.28466 -11.28440
 Alpha  occ. eigenvalues --  -11.28164 -11.27428 -11.27407 -11.27227 -11.26993
 Alpha  occ. eigenvalues --  -11.26983 -11.26262 -11.26109  -1.60769  -1.59252
 Alpha  occ. eigenvalues --   -1.40316  -1.38802  -1.20076  -1.18765  -1.09501
 Alpha  occ. eigenvalues --   -1.08189  -1.05438  -1.04139  -0.96355  -0.95007
 Alpha  occ. eigenvalues --   -0.86842  -0.85561  -0.83180  -0.81821  -0.78252
 Alpha  occ. eigenvalues --   -0.76853  -0.72915  -0.72113  -0.71443  -0.71158
 Alpha  occ. eigenvalues --   -0.70578  -0.69883  -0.65716  -0.65423  -0.64411
 Alpha  occ. eigenvalues --   -0.64153  -0.62773  -0.61451  -0.55936  -0.54715
 Alpha  occ. eigenvalues --   -0.53798  -0.53513  -0.52518  -0.52226  -0.49689
 Alpha  occ. eigenvalues --   -0.49669  -0.48214  -0.48186  -0.45737  -0.44211
 Alpha  occ. eigenvalues --   -0.38058  -0.37044  -0.36806  -0.35739
 Alpha virt. eigenvalues --    0.04217   0.05660   0.10596   0.11896   0.15730
 Alpha virt. eigenvalues --    0.17119   0.20823   0.21905   0.26771   0.27358
 Alpha virt. eigenvalues --    0.27860   0.28917   0.30449   0.31283   0.31948

 Mulliken charges:
               1
     1  C   -0.172688
     2  C   -0.221043
     3  C   -0.169899
     4  C    0.156496
     5  C   -0.172015
     6  C   -0.219989
     7  H    0.221342
     8  H    0.223898
     9  H    0.290879
    10  H    0.273283
    11  H    0.219740
    12  N    0.487724
    13  O   -0.464286
    14  O   -0.456519
    15  C   -0.170434
    16  C   -0.219228
    17  C   -0.171606
    18  C    0.152816
    19  C   -0.171800
    20  C   -0.219028
    21  H    0.227890
    22  H    0.226325
    23  H    0.278993
    24  H    0.276678
    25  H    0.225471
    26  N    0.485446
    27  O   -0.457013
    28  O   -0.461431
 Sum of Mulliken charges =  -0.00000

 Dipole moment (field-independent basis, Debye):
    X=             -6.7004    Y=              7.0926    Z=             -0.6306  Tot=              9.7774
 Quadrupole moment (field-independent basis, Debye-Ang):
   XX=           -105.7685   YY=           -105.8819   ZZ=           -102.2318
   XY=              2.4654   XZ=             -9.1528   YZ=              0.5946

 Normal termination of Gaussian 16 at Thu May  6 08:22:28 2021.
