 Gaussian 16, Revision A.03,
 Gaussian 16:  EM64L-G16RevA.03 25-Dec-2016

 -------------
 #p 6-31g* mp2
 -------------

 ------------------------------------------------------
 Input file generated by CHIRIPA (05-May-2021 14:57:25)
 ------------------------------------------------------
 Symbolic Z-matrix:
 Charge =  0 Multiplicity = 1

                         Standard orientation:
 ---------------------------------------------------------------------
 Center     Atomic      Atomic             Coordinates (Angstroms)
 Number     Number       Type             X           Y           Z
 ---------------------------------------------------------------------
      1          6           0       -4.259643   -2.081098    0.238483
      2          6           0       -5.135199   -1.004362    0.413310
      3          6           0       -4.693642    0.308189    0.221518
      4          6           0       -3.364073    0.508509   -0.146461
      5          6           0       -2.467563   -0.543392   -0.328298
      6          6           0       -2.930962   -1.847587   -0.131111
      7          1           0       -4.611139   -3.097474    0.389567
      8          1           0       -6.167604   -1.182719    0.700318
      9          1           0       -5.350139    1.160183    0.350111
     10          1           0       -1.444034   -0.334087   -0.614653
     11          1           0       -2.248758   -2.681863   -0.267592
     12          7           0       -2.885055    1.893625   -0.352358
     13          8           0       -1.708955    2.043505   -0.676337
     14          8           0       -3.694770    2.803173   -0.185863
     15          6           0        5.242376    1.488459    0.112105
     16          6           0        4.090713    1.661708    0.886816
     17          6           0        3.087252    0.688286    0.894725
     18          6           0        3.269066   -0.451215    0.112567
     19          6           0        4.405087   -0.652775   -0.669814
     20          6           0        5.395617    0.333807   -0.662373
     21          1           0        6.016867    2.249748    0.111923
     22          1           0        3.969009    2.557418    1.489259
     23          1           0        2.185605    0.796868    1.485200
     24          1           0        4.498012   -1.556293   -1.260100
     25          1           0        6.288958    0.196582   -1.264996
     26          7           0        2.213591   -1.488698    0.112815
     27          8           0        2.397743   -2.483625   -0.584928
     28          8           0        1.222143   -1.287307    0.810748
 ---------------------------------------------------------------------

 SCF Done:  E(RHF) =  -868.340667773     A.U. after   16 cycles
 E2 =    -0.2598116895D+01 EUMP2 =    -0.87093878466810D+03

 The electronic state is 1-A.
 Alpha  occ. eigenvalues --  -20.61186 -20.61167 -20.60198 -20.60191 -15.86193
 Alpha  occ. eigenvalues --  -15.85239 -11.31208 -11.30327 -11.27774 -11.27706
 Alpha  occ. eigenvalues --  -11.27448 -11.26951 -11.26731 -11.26718 -11.26654
 Alpha  occ. eigenvalues --  -11.26607 -11.25937 -11.25700  -1.60246  -1.59277
 Alpha  occ. eigenvalues --   -1.39805  -1.38836  -1.19358  -1.18486  -1.08825
 Alpha  occ. eigenvalues --   -1.07948  -1.04707  -1.03822  -0.95715  -0.94820
 Alpha  occ. eigenvalues --   -0.86126  -0.85251  -0.82558  -0.81644  -0.77636
 Alpha  occ. eigenvalues --   -0.76711  -0.72432  -0.71546  -0.71466  -0.70593
 Alpha  occ. eigenvalues --   -0.70473  -0.69604  -0.65019  -0.64715  -0.64135
 Alpha  occ. eigenvalues --   -0.63817  -0.62057  -0.61151  -0.55241  -0.54387
 Alpha  occ. eigenvalues --   -0.53055  -0.52799  -0.52205  -0.51898  -0.49199
 Alpha  occ. eigenvalues --   -0.49169  -0.48230  -0.48202  -0.45277  -0.44303
 Alpha  occ. eigenvalues --   -0.37327  -0.36497  -0.36287  -0.35409
 Alpha virt. eigenvalues --    0.04841   0.05779   0.11370   0.12226   0.16390
 Alpha virt. eigenvalues --    0.17319   0.21496   0.22405   0.27448   0.28151
 Alpha virt. eigenvalues --    0.28536   0.29227   0.31088   0.31923   0.32547

 Mulliken charges:
               1
     1  C   -0.171529
     2  C   -0.219451
     3  C   -0.172570
     4  C    0.156005
     5  C   -0.168261
     6  C   -0.219542
     7  H    0.223708
     8  H    0.219798
     9  H    0.271822
    10  H    0.282551
    11  H    0.234168
    12  N    0.488285
    13  O   -0.463633
    14  O   -0.464052
    15  C   -0.169520
    16  C   -0.218001
    17  C   -0.167255
    18  C    0.157102
    19  C   -0.170668
    20  C   -0.218758
    21  H    0.226633
    22  H    0.226432
    23  H    0.278703
    24  H    0.274286
    25  H    0.223422
    26  N    0.488506
    27  O   -0.461547
    28  O   -0.466633
 Sum of Mulliken charges =  -0.00000

 Dipole moment (field-independent basis, Debye):
    X=              2.4017    Y=             -1.2809    Z=              0.7477  Tot=              2.8227
 Quadrupole moment (field-independent basis, Debye-Ang):
   XX=            -64.8444   YY=           -112.0121   ZZ=           -104.0890
   XY=             23.4804   XZ=             -4.9067   YZ=              4.1562

 Normal termination of Gaussian 16 at Fri May  7 05:02:06 2021.
