 Gaussian 16, Revision A.03,
 Gaussian 16:  EM64L-G16RevA.03 25-Dec-2016

 -------------
 #p 6-31g* mp2
 -------------

 ------------------------------------------------------
 Input file generated by CHIRIPA (05-May-2021 14:51:11)
 ------------------------------------------------------
 Symbolic Z-matrix:
 Charge =  0 Multiplicity = 1

                         Standard orientation:
 ---------------------------------------------------------------------
 Center     Atomic      Atomic             Coordinates (Angstroms)
 Number     Number       Type             X           Y           Z
 ---------------------------------------------------------------------
      1          6           0        2.325373    0.825597    0.366874
      2          6           0        1.962576    2.300692    0.192348
      3          6           0        1.984298    3.074791    1.510716
      4          1           0        1.625199    0.363834    1.076435
      5          1           0        3.323673    0.751863    0.820035
      6          1           0        0.965833    2.371612   -0.261622
      7          1           0        2.663577    2.758951   -0.517026
      8          1           0        2.979476    3.033776    1.965181
      9          1           0        1.272085    2.644236    2.222037
     10          1           0        1.721983    4.127015    1.362811
     11          6           0        2.308013    0.038466   -0.942267
     12          6           0        2.670810   -1.436628   -0.767742
     13          6           0        2.649088   -2.210727   -2.086110
     14          1           0        1.309712    0.112200   -1.395428
     15          1           0        3.008186    0.500229   -1.651828
     16          1           0        1.969808   -1.894887   -0.058367
     17          1           0        3.667553   -1.507548   -0.313772
     18          1           0        3.361300   -1.780172   -2.797430
     19          1           0        1.653909   -2.169712   -2.540575
     20          1           0        2.911402   -3.262951   -1.938205
     21          6           0       -1.712870   -0.572308    0.733962
     22          6           0       -1.747106   -1.956297    1.383105
     23          6           0       -0.532440   -2.222112    2.272894
     24          1           0       -0.793507   -0.475358    0.140400
     25          1           0       -1.659084    0.192830    1.520770
     26          1           0       -1.802208   -2.718542    0.595347
     27          1           0       -2.666588   -2.050034    1.975037
     28          1           0       -0.476417   -1.483481    3.079050
     29          1           0        0.392874   -2.155788    1.691522
     30          1           0       -0.577329   -3.216994    2.726827
     31          6           0       -2.920515   -0.291756   -0.158569
     32          6           0       -2.886280    1.092233   -0.807712
     33          6           0       -4.100945    1.358048   -1.697501
     34          1           0       -2.974302   -1.056893   -0.945377
     35          1           0       -3.839879   -0.388705    0.434994
     36          1           0       -1.966798    1.185970   -1.399643
     37          1           0       -2.831177    1.854478   -0.019954
     38          1           0       -5.026260    1.291725   -1.116128
     39          1           0       -4.156969    0.619418   -2.503657
     40          1           0       -4.056057    2.352930   -2.151434
 ---------------------------------------------------------------------

 SCF Done:  E(RHF) =  -470.732971392     A.U. after   11 cycles
 E2 =    -0.1585040726D+01 EUMP2 =    -0.47231801211780D+03

 The electronic state is 1-A.
 Alpha  occ. eigenvalues --  -11.21681 -11.21676 -11.21642 -11.21556 -11.21485
 Alpha  occ. eigenvalues --  -11.21425 -11.21412 -11.21307 -11.21130 -11.21123
 Alpha  occ. eigenvalues --  -11.21116 -11.21037  -1.08538  -1.08409  -1.03608
 Alpha  occ. eigenvalues --   -1.03528  -0.96056  -0.95977  -0.87071  -0.86995
 Alpha  occ. eigenvalues --   -0.79677  -0.79597  -0.78356  -0.78224  -0.65407
 Alpha  occ. eigenvalues --   -0.64835  -0.61117  -0.60821  -0.59419  -0.59348
 Alpha  occ. eigenvalues --   -0.57669  -0.57587  -0.55443  -0.55194  -0.52740
 Alpha  occ. eigenvalues --   -0.52684  -0.52491  -0.52390  -0.50052  -0.49902
 Alpha  occ. eigenvalues --   -0.48071  -0.47878  -0.46805  -0.46554  -0.46190
 Alpha  occ. eigenvalues --   -0.45833  -0.45614  -0.45313  -0.43857  -0.43778
 Alpha virt. eigenvalues --    0.19187   0.22342   0.23612   0.23941   0.25208
 Alpha virt. eigenvalues --    0.26342   0.26815   0.27896   0.29060   0.29886
 Alpha virt. eigenvalues --    0.30818   0.31191   0.31754   0.31806   0.32496

 Mulliken charges:
               1
     1  C   -0.303114
     2  C   -0.300649
     3  C   -0.475653
     4  H    0.155339
     5  H    0.149397
     6  H    0.153404
     7  H    0.151560
     8  H    0.155016
     9  H    0.155200
    10  H    0.160026
    11  C   -0.300252
    12  C   -0.308549
    13  C   -0.475004
    14  H    0.149549
    15  H    0.150396
    16  H    0.158814
    17  H    0.152746
    18  H    0.155560
    19  H    0.154464
    20  H    0.160466
    21  C   -0.306047
    22  C   -0.299091
    23  C   -0.484747
    24  H    0.157146
    25  H    0.149393
    26  H    0.151952
    27  H    0.152444
    28  H    0.155409
    29  H    0.163004
    30  H    0.160991
    31  C   -0.298084
    32  C   -0.301046
    33  C   -0.475753
    34  H    0.149597
    35  H    0.150197
    36  H    0.152096
    37  H    0.152362
    38  H    0.155484
    39  H    0.155361
    40  H    0.160615
 Sum of Mulliken charges =  -0.00000

 Dipole moment (field-independent basis, Debye):
    X=             -0.0211    Y=             -0.0141    Z=              0.0109  Tot=              0.0276
 Quadrupole moment (field-independent basis, Debye-Ang):
   XX=            -84.1344   YY=            -85.1806   ZZ=            -85.3357
   XY=              0.2812   XZ=             -1.0728   YZ=             -0.1160

 Normal termination of Gaussian 16 at Thu May  6 03:51:10 2021.
