 Gaussian 16, Revision A.03,
 Gaussian 16:  EM64L-G16RevA.03 25-Dec-2016

 -------------
 #p 6-31g* mp2
 -------------

 ------------------------------------------------------
 Input file generated by CHIRIPA (05-May-2021 14:55:22)
 ------------------------------------------------------
 Symbolic Z-matrix:
 Charge =  0 Multiplicity = 1

                         Standard orientation:
 ---------------------------------------------------------------------
 Center     Atomic      Atomic             Coordinates (Angstroms)
 Number     Number       Type             X           Y           Z
 ---------------------------------------------------------------------
      1          6           0        4.525183    0.795777    0.005151
      2          6           0        4.145955    0.022286   -1.096855
      3          6           0        2.953483   -0.707173   -1.075697
      4          6           0        2.160681   -0.639961    0.068959
      5          6           0        2.511248    0.121510    1.182760
      6          6           0        3.708060    0.842838    1.139442
      7          1           0        5.453210    1.359280   -0.019892
      8          1           0        4.778572   -0.016142   -1.979105
      9          1           0        2.635838   -1.314081   -1.914853
     10          1           0        1.859848    0.140010    2.048066
     11          1           0        4.000051    1.442693    1.996740
     12          7           0        0.895966   -1.407902    0.103088
     13          8           0        0.215047   -1.331967    1.123489
     14          8           0        0.609551   -2.071209   -0.891210
     15          6           0       -2.956951   -0.097955    0.005829
     16          6           0       -4.289220   -0.847797   -0.022139
     17          6           0       -4.121677   -2.357456    0.152936
     18          1           0       -2.305835   -0.490465   -0.787221
     19          1           0       -2.448457   -0.303395    0.957997
     20          1           0       -4.795682   -0.639898   -0.973396
     21          1           0       -4.937310   -0.453325    0.770947
     22          1           0       -3.638787   -2.583131    1.109225
     23          1           0       -3.496354   -2.770765   -0.645029
     24          1           0       -5.086410   -2.873806    0.129835
     25          6           0       -3.107998    1.412247   -0.167964
     26          6           0       -1.775729    2.162089   -0.139996
     27          6           0       -1.943272    3.671749   -0.315071
     28          1           0       -3.616492    1.617687   -1.120132
     29          1           0       -3.759114    1.804757    0.625086
     30          1           0       -1.127639    1.767617   -0.933082
     31          1           0       -1.269267    1.954190    0.811261
     32          1           0       -2.568595    4.085057    0.482894
     33          1           0       -2.426162    3.897425   -1.271361
     34          1           0       -0.978538    4.188098   -0.291970
 ---------------------------------------------------------------------

 SCF Done:  E(RHF) =  -669.536226395     A.U. after   15 cycles
 E2 =    -0.2092342159D+01 EUMP2 =    -0.67162856855404D+03

 The electronic state is 1-A.
 Alpha  occ. eigenvalues --  -20.60950 -20.60936 -15.85961 -11.31286 -11.27847
 Alpha  occ. eigenvalues --  -11.27844 -11.27582 -11.26853 -11.26843 -11.20990
 Alpha  occ. eigenvalues --  -11.20665 -11.20450 -11.20354 -11.19830 -11.19661
 Alpha  occ. eigenvalues --   -1.59988  -1.39549  -1.19450  -1.08854  -1.07369
 Alpha  occ. eigenvalues --   -1.04847  -1.02555  -0.95699  -0.94980  -0.86248
 Alpha  occ. eigenvalues --   -0.85998  -0.82537  -0.78679  -0.77590  -0.77071
 Alpha  occ. eigenvalues --   -0.72190  -0.71285  -0.70561  -0.65109  -0.64851
 Alpha  occ. eigenvalues --   -0.64011  -0.62197  -0.59964  -0.58414  -0.56576
 Alpha  occ. eigenvalues --   -0.55352  -0.54264  -0.53177  -0.52941  -0.51761
 Alpha  occ. eigenvalues --   -0.51385  -0.48992  -0.48951  -0.48884  -0.46967
 Alpha  occ. eigenvalues --   -0.45732  -0.45211  -0.44566  -0.44213  -0.42760
 Alpha  occ. eigenvalues --   -0.37423  -0.36446
 Alpha virt. eigenvalues --    0.04913   0.11197   0.16398   0.21301   0.23766
 Alpha virt. eigenvalues --    0.25310   0.27125   0.27628   0.27827   0.28768
 Alpha virt. eigenvalues --    0.28979   0.31017   0.32151   0.32443   0.32482

 Mulliken charges:
               1
     1  C   -0.170557
     2  C   -0.218526
     3  C   -0.170947
     4  C    0.159269
     5  C   -0.170259
     6  C   -0.218518
     7  H    0.225973
     8  H    0.223761
     9  H    0.275643
    10  H    0.275350
    11  H    0.223779
    12  N    0.489514
    13  O   -0.458908
    14  O   -0.460580
    15  C   -0.304389
    16  C   -0.299585
    17  C   -0.474658
    18  H    0.156407
    19  H    0.167292
    20  H    0.146120
    21  H    0.146056
    22  H    0.159935
    23  H    0.161817
    24  H    0.152280
    25  C   -0.297725
    26  C   -0.298451
    27  C   -0.474663
    28  H    0.145638
    29  H    0.145811
    30  H    0.148237
    31  H    0.151200
    32  H    0.154224
    33  H    0.154521
    34  H    0.154941
 Sum of Mulliken charges =  -0.00000

 Dipole moment (field-independent basis, Debye):
    X=              4.7100    Y=              2.4984    Z=             -0.0517  Tot=              5.3319
 Quadrupole moment (field-independent basis, Debye-Ang):
   XX=            -77.0393   YY=           -100.1250   ZZ=            -89.5794
   XY=              3.0192   XZ=             -1.1863   YZ=              2.4043

 Normal termination of Gaussian 16 at Thu May  6 20:47:03 2021.
