 Gaussian 16, Revision A.03,
 Gaussian 16:  EM64L-G16RevA.03 25-Dec-2016

 -------------
 #p 6-31g* mp2
 -------------

 ------------------------------------------------------
 Input file generated by CHIRIPA (05-May-2021 14:53:16)
 ------------------------------------------------------
 Symbolic Z-matrix:
 Charge =  0 Multiplicity = 1

                         Standard orientation:
 ---------------------------------------------------------------------
 Center     Atomic      Atomic             Coordinates (Angstroms)
 Number     Number       Type             X           Y           Z
 ---------------------------------------------------------------------
      1          6           0       -3.346949    0.762688    0.192628
      2          6           0       -2.257062    1.728715    0.658379
      3          6           0       -2.824109    3.028145    1.230858
      4          1           0       -3.968151    1.258779   -0.565624
      5          1           0       -4.009781    0.533325    1.038466
      6          1           0       -1.595669    1.955103   -0.187744
      7          1           0       -1.638265    1.230200    1.415472
      8          1           0       -3.468079    2.821163    2.091707
      9          1           0       -3.425242    3.550184    0.479382
     10          1           0       -2.027751    3.704079    1.557643
     11          6           0       -2.795739   -0.540958   -0.382177
     12          6           0       -3.885626   -1.506985   -0.847928
     13          6           0       -3.318579   -2.806415   -1.420407
     14          1           0       -2.132907   -0.311595   -1.228015
     15          1           0       -2.174537   -1.037049    0.376075
     16          1           0       -4.504423   -1.008471   -1.605021
     17          1           0       -4.547018   -1.733373   -0.001805
     18          1           0       -2.717446   -3.328454   -0.668931
     19          1           0       -2.674609   -2.599433   -2.281256
     20          1           0       -4.114936   -3.482349   -1.747192
     21          6           0        1.955600   -1.927256    1.741652
     22          6           0        3.123418   -1.946643    0.972011
     23          6           0        3.379721   -0.932023    0.044972
     24          6           0        2.442401    0.091333   -0.087176
     25          6           0        1.269685    0.138588    0.665018
     26          6           0        1.034085   -0.886537    1.585973
     27          1           0        1.764540   -2.719518    2.459435
     28          1           0        3.840853   -2.753627    1.090790
     29          1           0        4.275697   -0.922379   -0.563757
     30          1           0        0.573214    0.956223    0.524238
     31          1           0        0.126293   -0.868897    2.182334
     32          7           0        2.702778    1.171027   -1.065371
     33          8           0        1.861207    2.061466   -1.162902
     34          8           0        3.743504    1.106408   -1.716026
 ---------------------------------------------------------------------

 SCF Done:  E(RHF) =  -669.535220796     A.U. after   15 cycles
 E2 =    -0.2093038714D+01 EUMP2 =    -0.67162825951012D+03

 The electronic state is 1-A.
 Alpha  occ. eigenvalues --  -20.60735 -20.60730 -15.85782 -11.31081 -11.27688
 Alpha  occ. eigenvalues --  -11.27574 -11.27437 -11.26693 -11.26671 -11.22175
 Alpha  occ. eigenvalues --  -11.21936 -11.21828 -11.21769 -11.21369 -11.21359
 Alpha  occ. eigenvalues --   -1.59807  -1.39362  -1.19273  -1.08865  -1.08685
 Alpha  occ. eigenvalues --   -1.04674  -1.03920  -0.96332  -0.95524  -0.87355
 Alpha  occ. eigenvalues --   -0.86077  -0.82368  -0.80047  -0.78743  -0.77363
 Alpha  occ. eigenvalues --   -0.72003  -0.71127  -0.70390  -0.65514  -0.64923
 Alpha  occ. eigenvalues --   -0.64680  -0.62062  -0.61306  -0.59686  -0.57960
 Alpha  occ. eigenvalues --   -0.55611  -0.55197  -0.53064  -0.53003  -0.52840
 Alpha  occ. eigenvalues --   -0.52652  -0.50276  -0.48764  -0.48758  -0.48286
 Alpha  occ. eigenvalues --   -0.47048  -0.46215  -0.46110  -0.44778  -0.44171
 Alpha  occ. eigenvalues --   -0.37267  -0.36252
 Alpha virt. eigenvalues --    0.05104   0.11329   0.16526   0.19872   0.22825
 Alpha virt. eigenvalues --    0.23940   0.24707   0.25981   0.27486   0.28320
 Alpha virt. eigenvalues --    0.29679   0.30187   0.31501   0.31566   0.32092

 Mulliken charges:
               1
     1  C   -0.297203
     2  C   -0.312949
     3  C   -0.474932
     4  H    0.154461
     5  H    0.148882
     6  H    0.167067
     7  H    0.139459
     8  H    0.154233
     9  H    0.159785
    10  H    0.164328
    11  C   -0.301044
    12  C   -0.299980
    13  C   -0.475625
    14  H    0.155436
    15  H    0.142340
    16  H    0.154744
    17  H    0.151066
    18  H    0.152425
    19  H    0.158016
    20  H    0.161282
    21  C   -0.170654
    22  C   -0.219357
    23  C   -0.169894
    24  C    0.156709
    25  C   -0.176093
    26  C   -0.224122
    27  H    0.225132
    28  H    0.223071
    29  H    0.275201
    30  H    0.289289
    31  H    0.223607
    32  N    0.488024
    33  O   -0.462231
    34  O   -0.460474
 Sum of Mulliken charges =  -0.00000

 Dipole moment (field-independent basis, Debye):
    X=             -1.0619    Y=             -3.6875    Z=              3.3087  Tot=              5.0668
 Quadrupole moment (field-independent basis, Debye-Ang):
   XX=            -95.4652   YY=            -95.5053   ZZ=            -95.1184
   XY=            -11.7285   XZ=              7.7153   YZ=              0.4012

 Normal termination of Gaussian 16 at Wed May  5 18:43:18 2021.
