 Gaussian 16, Revision A.03,
 Gaussian 16:  EM64L-G16RevA.03 25-Dec-2016

 -------------
 #p 6-31g* mp2
 -------------

 ------------------------------------------------------
 Input file generated by CHIRIPA (05-May-2021 14:57:25)
 ------------------------------------------------------
 Symbolic Z-matrix:
 Charge =  0 Multiplicity = 1

                         Standard orientation:
 ---------------------------------------------------------------------
 Center     Atomic      Atomic             Coordinates (Angstroms)
 Number     Number       Type             X           Y           Z
 ---------------------------------------------------------------------
      1          6           0        3.401521    2.673328   -0.148833
      2          6           0        2.324708    1.786463   -0.046531
      3          6           0        2.544322    0.407175    0.015776
      4          6           0        3.859586   -0.052769   -0.026912
      5          6           0        4.953350    0.805509   -0.128555
      6          6           0        4.710098    2.180888   -0.189447
      7          1           0        3.221738    3.743274   -0.196685
      8          1           0        1.307386    2.166060   -0.014785
      9          1           0        1.729138   -0.301755    0.095223
     10          1           0        5.956263    0.397202   -0.158035
     11          1           0        5.548299    2.867296   -0.268869
     12          7           0        4.104594   -1.510890    0.038301
     13          8           0        5.272802   -1.890853   -0.001137
     14          8           0        3.123784   -2.246194    0.127617
     15          6           0       -1.818017   -1.718807    0.165760
     16          6           0       -3.058525   -2.220678   -0.241409
     17          6           0       -4.174145   -1.381413   -0.316070
     18          6           0       -4.012674   -0.039511    0.025276
     19          6           0       -2.789963    0.490357    0.434552
     20          6           0       -1.687924   -0.367274    0.501848
     21          1           0       -0.956652   -2.377902    0.220897
     22          1           0       -3.162503   -3.269865   -0.503020
     23          1           0       -5.146185   -1.743614   -0.628104
     24          1           0       -2.717359    1.540783    0.689013
     25          1           0       -0.725754    0.025246    0.818394
     26          7           0       -5.186541    0.858703   -0.049865
     27          8           0       -5.018074    2.037082    0.256200
     28          8           0       -6.252859    0.367336   -0.413405
 ---------------------------------------------------------------------

 SCF Done:  E(RHF) =  -868.337662943     A.U. after   16 cycles
 E2 =    -0.2599635982D+01 EUMP2 =    -0.87093729892524D+03

 The electronic state is 1-A.
 Alpha  occ. eigenvalues --  -20.61577 -20.61540 -20.61011 -20.60997 -15.86614
 Alpha  occ. eigenvalues --  -15.86065 -11.31958 -11.31444 -11.28627 -11.28458
 Alpha  occ. eigenvalues --  -11.28197 -11.28116 -11.27995 -11.27703 -11.27572
 Alpha  occ. eigenvalues --  -11.27450 -11.27160 -11.26941  -1.60628  -1.60082
 Alpha  occ. eigenvalues --   -1.40188  -1.39636  -1.20115  -1.19628  -1.09497
 Alpha  occ. eigenvalues --   -1.09000  -1.05534  -1.05056  -0.96348  -0.95829
 Alpha  occ. eigenvalues --   -0.86922  -0.86448  -0.83199  -0.82678  -0.78272
 Alpha  occ. eigenvalues --   -0.77737  -0.72837  -0.72282  -0.71945  -0.71407
 Alpha  occ. eigenvalues --   -0.71224  -0.70671  -0.65781  -0.65550  -0.65277
 Alpha  occ. eigenvalues --   -0.65096  -0.62952  -0.62346  -0.55986  -0.55460
 Alpha  occ. eigenvalues --   -0.53832  -0.53640  -0.53353  -0.53145  -0.49602
 Alpha  occ. eigenvalues --   -0.49573  -0.49042  -0.49034  -0.45598  -0.45039
 Alpha  occ. eigenvalues --   -0.38054  -0.37568  -0.37126  -0.36667
 Alpha virt. eigenvalues --    0.04293   0.04828   0.10536   0.10940   0.15786
 Alpha virt. eigenvalues --    0.16295   0.17986   0.22180   0.24822   0.25924
 Alpha virt. eigenvalues --    0.27835   0.29268   0.30437   0.31353   0.32177

 Mulliken charges:
               1
     1  C   -0.169832
     2  C   -0.218416
     3  C   -0.174488
     4  C    0.160761
     5  C   -0.169595
     6  C   -0.218073
     7  H    0.229357
     8  H    0.220954
     9  H    0.268015
    10  H    0.277817
    11  H    0.226762
    12  N    0.488938
    13  O   -0.456120
    14  O   -0.466315
    15  C   -0.172686
    16  C   -0.218792
    17  C   -0.169815
    18  C    0.158492
    19  C   -0.171021
    20  C   -0.223562
    21  H    0.237616
    22  H    0.227196
    23  H    0.276994
    24  H    0.272430
    25  H    0.215965
    26  N    0.488187
    27  O   -0.461849
    28  O   -0.458916
 Sum of Mulliken charges =  -0.00000

 Dipole moment (field-independent basis, Debye):
    X=              3.4285    Y=              1.9196    Z=             -0.0347  Tot=              3.9294
 Quadrupole moment (field-independent basis, Debye-Ang):
   XX=           -136.9358   YY=           -102.1825   ZZ=           -106.0385
   XY=             36.9208   XZ=             -1.1748   YZ=              1.0562

 Normal termination of Gaussian 16 at Fri May  7 03:28:07 2021.
