 Gaussian 16, Revision A.03,
 Gaussian 16:  EM64L-G16RevA.03 25-Dec-2016

 -------------
 #p 6-31g* mp2
 -------------

 ------------------------------------------------------
 Input file generated by CHIRIPA (05-May-2021 14:57:23)
 ------------------------------------------------------
 Symbolic Z-matrix:
 Charge =  0 Multiplicity = 1

                         Standard orientation:
 ---------------------------------------------------------------------
 Center     Atomic      Atomic             Coordinates (Angstroms)
 Number     Number       Type             X           Y           Z
 ---------------------------------------------------------------------
      1          6           0        1.629753    1.351372    0.536449
      2          6           0        1.722218   -0.043528    0.583631
      3          6           0        2.914070   -0.688141    0.239373
      4          6           0        3.998672    0.096650   -0.149254
      5          6           0        3.937769    1.488170   -0.206305
      6          6           0        2.735873    2.111429    0.142326
      7          1           0        0.699993    1.843828    0.805575
      8          1           0        0.864805   -0.636344    0.889338
      9          1           0        3.013203   -1.766484    0.267039
     10          1           0        4.809489    2.052291   -0.514993
     11          1           0        2.666951    3.194887    0.104755
     12          7           0        5.265748   -0.574469   -0.516020
     13          8           0        6.206924    0.139583   -0.855071
     14          8           0        5.293714   -1.801836   -0.457495
     15          6           0       -5.674328    0.568794   -1.398600
     16          6           0       -5.119429    1.442948   -0.458142
     17          6           0       -4.074946    1.023743    0.371239
     18          6           0       -3.607657   -0.282285    0.232604
     19          6           0       -4.139720   -1.176770   -0.694810
     20          6           0       -5.183567   -0.735974   -1.513730
     21          1           0       -6.485460    0.902828   -2.038820
     22          1           0       -5.498555    2.456808   -0.366516
     23          1           0       -3.627012    1.679711    1.107773
     24          1           0       -3.740670   -2.181534   -0.762827
     25          1           0       -5.612586   -1.417031   -2.243216
     26          7           0       -2.502246   -0.737507    1.105094
     27          8           0       -2.108393   -1.893101    0.963269
     28          8           0       -2.050610    0.069907    1.914258
 ---------------------------------------------------------------------

 SCF Done:  E(RHF) =  -868.340968943     A.U. after   16 cycles
 E2 =    -0.2598906121D+01 EUMP2 =    -0.87093987506434D+03

 The electronic state is 1-A.
 Alpha  occ. eigenvalues --  -20.62134 -20.62089 -20.60073 -20.60062 -15.87103
 Alpha  occ. eigenvalues --  -15.85113 -11.32118 -11.30305 -11.28663 -11.28616
 Alpha  occ. eigenvalues --  -11.28302 -11.27575 -11.27542 -11.26892 -11.26752
 Alpha  occ. eigenvalues --  -11.26458 -11.25890 -11.25565  -1.61167  -1.59149
 Alpha  occ. eigenvalues --   -1.40723  -1.38707  -1.20253  -1.18435  -1.09712
 Alpha  occ. eigenvalues --   -1.07849  -1.05598  -1.03792  -0.96602  -0.94723
 Alpha  occ. eigenvalues --   -0.87012  -0.85186  -0.83445  -0.81551  -0.78539
 Alpha  occ. eigenvalues --   -0.76635  -0.73312  -0.72471  -0.71349  -0.71335
 Alpha  occ. eigenvalues --   -0.70471  -0.69512  -0.65903  -0.65592  -0.64067
 Alpha  occ. eigenvalues --   -0.63740  -0.62949  -0.61123  -0.56103  -0.54261
 Alpha  occ. eigenvalues --   -0.53947  -0.53681  -0.52162  -0.51854  -0.50096
 Alpha  occ. eigenvalues --   -0.50040  -0.48102  -0.48072  -0.46199  -0.44152
 Alpha  occ. eigenvalues --   -0.38205  -0.37184  -0.36407  -0.35405
 Alpha virt. eigenvalues --    0.03909   0.05862   0.10476   0.12247   0.15476
 Alpha virt. eigenvalues --    0.17417   0.20636   0.22548   0.26587   0.27431
 Alpha virt. eigenvalues --    0.28502   0.29155   0.30451   0.31519   0.32412

 Mulliken charges:
               1
     1  C   -0.173771
     2  C   -0.227545
     3  C   -0.173506
     4  C    0.158059
     5  C   -0.173253
     6  C   -0.219046
     7  H    0.228730
     8  H    0.245713
     9  H    0.275490
    10  H    0.271870
    11  H    0.218555
    12  N    0.488087
    13  O   -0.463668
    14  O   -0.461514
    15  C   -0.169266
    16  C   -0.218386
    17  C   -0.171563
    18  C    0.158413
    19  C   -0.169871
    20  C   -0.218377
    21  H    0.228990
    22  H    0.225714
    23  H    0.273829
    24  H    0.277507
    25  H    0.226956
    26  N    0.487646
    27  O   -0.458951
    28  O   -0.466843
 Sum of Mulliken charges =  -0.00000

 Dipole moment (field-independent basis, Debye):
    X=             -8.9994    Y=              3.8305    Z=             -1.8039  Tot=              9.9457
 Quadrupole moment (field-independent basis, Debye-Ang):
   XX=           -112.5928   YY=            -97.5603   ZZ=           -106.8652
   XY=              6.2821   XZ=             16.6137   YZ=              2.3570

 Normal termination of Gaussian 16 at Thu May  6 03:24:54 2021.
