 Gaussian 16, Revision A.03,
 Gaussian 16:  EM64L-G16RevA.03 25-Dec-2016

 -------------
 #p 6-31g* mp2
 -------------

 ------------------------------------------------------
 Input file generated by CHIRIPA (05-May-2021 14:55:24)
 ------------------------------------------------------
 Symbolic Z-matrix:
 Charge =  0 Multiplicity = 1

                         Standard orientation:
 ---------------------------------------------------------------------
 Center     Atomic      Atomic             Coordinates (Angstroms)
 Number     Number       Type             X           Y           Z
 ---------------------------------------------------------------------
      1          6           0       -1.991820    2.107032    0.063630
      2          6           0       -2.849601    1.802871   -0.998547
      3          6           0       -3.548258    0.592149   -1.022632
      4          6           0       -3.364628   -0.295250    0.036657
      5          6           0       -2.517169   -0.021010    1.108989
      6          6           0       -1.828630    1.195728    1.112159
      7          1           0       -1.453017    3.049887    0.074216
      8          1           0       -2.978283    2.508701   -1.814200
      9          1           0       -4.218649    0.331261   -1.832528
     10          1           0       -2.409396   -0.744650    1.907831
     11          1           0       -1.163129    1.429280    1.938360
     12          7           0       -4.098909   -1.580171    0.022230
     13          8           0       -3.919822   -2.345057    0.967489
     14          8           0       -4.839623   -1.798077   -0.934063
     15          6           0        4.859049   -0.119433    0.129073
     16          6           0        5.247905   -1.454316   -0.507217
     17          6           0        6.665541   -1.893674   -0.139698
     18          1           0        5.576226    0.651566   -0.184236
     19          1           0        4.946635   -0.202469    1.221239
     20          1           0        5.158282   -1.369209   -1.597786
     21          1           0        4.529609   -2.222187   -0.192511
     22          1           0        6.764956   -2.006414    0.944740
     23          1           0        7.397201   -1.148589   -0.468519
     24          1           0        6.922773   -2.850217   -0.605227
     25          6           0        3.444593    0.333141   -0.229002
     26          6           0        3.055736    1.668023    0.407288
     27          6           0        1.638101    2.107381    0.039768
     28          1           0        3.357007    0.416177   -1.321170
     29          1           0        2.727416   -0.437859    0.084306
     30          1           0        3.774033    2.435894    0.092581
     31          1           0        3.145360    1.582915    1.497856
     32          1           0        0.906441    1.362296    0.368589
     33          1           0        1.538686    2.220120   -1.044670
     34          1           0        1.380870    3.063924    0.505297
 ---------------------------------------------------------------------

 SCF Done:  E(RHF) =  -669.534556453     A.U. after   15 cycles
 E2 =    -0.2092292002D+01 EUMP2 =    -0.67162684845525D+03

 The electronic state is 1-A.
 Alpha  occ. eigenvalues --  -20.60747 -20.60741 -15.85802 -11.31157 -11.27743
 Alpha  occ. eigenvalues --  -11.27739 -11.27441 -11.26728 -11.26711 -11.22240
 Alpha  occ. eigenvalues --  -11.21899 -11.21865 -11.21850 -11.21727 -11.21279
 Alpha  occ. eigenvalues --   -1.59823  -1.39377  -1.19342  -1.08883  -1.08725
 Alpha  occ. eigenvalues --   -1.04752  -1.04011  -0.96493  -0.95556  -0.87525
 Alpha  occ. eigenvalues --   -0.86136  -0.82398  -0.80091  -0.78656  -0.77450
 Alpha  occ. eigenvalues --   -0.72020  -0.71147  -0.70428  -0.65523  -0.64989
 Alpha  occ. eigenvalues --   -0.64755  -0.62120  -0.61389  -0.59883  -0.58077
 Alpha  occ. eigenvalues --   -0.55793  -0.55235  -0.53373  -0.53115  -0.52839
 Alpha  occ. eigenvalues --   -0.52678  -0.50394  -0.48777  -0.48774  -0.48387
 Alpha  occ. eigenvalues --   -0.47098  -0.46206  -0.46111  -0.44785  -0.44266
 Alpha  occ. eigenvalues --   -0.37238  -0.36333
 Alpha virt. eigenvalues --    0.05078   0.11197   0.16508   0.20690   0.22571
 Alpha virt. eigenvalues --    0.23989   0.26180   0.26460   0.27027   0.27434
 Alpha virt. eigenvalues --    0.28815   0.30136   0.31026   0.31690   0.32512

 Mulliken charges:
               1
     1  C   -0.165251
     2  C   -0.219988
     3  C   -0.170506
     4  C    0.158193
     5  C   -0.172666
     6  C   -0.221122
     7  H    0.228794
     8  H    0.223382
     9  H    0.275535
    10  H    0.275319
    11  H    0.224714
    12  N    0.488153
    13  O   -0.460707
    14  O   -0.460551
    15  C   -0.298652
    16  C   -0.300164
    17  C   -0.475979
    18  H    0.149977
    19  H    0.149623
    20  H    0.152559
    21  H    0.153368
    22  H    0.155442
    23  H    0.155164
    24  H    0.161691
    25  C   -0.298831
    26  C   -0.299751
    27  C   -0.484078
    28  H    0.150751
    29  H    0.151093
    30  H    0.153348
    31  H    0.151095
    32  H    0.161946
    33  H    0.157184
    34  H    0.150915
 Sum of Mulliken charges =  -0.00000

 Dipole moment (field-independent basis, Debye):
    X=              2.6657    Y=              4.4847    Z=              0.0054  Tot=              5.2171
 Quadrupole moment (field-independent basis, Debye-Ang):
   XX=           -112.5684   YY=            -97.9063   ZZ=            -90.5292
   XY=            -16.3745   XZ=              1.5250   YZ=             -1.5376

 Normal termination of Gaussian 16 at Thu May  6 16:00:04 2021.
