 Gaussian 16, Revision A.03,
 Gaussian 16:  EM64L-G16RevA.03 25-Dec-2016

 -------------
 #p 6-31g* mp2
 -------------

 ------------------------------------------------------
 Input file generated by CHIRIPA (05-May-2021 14:55:23)
 ------------------------------------------------------
 Symbolic Z-matrix:
 Charge =  0 Multiplicity = 1

                         Standard orientation:
 ---------------------------------------------------------------------
 Center     Atomic      Atomic             Coordinates (Angstroms)
 Number     Number       Type             X           Y           Z
 ---------------------------------------------------------------------
      1          6           0        1.364752   -2.875929    0.262528
      2          6           0        0.641635   -1.863204    0.901287
      3          6           0        1.061833   -0.532184    0.821488
      4          6           0        2.214830   -0.248324    0.091208
      5          6           0        2.956768   -1.235059   -0.556230
      6          6           0        2.517977   -2.559182   -0.462913
      7          1           0        1.031111   -3.907218    0.329769
      8          1           0       -0.254346   -2.106260    1.465368
      9          1           0        0.520971    0.271481    1.306265
     10          1           0        3.846017   -0.961853   -1.111219
     11          1           0        3.081545   -3.343617   -0.960001
     12          7           0        2.669517    1.157116   -0.000428
     13          8           0        3.688609    1.381096   -0.649981
     14          8           0        1.998197    2.008108    0.579038
     15          6           0       -3.103740    0.040197    0.211480
     16          6           0       -3.546542   -1.065592   -0.747239
     17          6           0       -4.274685   -2.207179   -0.037043
     18          1           0       -2.449471   -0.391110    0.981449
     19          1           0       -3.984667    0.435873    0.735696
     20          1           0       -2.665215   -1.458115   -1.270503
     21          1           0       -4.199678   -0.631566   -1.515127
     22          1           0       -5.170645   -1.835743    0.470787
     23          1           0       -3.627464   -2.666988    0.716801
     24          1           0       -4.582316   -2.986648   -0.741069
     25          6           0       -2.374386    1.188495   -0.483634
     26          6           0       -1.931584    2.294284    0.475085
     27          6           0       -1.203440    3.435872   -0.235111
     28          1           0       -1.493458    0.792819   -1.007850
     29          1           0       -3.028654    1.619803   -1.253603
     30          1           0       -1.278448    1.860258    1.242973
     31          1           0       -2.812910    2.686808    0.998349
     32          1           0       -1.850661    3.895681   -0.988955
     33          1           0       -0.307480    3.064435   -0.742942
     34          1           0       -0.895809    4.215339    0.468915
 ---------------------------------------------------------------------

 SCF Done:  E(RHF) =  -669.535451065     A.U. after   15 cycles
 E2 =    -0.2094170742D+01 EUMP2 =    -0.67162962180613D+03

 The electronic state is 1-A.
 Alpha  occ. eigenvalues --  -20.60940 -20.60933 -15.85963 -11.31297 -11.27862
 Alpha  occ. eigenvalues --  -11.27848 -11.27595 -11.26870 -11.26860 -11.21985
 Alpha  occ. eigenvalues --  -11.21764 -11.21592 -11.21423 -11.21363 -11.20233
 Alpha  occ. eigenvalues --   -1.60001  -1.39556  -1.19470  -1.08869  -1.08585
 Alpha  occ. eigenvalues --   -1.04865  -1.03540  -0.95967  -0.95706  -0.86979
 Alpha  occ. eigenvalues --   -0.86261  -0.82543  -0.79657  -0.78362  -0.77597
 Alpha  occ. eigenvalues --   -0.72194  -0.71322  -0.70584  -0.65288  -0.65120
 Alpha  occ. eigenvalues --   -0.64874  -0.62199  -0.60895  -0.59411  -0.57563
 Alpha  occ. eigenvalues --   -0.55364  -0.55270  -0.53182  -0.52967  -0.52610
 Alpha  occ. eigenvalues --   -0.52383  -0.49911  -0.48955  -0.48934  -0.47941
 Alpha  occ. eigenvalues --   -0.46733  -0.45899  -0.45815  -0.44853  -0.43809
 Alpha  occ. eigenvalues --   -0.37443  -0.36446
 Alpha virt. eigenvalues --    0.04878   0.11113   0.16274   0.19077   0.23143
 Alpha virt. eigenvalues --    0.23432   0.25085   0.26944   0.27757   0.28055
 Alpha virt. eigenvalues --    0.29105   0.30961   0.31575   0.31927   0.32373

 Mulliken charges:
               1
     1  C   -0.170685
     2  C   -0.223031
     3  C   -0.174207
     4  C    0.155305
     5  C   -0.169985
     6  C   -0.218772
     7  H    0.226443
     8  H    0.225843
     9  H    0.286088
    10  H    0.275946
    11  H    0.223964
    12  N    0.487236
    13  O   -0.458838
    14  O   -0.459947
    15  C   -0.296181
    16  C   -0.300842
    17  C   -0.474417
    18  H    0.136602
    19  H    0.152002
    20  H    0.152075
    21  H    0.155188
    22  H    0.157757
    23  H    0.147065
    24  H    0.161185
    25  C   -0.301682
    26  C   -0.302074
    27  C   -0.473950
    28  H    0.150380
    29  H    0.151994
    30  H    0.147032
    31  H    0.150596
    32  H    0.148337
    33  H    0.169385
    34  H    0.164187
 Sum of Mulliken charges =  -0.00000

 Dipole moment (field-independent basis, Debye):
    X=             -1.4618    Y=             -4.8347    Z=              0.2291  Tot=              5.0561
 Quadrupole moment (field-independent basis, Debye-Ang):
   XX=            -98.5954   YY=            -92.6613   ZZ=            -93.9016
   XY=            -12.8351   XZ=             -1.4465   YZ=              0.7123

 Normal termination of Gaussian 16 at Thu May  6 20:52:34 2021.
