 Gaussian 16, Revision A.03,
 Gaussian 16:  EM64L-G16RevA.03 25-Dec-2016

 -------------
 #p 6-31g* mp2
 -------------

 ------------------------------------------------------
 Input file generated by CHIRIPA (05-May-2021 14:53:13)
 ------------------------------------------------------
 Symbolic Z-matrix:
 Charge =  0 Multiplicity = 1

                         Standard orientation:
 ---------------------------------------------------------------------
 Center     Atomic      Atomic             Coordinates (Angstroms)
 Number     Number       Type             X           Y           Z
 ---------------------------------------------------------------------
      1          6           0        4.835505    0.492066    0.206501
      2          6           0        6.244202    0.165293   -0.290265
      3          6           0        7.311022    1.078288    0.314820
      4          1           0        4.602877    1.538799   -0.032618
      5          1           0        4.812084    0.409043    1.301925
      6          1           0        6.264605    0.247559   -1.384537
      7          1           0        6.473430   -0.880840   -0.050106
      8          1           0        7.319795    0.989995    1.406025
      9          1           0        7.109784    2.124806    0.064011
     10          1           0        8.310444    0.827185   -0.053913
     11          6           0        3.758023   -0.412132   -0.389476
     12          6           0        2.349326   -0.085359    0.107291
     13          6           0        1.282506   -0.998355   -0.497794
     14          1           0        3.781444   -0.329110   -1.484900
     15          1           0        3.990651   -1.458866   -0.150356
     16          1           0        2.120098    0.960774   -0.132869
     17          1           0        2.328923   -0.167625    1.201563
     18          1           0        1.483744   -2.044872   -0.246985
     19          1           0        1.273733   -0.910062   -1.588999
     20          1           0        0.283084   -0.747252   -0.129062
     21          6           0       -4.457196    2.219336   -0.228755
     22          6           0       -4.242352    1.391921   -1.335891
     23          6           0       -3.633562    0.142907   -1.181333
     24          6           0       -3.250469   -0.248800    0.100500
     25          6           0       -3.450897    0.552976    1.223119
     26          6           0       -4.061480    1.797965    1.044971
     27          1           0       -4.930815    3.188036   -0.357982
     28          1           0       -4.548637    1.716563   -2.326265
     29          1           0       -3.455213   -0.517591   -2.021186
     30          1           0       -3.134692    0.201956    2.197911
     31          1           0       -4.227070    2.438456    1.906595
     32          7           0       -2.605021   -1.568945    0.276610
     33          8           0       -2.276706   -1.890906    1.416428
     34          8           0       -2.439655   -2.256715   -0.728509
 ---------------------------------------------------------------------

 SCF Done:  E(RHF) =  -669.535547992     A.U. after   15 cycles
 E2 =    -0.2091114650D+01 EUMP2 =    -0.67162666264274D+03

 The electronic state is 1-A.
 Alpha  occ. eigenvalues --  -20.60797 -20.60787 -15.85833 -11.31215 -11.27785
 Alpha  occ. eigenvalues --  -11.27780 -11.27530 -11.26800 -11.26790 -11.21327
 Alpha  occ. eigenvalues --  -11.21064 -11.21051 -11.20925 -11.20859 -11.20294
 Alpha  occ. eigenvalues --   -1.59869  -1.39419  -1.19388  -1.08784  -1.08031
 Alpha  occ. eigenvalues --   -1.04790  -1.03091  -0.95617  -0.95525  -0.86535
 Alpha  occ. eigenvalues --   -0.86188  -0.82446  -0.79160  -0.77840  -0.77492
 Alpha  occ. eigenvalues --   -0.72056  -0.71214  -0.70495  -0.65040  -0.64793
 Alpha  occ. eigenvalues --   -0.64663  -0.62137  -0.60485  -0.58914  -0.57143
 Alpha  occ. eigenvalues --   -0.55293  -0.54805  -0.53121  -0.52882  -0.52208
 Alpha  occ. eigenvalues --   -0.51948  -0.49460  -0.48815  -0.48812  -0.47475
 Alpha  occ. eigenvalues --   -0.46202  -0.45379  -0.45307  -0.44812  -0.43349
 Alpha  occ. eigenvalues --   -0.37371  -0.36393
 Alpha virt. eigenvalues --    0.05033   0.11261   0.16507   0.21395   0.23239
 Alpha virt. eigenvalues --    0.24674   0.27039   0.27306   0.27862   0.28100
 Alpha virt. eigenvalues --    0.28458   0.30749   0.31848   0.31990   0.32219

 Mulliken charges:
               1
     1  C   -0.297766
     2  C   -0.299391
     3  C   -0.475452
     4  H    0.147654
     5  H    0.149352
     6  H    0.151300
     7  H    0.152533
     8  H    0.154992
     9  H    0.154073
    10  H    0.159590
    11  C   -0.298184
    12  C   -0.300733
    13  C   -0.469546
    14  H    0.148238
    15  H    0.151218
    16  H    0.146858
    17  H    0.152606
    18  H    0.163199
    19  H    0.151949
    20  H    0.156179
    21  C   -0.170683
    22  C   -0.218641
    23  C   -0.170645
    24  C    0.155897
    25  C   -0.171187
    26  C   -0.218561
    27  H    0.225695
    28  H    0.223549
    29  H    0.276018
    30  H    0.275832
    31  H    0.223570
    32  N    0.488448
    33  O   -0.459828
    34  O   -0.458132
 Sum of Mulliken charges =  -0.00000

 Dipole moment (field-independent basis, Debye):
    X=             -2.3795    Y=              4.5569    Z=             -0.6196  Tot=              5.1779
 Quadrupole moment (field-independent basis, Debye-Ang):
   XX=            -81.9360   YY=            -97.3646   ZZ=            -89.5950
   XY=            -15.6282   XZ=              2.1188   YZ=              0.8717

 Normal termination of Gaussian 16 at Wed May  5 20:08:58 2021.
