 Gaussian 16, Revision A.03,
 Gaussian 16:  EM64L-G16RevA.03 25-Dec-2016

 -------------
 #p 6-31g* mp2
 -------------

 ------------------------------------------------------
 Input file generated by CHIRIPA (05-May-2021 14:55:25)
 ------------------------------------------------------
 Symbolic Z-matrix:
 Charge =  0 Multiplicity = 1

                         Standard orientation:
 ---------------------------------------------------------------------
 Center     Atomic      Atomic             Coordinates (Angstroms)
 Number     Number       Type             X           Y           Z
 ---------------------------------------------------------------------
      1          6           0        3.918042    1.881386   -0.256200
      2          6           0        4.739061    0.753489   -0.154721
      3          6           0        4.180940   -0.520904   -0.016993
      4          6           0        2.791686   -0.631312    0.015759
      5          6           0        1.947088    0.473311   -0.082997
      6          6           0        2.527127    1.737949   -0.220078
      7          1           0        4.360117    2.867576   -0.362939
      8          1           0        5.819583    0.861878   -0.182475
      9          1           0        4.793078   -1.410962    0.063642
     10          1           0        0.873335    0.333589   -0.052175
     11          1           0        1.887053    2.612119   -0.298670
     12          7           0        2.189226   -1.975292    0.161223
     13          8           0        0.962451   -2.045819    0.187413
     14          8           0        2.955200   -2.932728    0.246293
     15          6           0       -4.341299    0.171884    0.230453
     16          6           0       -4.631173   -1.106049   -0.557484
     17          6           0       -5.916482   -1.800226   -0.105934
     18          1           0       -4.272000   -0.071814    1.299449
     19          1           0       -5.189503    0.861866    0.121506
     20          1           0       -3.782072   -1.792854   -0.448212
     21          1           0       -4.699601   -0.859311   -1.624749
     22          1           0       -6.777571   -1.135801   -0.231095
     23          1           0       -5.854828   -2.074648    0.952127
     24          1           0       -6.104442   -2.711418   -0.682354
     25          6           0       -3.059606    0.877224   -0.209421
     26          6           0       -2.769731    2.155157    0.578515
     27          6           0       -1.484422    2.849334    0.126966
     28          1           0       -2.211401    0.187243   -0.100473
     29          1           0       -3.128905    1.120921   -1.278417
     30          1           0       -2.701304    1.908420    1.645780
     31          1           0       -3.618833    2.841962    0.469244
     32          1           0       -1.546076    3.123755   -0.931094
     33          1           0       -0.623333    2.184909    0.252128
     34          1           0       -1.296463    3.760527    0.703386
 ---------------------------------------------------------------------

 SCF Done:  E(RHF) =  -669.535431384     A.U. after   15 cycles
 E2 =    -0.2091854516D+01 EUMP2 =    -0.67162728590047D+03

 The electronic state is 1-A.
 Alpha  occ. eigenvalues --  -20.60781 -20.60776 -15.85830 -11.31161 -11.27725
 Alpha  occ. eigenvalues --  -11.27705 -11.27456 -11.26740 -11.26689 -11.21968
 Alpha  occ. eigenvalues --  -11.21877 -11.21467 -11.21324 -11.21261 -11.20793
 Alpha  occ. eigenvalues --   -1.59853  -1.39408  -1.19327  -1.08728  -1.08483
 Alpha  occ. eigenvalues --   -1.04731  -1.03645  -0.96135  -0.95571  -0.87167
 Alpha  occ. eigenvalues --   -0.86124  -0.82409  -0.79736  -0.78231  -0.77452
 Alpha  occ. eigenvalues --   -0.72051  -0.71173  -0.70453  -0.65128  -0.64975
 Alpha  occ. eigenvalues --   -0.64724  -0.62170  -0.60984  -0.59533  -0.57698
 Alpha  occ. eigenvalues --   -0.55469  -0.55189  -0.53058  -0.52922  -0.52741
 Alpha  occ. eigenvalues --   -0.52555  -0.50091  -0.48805  -0.48802  -0.48032
 Alpha  occ. eigenvalues --   -0.46727  -0.45787  -0.45646  -0.44821  -0.43865
 Alpha  occ. eigenvalues --   -0.37308  -0.36324
 Alpha virt. eigenvalues --    0.05069   0.11327   0.16560   0.19796   0.22779
 Alpha virt. eigenvalues --    0.23968   0.25537   0.26066   0.27230   0.28219
 Alpha virt. eigenvalues --    0.29582   0.30019   0.31404   0.31435   0.32082

 Mulliken charges:
               1
     1  C   -0.170791
     2  C   -0.218743
     3  C   -0.170743
     4  C    0.160000
     5  C   -0.179201
     6  C   -0.222284
     7  H    0.225642
     8  H    0.223329
     9  H    0.275364
    10  H    0.281336
    11  H    0.228558
    12  N    0.488571
    13  O   -0.462127
    14  O   -0.460164
    15  C   -0.298253
    16  C   -0.301872
    17  C   -0.475916
    18  H    0.151504
    19  H    0.148148
    20  H    0.160680
    21  H    0.150642
    22  H    0.153168
    23  H    0.156068
    24  H    0.161411
    25  C   -0.303846
    26  C   -0.299488
    27  C   -0.482283
    28  H    0.157448
    29  H    0.149122
    30  H    0.155124
    31  H    0.154048
    32  H    0.157186
    33  H    0.146805
    34  H    0.161556
 Sum of Mulliken charges =  -0.00000

 Dipole moment (field-independent basis, Debye):
    X=              2.0092    Y=              4.6760    Z=             -0.5002  Tot=              5.1139
 Quadrupole moment (field-independent basis, Debye-Ang):
   XX=            -78.9898   YY=           -100.5171   ZZ=            -95.2599
   XY=              9.2199   XZ=             -0.8256   YZ=              0.0923

 Normal termination of Gaussian 16 at Wed May  5 19:12:38 2021.
