 Gaussian 16, Revision A.03,
 Gaussian 16:  EM64L-G16RevA.03 25-Dec-2016

 -------------
 #p 6-31g* mp2
 -------------

 ------------------------------------------------------
 Input file generated by CHIRIPA (05-May-2021 14:51:07)
 ------------------------------------------------------
 Symbolic Z-matrix:
 Charge =  0 Multiplicity = 1

                         Standard orientation:
 ---------------------------------------------------------------------
 Center     Atomic      Atomic             Coordinates (Angstroms)
 Number     Number       Type             X           Y           Z
 ---------------------------------------------------------------------
      1          6           0        3.786365   -0.593499   -0.124330
      2          6           0        5.305957   -0.423902   -0.132176
      3          6           0        6.011443   -1.456103   -1.012314
      4          1           0        3.538530   -1.605414    0.224311
      5          1           0        3.410535   -0.516872   -1.154027
      6          1           0        5.678654   -0.499446    0.897390
      7          1           0        5.550196    0.587792   -0.480657
      8          1           0        5.667753   -1.377839   -2.048824
      9          1           0        5.796940   -2.471254   -0.662947
     10          1           0        7.096935   -1.316509   -1.003365
     11          6           0        3.066951    0.431093    0.751104
     12          6           0        1.547359    0.261497    0.758949
     13          6           0        0.841873    1.293698    1.639088
     14          1           0        3.442780    0.354467    1.780801
     15          1           0        3.314786    1.443008    0.402462
     16          1           0        1.303120   -0.750197    1.107430
     17          1           0        1.174662    0.337040   -0.270617
     18          1           0        1.056376    2.308849    1.289721
     19          1           0        1.185563    1.215434    2.675598
     20          1           0       -0.243619    1.154103    1.630139
     21          6           0       -4.023337   -0.272823    0.006100
     22          6           0       -4.032243   -1.782856   -0.234118
     23          6           0       -5.232037   -2.477030    0.411182
     24          1           0       -4.022265   -0.080018    1.087659
     25          1           0       -4.953660    0.159539   -0.387549
     26          1           0       -3.101564   -2.212046    0.158629
     27          1           0       -4.033101   -1.972089   -1.315230
     28          1           0       -6.169460   -2.076323    0.012091
     29          1           0       -5.232630   -2.317643    1.494324
     30          1           0       -5.218546   -3.555809    0.227021
     31          6           0       -2.829979    0.435228   -0.632873
     32          6           0       -2.821073    1.945262   -0.392657
     33          6           0       -1.621279    2.639435   -1.037955
     34          1           0       -1.899656    0.002868   -0.239225
     35          1           0       -2.831051    0.242423   -1.714433
     36          1           0       -2.820215    2.134495    0.688458
     37          1           0       -3.751751    2.374451   -0.785402
     38          1           0       -1.620686    2.480048   -2.121098
     39          1           0       -0.683856    2.238729   -0.638864
     40          1           0       -1.634771    3.718214   -0.853794
 ---------------------------------------------------------------------

 SCF Done:  E(RHF) =  -470.732698700     A.U. after   11 cycles
 E2 =    -0.1583795053D+01 EUMP2 =    -0.47231649375329D+03

 The electronic state is 1-A.
 Alpha  occ. eigenvalues --  -11.21678 -11.21619 -11.21591 -11.21571 -11.21444
 Alpha  occ. eigenvalues --  -11.21390 -11.21380 -11.21329 -11.21131 -11.21083
 Alpha  occ. eigenvalues --  -11.21063 -11.20953  -1.08484  -1.08404  -1.03620
 Alpha  occ. eigenvalues --   -1.03468  -0.96068  -0.95914  -0.87068  -0.86946
 Alpha  occ. eigenvalues --   -0.79641  -0.79568  -0.78303  -0.78207  -0.65192
 Alpha  occ. eigenvalues --   -0.65007  -0.61235  -0.60774  -0.59414  -0.59239
 Alpha  occ. eigenvalues --   -0.57636  -0.57539  -0.55551  -0.55005  -0.52714
 Alpha  occ. eigenvalues --   -0.52643  -0.52443  -0.52361  -0.50100  -0.49736
 Alpha  occ. eigenvalues --   -0.47962  -0.47866  -0.46677  -0.46589  -0.45880
 Alpha  occ. eigenvalues --   -0.45778  -0.45736  -0.45595  -0.43828  -0.43758
 Alpha virt. eigenvalues --    0.20281   0.22922   0.23655   0.25143   0.26163
 Alpha virt. eigenvalues --    0.26331   0.26963   0.27622   0.27882   0.29418
 Alpha virt. eigenvalues --    0.30671   0.31169   0.31413   0.31907   0.32442

 Mulliken charges:
               1
     1  C   -0.298438
     2  C   -0.299716
     3  C   -0.475744
     4  H    0.149669
     5  H    0.149887
     6  H    0.151936
     7  H    0.152088
     8  H    0.155302
     9  H    0.155188
    10  H    0.160331
    11  C   -0.298186
    12  C   -0.304137
    13  C   -0.483174
    14  H    0.149781
    15  H    0.150076
    16  H    0.152076
    17  H    0.155025
    18  H    0.156675
    19  H    0.156955
    20  H    0.164074
    21  C   -0.298110
    22  C   -0.299636
    23  C   -0.475704
    24  H    0.149319
    25  H    0.149653
    26  H    0.151970
    27  H    0.151951
    28  H    0.155183
    29  H    0.155149
    30  H    0.160210
    31  C   -0.303110
    32  C   -0.299970
    33  C   -0.484128
    34  H    0.153470
    35  H    0.149707
    36  H    0.151705
    37  H    0.152178
    38  H    0.153976
    39  H    0.166996
    40  H    0.159525
 Sum of Mulliken charges =  -0.00000

 Dipole moment (field-independent basis, Debye):
    X=              0.0428    Y=             -0.0063    Z=              0.0108  Tot=              0.0446
 Quadrupole moment (field-independent basis, Debye-Ang):
   XX=            -85.6052   YY=            -85.2857   ZZ=            -83.9487
   XY=             -0.1417   XZ=              1.2194   YZ=             -0.7249

 Normal termination of Gaussian 16 at Thu May  6 03:39:41 2021.
