 Gaussian 16, Revision A.03,
 Gaussian 16:  EM64L-G16RevA.03 25-Dec-2016

 -------------
 #p 6-31g* mp2
 -------------

 ------------------------------------------------------
 Input file generated by CHIRIPA (05-May-2021 14:53:16)
 ------------------------------------------------------
 Symbolic Z-matrix:
 Charge =  0 Multiplicity = 1

                         Standard orientation:
 ---------------------------------------------------------------------
 Center     Atomic      Atomic             Coordinates (Angstroms)
 Number     Number       Type             X           Y           Z
 ---------------------------------------------------------------------
      1          6           0       -4.690675   -0.045594   -0.034979
      2          6           0       -4.663060   -1.534885    0.310327
      3          6           0       -6.059762   -2.154291    0.368228
      4          1           0       -5.298418    0.485842    0.710117
      5          1           0       -5.193351    0.090056   -1.002610
      6          1           0       -4.159357   -1.667814    1.276365
      7          1           0       -4.055154   -2.062810   -0.435570
      8          1           0       -6.567263   -2.051034   -0.596336
      9          1           0       -6.672058   -1.653794    1.125326
     10          1           0       -6.016632   -3.219334    0.616591
     11          6           0       -3.301908    0.587854   -0.096603
     12          6           0       -3.329523    2.077144   -0.441909
     13          6           0       -1.932821    2.696550   -0.499809
     14          1           0       -2.799232    0.452203    0.871029
     15          1           0       -2.694165    0.056417   -0.841699
     16          1           0       -3.937429    2.605069    0.303988
     17          1           0       -3.833226    2.210073   -1.407946
     18          1           0       -1.320525    2.196053   -1.256907
     19          1           0       -1.425320    2.593293    0.464754
     20          1           0       -1.975951    3.761593   -0.748172
     21          6           0        0.619761    0.098408    0.140665
     22          6           0        1.163682   -1.026367   -0.488263
     23          6           0        2.548702   -1.208553   -0.543710
     24          6           0        3.364020   -0.241812    0.042769
     25          6           0        2.852334    0.889445    0.676587
     26          6           0        1.464335    1.051046    0.720061
     27          1           0       -0.457313    0.231939    0.179087
     28          1           0        0.510194   -1.767826   -0.939081
     29          1           0        2.996467   -2.069951   -1.024251
     30          1           0        3.529250    1.611411    1.117006
     31          1           0        1.044715    1.925543    1.209160
     32          7           0        4.831856   -0.423787   -0.009593
     33          8           0        5.528635    0.442399    0.514677
     34          8           0        5.257774   -1.429160   -0.573913
 ---------------------------------------------------------------------

 SCF Done:  E(RHF) =  -669.534182710     A.U. after   15 cycles
 E2 =    -0.2093320617D+01 EUMP2 =    -0.67162750332738D+03

 The electronic state is 1-A.
 Alpha  occ. eigenvalues --  -20.60646 -20.60641 -15.85700 -11.31022 -11.27604
 Alpha  occ. eigenvalues --  -11.27597 -11.27164 -11.26578 -11.26559 -11.22851
 Alpha  occ. eigenvalues --  -11.22791 -11.22541 -11.22433 -11.22398 -11.21808
 Alpha  occ. eigenvalues --   -1.59724  -1.39278  -1.19190  -1.09631  -1.08577
 Alpha  occ. eigenvalues --   -1.04643  -1.04584  -0.97104  -0.95427  -0.88119
 Alpha  occ. eigenvalues --   -0.85986  -0.82294  -0.80723  -0.79483  -0.77328
 Alpha  occ. eigenvalues --   -0.71918  -0.71048  -0.70275  -0.66239  -0.64837
 Alpha  occ. eigenvalues --   -0.64621  -0.62059  -0.61907  -0.60495  -0.58717
 Alpha  occ. eigenvalues --   -0.56399  -0.55102  -0.53716  -0.53588  -0.52888
 Alpha  occ. eigenvalues --   -0.52678  -0.51029  -0.48957  -0.48675  -0.48672
 Alpha  occ. eigenvalues --   -0.47748  -0.46896  -0.46876  -0.44901  -0.44694
 Alpha  occ. eigenvalues --   -0.37124  -0.36211
 Alpha virt. eigenvalues --    0.05190   0.11422   0.16610   0.20045   0.22199
 Alpha virt. eigenvalues --    0.23790   0.24232   0.25948   0.26335   0.27894
 Alpha virt. eigenvalues --    0.29411   0.29538   0.30626   0.31245   0.31457

 Mulliken charges:
               1
     1  C   -0.296331
     2  C   -0.300841
     3  C   -0.476443
     4  H    0.153527
     5  H    0.153340
     6  H    0.152493
     7  H    0.150107
     8  H    0.156919
     9  H    0.157145
    10  H    0.162848
    11  C   -0.309907
    12  C   -0.297795
    13  C   -0.485031
    14  H    0.146913
    15  H    0.145964
    16  H    0.156535
    17  H    0.157515
    18  H    0.159999
    19  H    0.147086
    20  H    0.168598
    21  C   -0.178107
    22  C   -0.224912
    23  C   -0.170573
    24  C    0.157648
    25  C   -0.170699
    26  C   -0.224914
    27  H    0.246618
    28  H    0.222483
    29  H    0.274807
    30  H    0.274930
    31  H    0.224075
    32  N    0.487993
    33  O   -0.460962
    34  O   -0.461029
 Sum of Mulliken charges =  -0.00000

 Dipole moment (field-independent basis, Debye):
    X=             -5.5747    Y=              0.7206    Z=              0.1336  Tot=              5.6226
 Quadrupole moment (field-independent basis, Debye-Ang):
   XX=           -129.7847   YY=            -91.4878   ZZ=            -93.1378
   XY=              3.3569   XZ=              0.8730   YZ=              2.5614

 Normal termination of Gaussian 16 at Thu May  6 12:14:50 2021.
