 Gaussian 16, Revision A.03,
 Gaussian 16:  EM64L-G16RevA.03 25-Dec-2016

 -------------
 #p 6-31g* mp2
 -------------

 ------------------------------------------------------
 Input file generated by CHIRIPA (05-May-2021 14:51:12)
 ------------------------------------------------------
 Symbolic Z-matrix:
 Charge =  0 Multiplicity = 1

                         Standard orientation:
 ---------------------------------------------------------------------
 Center     Atomic      Atomic             Coordinates (Angstroms)
 Number     Number       Type             X           Y           Z
 ---------------------------------------------------------------------
      1          6           0       -3.070623   -0.093621   -0.361629
      2          6           0       -4.230402   -1.023147   -0.002631
      3          6           0       -4.042604   -2.439842   -0.546232
      4          1           0       -2.962900   -0.057319   -1.454342
      5          1           0       -2.135622   -0.516958    0.030738
      6          1           0       -5.163126   -0.597484   -0.394362
      7          1           0       -4.335499   -1.057090    1.089349
      8          1           0       -3.127562   -2.888010   -0.145679
      9          1           0       -3.959891   -2.425794   -1.637819
     10          1           0       -4.883129   -3.087474   -0.277995
     11          6           0       -3.243834    1.326224    0.174812
     12          6           0       -2.084055    2.255750   -0.184186
     13          6           0       -2.271853    3.672445    0.359415
     14          1           0       -4.178836    1.749561   -0.217555
     15          1           0       -3.351557    1.289922    1.267525
     16          1           0       -1.978959    2.289693   -1.276166
     17          1           0       -1.151331    1.830087    0.207545
     18          1           0       -2.354566    3.658397    1.451002
     19          1           0       -3.186896    4.120613   -0.041138
     20          1           0       -1.431329    4.320077    0.091178
     21          6           0        3.802641   -0.441211   -0.275670
     22          6           0        4.418992    0.883341    0.175610
     23          6           0        5.709641    1.219864   -0.571899
     24          1           0        4.534103   -1.247624   -0.128671
     25          1           0        3.601030   -0.394979   -1.354842
     26          1           0        4.618104    0.835128    1.253871
     27          1           0        3.685909    1.686665    0.027699
     28          1           0        5.523093    1.295185   -1.648062
     29          1           0        6.460584    0.438810   -0.414923
     30          1           0        6.133242    2.170657   -0.233644
     31          6           0        2.511817   -0.791391    0.462488
     32          6           0        1.895466   -2.115945    0.011207
     33          6           0        0.604816   -2.452467    0.758716
     34          1           0        2.713427   -0.837625    1.541658
     35          1           0        1.780355    0.015020    0.315487
     36          1           0        2.628548   -2.919268    0.159118
     37          1           0        1.696355   -2.067730   -1.067054
     38          1           0       -0.146126   -1.671412    0.601740
     39          1           0        0.791365   -2.527788    1.834879
     40          1           0        0.181216   -3.403259    0.420461
 ---------------------------------------------------------------------

 SCF Done:  E(RHF) =  -470.733417928     A.U. after   11 cycles
 E2 =    -0.1583019710D+01 EUMP2 =    -0.47231643763850D+03

 The electronic state is 1-A.
 Alpha  occ. eigenvalues --  -11.21642 -11.21630 -11.21611 -11.21587 -11.21429
 Alpha  occ. eigenvalues --  -11.21412 -11.21367 -11.21350 -11.21113 -11.21094
 Alpha  occ. eigenvalues --  -11.21078 -11.21032  -1.08457  -1.08435  -1.03557
 Alpha  occ. eigenvalues --   -1.03528  -0.96010  -0.95976  -0.87031  -0.86990
 Alpha  occ. eigenvalues --   -0.79639  -0.79578  -0.78305  -0.78218  -0.65161
 Alpha  occ. eigenvalues --   -0.65004  -0.61000  -0.60883  -0.59378  -0.59344
 Alpha  occ. eigenvalues --   -0.57657  -0.57555  -0.55377  -0.55196  -0.52701
 Alpha  occ. eigenvalues --   -0.52674  -0.52495  -0.52348  -0.50048  -0.49849
 Alpha  occ. eigenvalues --   -0.47971  -0.47893  -0.46760  -0.46593  -0.45951
 Alpha  occ. eigenvalues --   -0.45771  -0.45754  -0.45414  -0.43807  -0.43789
 Alpha virt. eigenvalues --    0.20487   0.23094   0.23715   0.24234   0.25453
 Alpha virt. eigenvalues --    0.26815   0.27145   0.27279   0.27838   0.29388
 Alpha virt. eigenvalues --    0.30639   0.31251   0.31722   0.31727   0.31903

 Mulliken charges:
               1
     1  C   -0.308131
     2  C   -0.298832
     3  C   -0.477198
     4  H    0.149428
     5  H    0.158412
     6  H    0.151826
     7  H    0.152020
     8  H    0.157250
     9  H    0.154806
    10  H    0.160073
    11  C   -0.297546
    12  C   -0.300444
    13  C   -0.475659
    14  H    0.149737
    15  H    0.149844
    16  H    0.151896
    17  H    0.151422
    18  H    0.155471
    19  H    0.155381
    20  H    0.160194
    21  C   -0.298325
    22  C   -0.299731
    23  C   -0.475730
    24  H    0.149744
    25  H    0.149792
    26  H    0.151882
    27  H    0.152086
    28  H    0.155258
    29  H    0.155181
    30  H    0.160298
    31  C   -0.299199
    32  C   -0.299069
    33  C   -0.484583
    34  H    0.149497
    35  H    0.149948
    36  H    0.152152
    37  H    0.152567
    38  H    0.162090
    39  H    0.155333
    40  H    0.160856
 Sum of Mulliken charges =  -0.00000

 Dipole moment (field-independent basis, Debye):
    X=              0.0084    Y=             -0.0045    Z=              0.0008  Tot=              0.0096
 Quadrupole moment (field-independent basis, Debye-Ang):
   XX=            -85.1317   YY=            -85.7406   ZZ=            -83.8310
   XY=             -0.8005   XZ=              1.2003   YZ=             -0.7634

 Normal termination of Gaussian 16 at Wed May  5 23:09:17 2021.
