 Gaussian 16, Revision A.03,
 Gaussian 16:  EM64L-G16RevA.03 25-Dec-2016

 -------------
 #p 6-31g* mp2
 -------------

 ------------------------------------------------------
 Input file generated by CHIRIPA (05-May-2021 14:57:25)
 ------------------------------------------------------
 Symbolic Z-matrix:
 Charge =  0 Multiplicity = 1

                         Standard orientation:
 ---------------------------------------------------------------------
 Center     Atomic      Atomic             Coordinates (Angstroms)
 Number     Number       Type             X           Y           Z
 ---------------------------------------------------------------------
      1          6           0       -5.285710    2.083789   -0.344431
      2          6           0       -3.965952    2.218064    0.099113
      3          6           0       -3.161369    1.090059    0.285657
      4          6           0       -3.711306   -0.162601    0.017885
      5          6           0       -5.022556   -0.329006   -0.425087
      6          6           0       -5.808877    0.812923   -0.604656
      7          1           0       -5.903637    2.965458   -0.486633
      8          1           0       -3.557000    3.203783    0.301994
      9          1           0       -2.136430    1.165225    0.628100
     10          1           0       -5.402257   -1.324810   -0.619042
     11          1           0       -6.833480    0.705626   -0.949216
     12          7           0       -2.869196   -1.364140    0.211679
     13          8           0       -3.377299   -2.456599   -0.031224
     14          8           0       -1.716993   -1.190696    0.602808
     15          6           0        2.255461   -1.975588    0.256614
     16          6           0        2.061292   -0.811768    1.007840
     17          6           0        2.938548    0.269445    0.881552
     18          6           0        4.004259    0.152141   -0.009395
     19          6           0        4.224329   -0.994041   -0.771713
     20          6           0        3.334457   -2.062856   -0.629203
     21          1           0        1.569088   -2.810686    0.361019
     22          1           0        1.224191   -0.741186    1.696553
     23          1           0        2.811712    1.182227    1.450904
     24          1           0        5.067875   -1.034814   -1.450082
     25          1           0        3.487713   -2.965459   -1.213896
     26          7           0        4.939648    1.290210   -0.151677
     27          8           0        5.870874    1.161887   -0.943503
     28          8           0        4.723868    2.289004    0.531323
 ---------------------------------------------------------------------

 SCF Done:  E(RHF) =  -868.340252075     A.U. after   16 cycles
 E2 =    -0.2598307075D+01 EUMP2 =    -0.87093855915079D+03

 The electronic state is 1-A.
 Alpha  occ. eigenvalues --  -20.61680 -20.61639 -20.60236 -20.60229 -15.86699
 Alpha  occ. eigenvalues --  -15.85280 -11.31786 -11.30417 -11.28333 -11.28310
 Alpha  occ. eigenvalues --  -11.27998 -11.27268 -11.27258 -11.26973 -11.26937
 Alpha  occ. eigenvalues --  -11.26478 -11.25899 -11.25749  -1.60725  -1.59316
 Alpha  occ. eigenvalues --   -1.40289  -1.38877  -1.19929  -1.18540  -1.09373
 Alpha  occ. eigenvalues --   -1.07937  -1.05291  -1.03912  -0.96258  -0.94824
 Alpha  occ. eigenvalues --   -0.86702  -0.85288  -0.83104  -0.81676  -0.78183
 Alpha  occ. eigenvalues --   -0.76785  -0.72948  -0.72023  -0.71502  -0.71034
 Alpha  occ. eigenvalues --   -0.70639  -0.69562  -0.65589  -0.65288  -0.64169
 Alpha  occ. eigenvalues --   -0.63859  -0.62645  -0.61265  -0.55795  -0.54289
 Alpha  occ. eigenvalues --   -0.53633  -0.53379  -0.52250  -0.51970  -0.49705
 Alpha  occ. eigenvalues --   -0.49655  -0.48273  -0.48233  -0.45752  -0.44335
 Alpha  occ. eigenvalues --   -0.37887  -0.36881  -0.36442  -0.35529
 Alpha virt. eigenvalues --    0.04337   0.05739   0.10778   0.12139   0.15894
 Alpha virt. eigenvalues --    0.17322   0.20862   0.22405   0.26754   0.27392
 Alpha virt. eigenvalues --    0.28510   0.29318   0.30530   0.31624   0.32544

 Mulliken charges:
               1
     1  C   -0.169811
     2  C   -0.218297
     3  C   -0.169731
     4  C    0.157999
     5  C   -0.170544
     6  C   -0.218444
     7  H    0.228149
     8  H    0.226232
     9  H    0.272883
    10  H    0.276114
    11  H    0.225357
    12  N    0.492234
    13  O   -0.457857
    14  O   -0.473141
    15  C   -0.169426
    16  C   -0.217723
    17  C   -0.175270
    18  C    0.157626
    19  C   -0.172766
    20  C   -0.220022
    21  H    0.236644
    22  H    0.234116
    23  H    0.270163
    24  H    0.272409
    25  H    0.221557
    26  N    0.488252
    27  O   -0.462607
    28  O   -0.464097
 Sum of Mulliken charges =  -0.00000

 Dipole moment (field-independent basis, Debye):
    X=             -6.7831    Y=              0.1196    Z=             -0.1749  Tot=              6.7864
 Quadrupole moment (field-independent basis, Debye-Ang):
   XX=           -106.0942   YY=           -104.8919   ZZ=           -103.4750
   XY=            -31.7837   XZ=              4.0849   YZ=              3.1720

 Normal termination of Gaussian 16 at Fri May  7 01:55:24 2021.
