 Gaussian 16, Revision A.03,
 Gaussian 16:  EM64L-G16RevA.03 25-Dec-2016

 -------------
 #p 6-31g* mp2
 -------------

 ------------------------------------------------------
 Input file generated by CHIRIPA (05-May-2021 14:53:15)
 ------------------------------------------------------
 Symbolic Z-matrix:
 Charge =  0 Multiplicity = 1

                         Standard orientation:
 ---------------------------------------------------------------------
 Center     Atomic      Atomic             Coordinates (Angstroms)
 Number     Number       Type             X           Y           Z
 ---------------------------------------------------------------------
      1          6           0       -4.751818   -0.223050   -0.332469
      2          6           0       -5.636485    1.015956   -0.190301
      3          6           0       -6.791315    1.035887   -1.192182
      4          1           0       -4.352677   -0.265394   -1.355131
      5          1           0       -5.368757   -1.122658   -0.200228
      6          1           0       -5.017802    1.912985   -0.321397
      7          1           0       -6.033412    1.055458    0.832198
      8          1           0       -7.432425    0.158548   -1.058566
      9          1           0       -6.411044    1.020947   -2.218716
     10          1           0       -7.410905    1.930169   -1.072895
     11          6           0       -3.592936   -0.257364    0.662289
     12          6           0       -2.708269   -1.496370    0.520121
     13          6           0       -1.553440   -1.516301    1.522002
     14          1           0       -2.975997    0.642244    0.530049
     15          1           0       -3.992077   -0.215020    1.684952
     16          1           0       -2.311342   -1.535872   -0.502378
     17          1           0       -3.326952   -2.393399    0.651217
     18          1           0       -1.933710   -1.501361    2.548536
     19          1           0       -0.912329   -0.638962    1.388386
     20          1           0       -0.933850   -2.410583    1.402716
     21          6           0        3.223451    2.654525    0.399551
     22          6           0        4.406993    2.049131   -0.035475
     23          6           0        4.438689    0.683061   -0.331104
     24          6           0        3.263171   -0.050826   -0.179918
     25          6           0        2.068446    0.523478    0.251472
     26          6           0        2.060006    1.891113    0.541385
     27          1           0        3.207861    3.716330    0.626982
     28          1           0        5.312051    2.639537   -0.146538
     29          1           0        5.341242    0.188913   -0.669681
     30          1           0        1.182171   -0.091109    0.352566
     31          1           0        1.139414    2.358601    0.879043
     32          7           0        3.284417   -1.497852   -0.489862
     33          8           0        2.235332   -2.122421   -0.348546
     34          8           0        4.349752   -1.980061   -0.868243
 ---------------------------------------------------------------------

 SCF Done:  E(RHF) =  -669.535546170     A.U. after   15 cycles
 E2 =    -0.2091117953D+01 EUMP2 =    -0.67162666412274D+03

 The electronic state is 1-A.
 Alpha  occ. eigenvalues --  -20.60760 -20.60754 -15.85810 -11.31162 -11.27741
 Alpha  occ. eigenvalues --  -11.27706 -11.27489 -11.26757 -11.26745 -11.21742
 Alpha  occ. eigenvalues --  -11.21627 -11.21545 -11.21468 -11.21175 -11.21167
 Alpha  occ. eigenvalues --   -1.59833  -1.39386  -1.19340  -1.08740  -1.08545
 Alpha  occ. eigenvalues --   -1.04745  -1.03625  -0.96085  -0.95574  -0.87102
 Alpha  occ. eigenvalues --   -0.86142  -0.82408  -0.79687  -0.78362  -0.77452
 Alpha  occ. eigenvalues --   -0.72031  -0.71155  -0.70460  -0.65194  -0.64995
 Alpha  occ. eigenvalues --   -0.64751  -0.62139  -0.61005  -0.59418  -0.57674
 Alpha  occ. eigenvalues --   -0.55471  -0.55188  -0.53074  -0.52883  -0.52712
 Alpha  occ. eigenvalues --   -0.52479  -0.50037  -0.48788  -0.48783  -0.47998
 Alpha  occ. eigenvalues --   -0.46728  -0.45904  -0.45832  -0.44795  -0.43864
 Alpha  occ. eigenvalues --   -0.37326  -0.36347
 Alpha virt. eigenvalues --    0.05077   0.11303   0.16568   0.20131   0.22851
 Alpha virt. eigenvalues --    0.23869   0.25867   0.26930   0.27392   0.27885
 Alpha virt. eigenvalues --    0.29268   0.30908   0.31506   0.31800   0.31968

 Mulliken charges:
               1
     1  C   -0.298479
     2  C   -0.299365
     3  C   -0.475777
     4  H    0.150644
     5  H    0.151148
     6  H    0.149762
     7  H    0.151873
     8  H    0.156112
     9  H    0.155607
    10  H    0.159979
    11  C   -0.297076
    12  C   -0.301468
    13  C   -0.477426
    14  H    0.142893
    15  H    0.149638
    16  H    0.156200
    17  H    0.154873
    18  H    0.155285
    19  H    0.139218
    20  H    0.176862
    21  C   -0.170599
    22  C   -0.219079
    23  C   -0.170113
    24  C    0.158284
    25  C   -0.180178
    26  C   -0.221665
    27  H    0.225535
    28  H    0.223384
    29  H    0.275526
    30  H    0.289180
    31  H    0.222998
    32  N    0.487312
    33  O   -0.460653
    34  O   -0.460434
 Sum of Mulliken charges =  -0.00000

 Dipole moment (field-independent basis, Debye):
    X=             -0.1274    Y=              4.9480    Z=              1.0778  Tot=              5.0656
 Quadrupole moment (field-independent basis, Debye-Ang):
   XX=            -90.8591   YY=            -95.3272   ZZ=            -95.7376
   XY=             17.9749   XZ=              1.3361   YZ=             -1.3948

 Normal termination of Gaussian 16 at Thu May  6 10:36:25 2021.
