 Gaussian 16, Revision A.03,
 Gaussian 16:  EM64L-G16RevA.03 25-Dec-2016

 -------------
 #p 6-31g* mp2
 -------------

 ------------------------------------------------------
 Input file generated by CHIRIPA (05-May-2021 14:53:14)
 ------------------------------------------------------
 Symbolic Z-matrix:
 Charge =  0 Multiplicity = 1

                         Standard orientation:
 ---------------------------------------------------------------------
 Center     Atomic      Atomic             Coordinates (Angstroms)
 Number     Number       Type             X           Y           Z
 ---------------------------------------------------------------------
      1          6           0        3.835095    0.720669   -0.287529
      2          6           0        3.333289    1.706795    0.767806
      3          6           0        2.001753    2.354233    0.386192
      4          1           0        3.941972    1.243839   -1.247641
      5          1           0        3.076990   -0.060049   -0.439678
      6          1           0        4.092710    2.484650    0.918922
      7          1           0        3.227777    1.181261    1.725563
      8          1           0        1.226568    1.592358    0.254905
      9          1           0        2.096415    2.903153   -0.556319
     10          1           0        1.661537    3.055505    1.154522
     11          6           0        5.165243    0.065226    0.079663
     12          6           0        5.667050   -0.920899   -0.975671
     13          6           0        6.998586   -1.568338   -0.594057
     14          1           0        5.923349    0.845945    0.231813
     15          1           0        5.058367   -0.457944    1.039776
     16          1           0        5.772561   -0.395366   -1.933428
     17          1           0        4.907628   -1.698754   -1.126788
     18          1           0        6.903923   -2.117257    0.348454
     19          1           0        7.773770   -0.806463   -0.462770
     20          1           0        7.338801   -2.269610   -1.362388
     21          6           0       -1.489607   -1.298462    1.211516
     22          6           0       -2.539829   -2.127700    0.804186
     23          6           0       -3.667326   -1.589284    0.176964
     24          6           0       -3.711638   -0.211139   -0.028078
     25          6           0       -2.681473    0.641224    0.366294
     26          6           0       -1.563651    0.080921    0.991658
     27          1           0       -0.617498   -1.725218    1.698035
     28          1           0       -2.485050   -3.199303    0.973635
     29          1           0       -4.494665   -2.208159   -0.148491
     30          1           0       -2.764789    1.705717    0.183726
     31          1           0       -0.749532    0.727340    1.306936
     32          7           0       -4.900147    0.370444   -0.691106
     33          8           0       -4.914948    1.587744   -0.860222
     34          8           0       -5.794396   -0.402023   -1.029116
 ---------------------------------------------------------------------

 SCF Done:  E(RHF) =  -669.535527715     A.U. after   15 cycles
 E2 =    -0.2090864939D+01 EUMP2 =    -0.67162639265365D+03

 The electronic state is 1-A.
 Alpha  occ. eigenvalues --  -20.60747 -20.60741 -15.85800 -11.31171 -11.27750
 Alpha  occ. eigenvalues --  -11.27735 -11.27496 -11.26764 -11.26721 -11.22394
 Alpha  occ. eigenvalues --  -11.22093 -11.22057 -11.22009 -11.21940 -11.21494
 Alpha  occ. eigenvalues --   -1.59822  -1.39375  -1.19348  -1.09073  -1.08743
 Alpha  occ. eigenvalues --   -1.04751  -1.04187  -0.96645  -0.95576  -0.87667
 Alpha  occ. eigenvalues --   -0.86149  -0.82407  -0.80252  -0.78861  -0.77451
 Alpha  occ. eigenvalues --   -0.72019  -0.71145  -0.70460  -0.65726  -0.64999
 Alpha  occ. eigenvalues --   -0.64768  -0.62155  -0.61542  -0.60013  -0.58235
 Alpha  occ. eigenvalues --   -0.55966  -0.55247  -0.53352  -0.53143  -0.53049
 Alpha  occ. eigenvalues --   -0.52781  -0.50564  -0.48781  -0.48773  -0.48552
 Alpha  occ. eigenvalues --   -0.47278  -0.46405  -0.46325  -0.44779  -0.44431
 Alpha  occ. eigenvalues --   -0.37332  -0.36347
 Alpha virt. eigenvalues --    0.05081   0.11220   0.16521   0.20308   0.22519
 Alpha virt. eigenvalues --    0.23724   0.25790   0.26364   0.26978   0.28326
 Alpha virt. eigenvalues --    0.28640   0.30452   0.31045   0.31370   0.31832

 Mulliken charges:
               1
     1  C   -0.298465
     2  C   -0.299795
     3  C   -0.482168
     4  H    0.152731
     5  H    0.147270
     6  H    0.156044
     7  H    0.149000
     8  H    0.149770
     9  H    0.161886
    10  H    0.160740
    11  C   -0.298584
    12  C   -0.299920
    13  C   -0.475970
    14  H    0.151357
    15  H    0.148350
    16  H    0.153642
    17  H    0.151156
    18  H    0.154757
    19  H    0.156278
    20  H    0.161680
    21  C   -0.172018
    22  C   -0.218509
    23  C   -0.170862
    24  C    0.158590
    25  C   -0.171963
    26  C   -0.223431
    27  H    0.225215
    28  H    0.223270
    29  H    0.275603
    30  H    0.276194
    31  H    0.230882
    32  N    0.488092
    33  O   -0.460256
    34  O   -0.460567
 Sum of Mulliken charges =  -0.00000

 Dipole moment (field-independent basis, Debye):
    X=              4.3499    Y=             -2.0105    Z=              2.2850  Tot=              5.3090
 Quadrupole moment (field-independent basis, Debye-Ang):
   XX=           -125.6255   YY=            -89.3504   ZZ=            -95.5252
   XY=              9.9645   XZ=             -9.1821   YZ=             -0.4168

 Normal termination of Gaussian 16 at Thu May  6 18:45:10 2021.
