 Gaussian 16, Revision A.03,
 Gaussian 16:  EM64L-G16RevA.03 25-Dec-2016

 -------------
 #p 6-31g* mp2
 -------------

 ------------------------------------------------------
 Input file generated by CHIRIPA (05-May-2021 14:53:16)
 ------------------------------------------------------
 Symbolic Z-matrix:
 Charge =  0 Multiplicity = 1

                         Standard orientation:
 ---------------------------------------------------------------------
 Center     Atomic      Atomic             Coordinates (Angstroms)
 Number     Number       Type             X           Y           Z
 ---------------------------------------------------------------------
      1          6           0       -4.190224   -0.595169   -0.089015
      2          6           0       -3.621344   -1.963099    0.289309
      3          6           0       -4.493090   -3.121050   -0.197520
      4          1           0       -5.200845   -0.496695    0.330381
      5          1           0       -4.298280   -0.540053   -1.181114
      6          1           0       -3.513097   -2.015107    1.380269
      7          1           0       -2.611885   -2.058252   -0.130875
      8          1           0       -4.591510   -3.097322   -1.287635
      9          1           0       -5.497843   -3.053931    0.232095
     10          1           0       -4.067862   -4.089523    0.083729
     11          6           0       -3.329882    0.572469    0.390736
     12          6           0       -3.898762    1.940399    0.012412
     13          6           0       -3.027016    3.098351    0.499240
     14          1           0       -3.221827    0.517353    1.482835
     15          1           0       -2.319261    0.473995   -0.028660
     16          1           0       -4.908221    2.035552    0.432596
     17          1           0       -4.007009    1.992407   -1.078548
     18          1           0       -2.022263    3.031232    0.069626
     19          1           0       -2.928596    3.074622    1.589356
     20          1           0       -3.452244    4.066824    0.217992
     21          6           0        0.677530    0.972383   -0.692237
     22          6           0        0.831721   -0.409772   -0.542592
     23          6           0        2.079275   -0.954689   -0.224435
     24          6           0        3.156031   -0.084282   -0.062331
     25          6           0        3.034293    1.297082   -0.204823
     26          6           0        1.777369    1.819904   -0.523173
     27          1           0       -0.295239    1.387106   -0.939464
     28          1           0       -0.020667   -1.070373   -0.673303
     29          1           0        2.226780   -2.020923   -0.102757
     30          1           0        3.902552    1.930263   -0.068344
     31          1           0        1.660571    2.893701   -0.638778
     32          7           0        4.481720   -0.649466    0.274590
     33          8           0        5.414677    0.138756    0.412187
     34          8           0        4.562736   -1.869978    0.394692
 ---------------------------------------------------------------------

 SCF Done:  E(RHF) =  -669.534869610     A.U. after   15 cycles
 E2 =    -0.2092624617D+01 EUMP2 =    -0.67162749422690D+03

 The electronic state is 1-A.
 Alpha  occ. eigenvalues --  -20.60734 -20.60729 -15.85788 -11.31152 -11.27720
 Alpha  occ. eigenvalues --  -11.27717 -11.27438 -11.26734 -11.26724 -11.22653
 Alpha  occ. eigenvalues --  -11.22574 -11.22521 -11.22337 -11.22186 -11.21812
 Alpha  occ. eigenvalues --   -1.59810  -1.39363  -1.19324  -1.09472  -1.08719
 Alpha  occ. eigenvalues --   -1.04726  -1.04519  -0.96957  -0.95559  -0.87969
 Alpha  occ. eigenvalues --   -0.86128  -0.82395  -0.80579  -0.79292  -0.77433
 Alpha  occ. eigenvalues --   -0.72006  -0.71133  -0.70483  -0.66139  -0.64976
 Alpha  occ. eigenvalues --   -0.64705  -0.62090  -0.61917  -0.60325  -0.58562
 Alpha  occ. eigenvalues --   -0.56265  -0.55253  -0.53623  -0.53378  -0.53054
 Alpha  occ. eigenvalues --   -0.52823  -0.50914  -0.48889  -0.48761  -0.48756
 Alpha  occ. eigenvalues --   -0.47614  -0.46812  -0.46717  -0.44774  -0.44769
 Alpha  occ. eigenvalues --   -0.37287  -0.36327
 Alpha virt. eigenvalues --    0.05081   0.11272   0.16500   0.18330   0.21581
 Alpha virt. eigenvalues --    0.22963   0.24864   0.25893   0.26462   0.27765
 Alpha virt. eigenvalues --    0.29285   0.30453   0.30904   0.31196   0.31997

 Mulliken charges:
               1
     1  C   -0.298978
     2  C   -0.301460
     3  C   -0.476347
     4  H    0.154199
     5  H    0.149967
     6  H    0.156028
     7  H    0.144736
     8  H    0.156126
     9  H    0.158190
    10  H    0.162998
    11  C   -0.302148
    12  C   -0.301662
    13  C   -0.476202
    14  H    0.155229
    15  H    0.140456
    16  H    0.157322
    17  H    0.151955
    18  H    0.144763
    19  H    0.160559
    20  H    0.164817
    21  C   -0.175045
    22  C   -0.222956
    23  C   -0.171810
    24  C    0.158495
    25  C   -0.170916
    26  C   -0.219725
    27  H    0.231623
    28  H    0.228140
    29  H    0.275766
    30  H    0.275516
    31  H    0.223306
    32  N    0.488052
    33  O   -0.460517
    34  O   -0.460478
 Sum of Mulliken charges =  -0.00000

 Dipole moment (field-independent basis, Debye):
    X=             -4.9436    Y=              1.9812    Z=             -1.0854  Tot=              5.4353
 Quadrupole moment (field-independent basis, Debye-Ang):
   XX=           -122.7766   YY=            -91.4513   ZZ=            -94.7157
   XY=              8.3213   XZ=             -4.3933   YZ=             -0.1549

 Normal termination of Gaussian 16 at Wed May  5 17:11:27 2021.
