 Gaussian 16, Revision A.03,
 Gaussian 16:  EM64L-G16RevA.03 25-Dec-2016

 -------------
 #p 6-31g* mp2
 -------------

 ------------------------------------------------------
 Input file generated by CHIRIPA (05-May-2021 14:53:18)
 ------------------------------------------------------
 Symbolic Z-matrix:
 Charge =  0 Multiplicity = 1

                         Standard orientation:
 ---------------------------------------------------------------------
 Center     Atomic      Atomic             Coordinates (Angstroms)
 Number     Number       Type             X           Y           Z
 ---------------------------------------------------------------------
      1          6           0       -2.378913    0.639250   -0.788435
      2          6           0       -2.416873    2.151680   -0.566849
      3          6           0       -1.274329    2.881565   -1.273711
      4          1           0       -1.416089    0.247095   -0.433289
      5          1           0       -2.422032    0.432478   -1.866758
      6          1           0       -2.375091    2.355492    0.510802
      7          1           0       -3.379796    2.540252   -0.922388
      8          1           0       -1.315891    2.707602   -2.353808
      9          1           0       -0.305477    2.521793   -0.912476
     10          1           0       -1.320709    3.961481   -1.101980
     11          6           0       -3.514787   -0.104346   -0.088017
     12          6           0       -3.476827   -1.616775   -0.309603
     13          6           0       -4.619371   -2.346661    0.397259
     14          1           0       -3.471668    0.102427    0.990306
     15          1           0       -4.477611    0.287809   -0.443162
     16          1           0       -2.513904   -2.005347    0.045936
     17          1           0       -3.518609   -1.820588   -1.387253
     18          1           0       -5.588223   -1.986888    0.036024
     19          1           0       -4.577809   -2.172697    1.477357
     20          1           0       -4.572991   -3.426576    0.225529
     21          6           0        0.691667    0.974377    1.882418
     22          6           0        0.470332   -0.361112    1.530279
     23          6           0        1.356098   -1.026755    0.677703
     24          6           0        2.457930   -0.323346    0.193477
     25          6           0        2.705673    1.007584    0.525949
     26          6           0        1.806666    1.653266    1.380015
     27          1           0       -0.001561    1.483711    2.545298
     28          1           0       -0.394751   -0.890844    1.918942
     29          1           0        1.208768   -2.060337    0.388878
     30          1           0        3.576871    1.509320    0.122596
     31          1           0        1.981075    2.690456    1.651791
     32          7           0        3.402660   -1.017466   -0.709896
     33          8           0        4.365912   -0.375536   -1.123062
     34          8           0        3.161997   -2.190305   -0.987687
 ---------------------------------------------------------------------

 SCF Done:  E(RHF) =  -669.534879676     A.U. after   15 cycles
 E2 =    -0.2094575922D+01 EUMP2 =    -0.67162945559865D+03

 The electronic state is 1-A.
 Alpha  occ. eigenvalues --  -20.60862 -20.60857 -15.85918 -11.31346 -11.27921
 Alpha  occ. eigenvalues --  -11.27913 -11.27666 -11.26954 -11.26932 -11.22194
 Alpha  occ. eigenvalues --  -11.22054 -11.21936 -11.21631 -11.21589 -11.21354
 Alpha  occ. eigenvalues --   -1.59936  -1.39488  -1.19539  -1.08978  -1.08846
 Alpha  occ. eigenvalues --   -1.04951  -1.03997  -0.96421  -0.95733  -0.87438
 Alpha  occ. eigenvalues --   -0.86332  -0.82566  -0.80070  -0.78715  -0.77598
 Alpha  occ. eigenvalues --   -0.72135  -0.71259  -0.70620  -0.65660  -0.65182
 Alpha  occ. eigenvalues --   -0.64869  -0.62278  -0.61430  -0.59792  -0.58035
 Alpha  occ. eigenvalues --   -0.55731  -0.55421  -0.53319  -0.53122  -0.53013
 Alpha  occ. eigenvalues --   -0.52840  -0.50382  -0.48900  -0.48886  -0.48366
 Alpha  occ. eigenvalues --   -0.47122  -0.46238  -0.46157  -0.44879  -0.44237
 Alpha  occ. eigenvalues --   -0.37460  -0.36464
 Alpha virt. eigenvalues --    0.04906   0.11031   0.16282   0.19372   0.23056
 Alpha virt. eigenvalues --    0.23413   0.25756   0.25958   0.27225   0.28575
 Alpha virt. eigenvalues --    0.29113   0.30006   0.31260   0.31489   0.32183

 Mulliken charges:
               1
     1  C   -0.308148
     2  C   -0.296785
     3  C   -0.481228
     4  H    0.159279
     5  H    0.152109
     6  H    0.141966
     7  H    0.153291
     8  H    0.158026
     9  H    0.159469
    10  H    0.157655
    11  C   -0.298021
    12  C   -0.299176
    13  C   -0.475703
    14  H    0.141298
    15  H    0.152368
    16  H    0.143809
    17  H    0.156965
    18  H    0.157690
    19  H    0.152284
    20  H    0.162522
    21  C   -0.168703
    22  C   -0.222146
    23  C   -0.170483
    24  C    0.159631
    25  C   -0.171154
    26  C   -0.218462
    27  H    0.227244
    28  H    0.227210
    29  H    0.276711
    30  H    0.276724
    31  H    0.225235
    32  N    0.488118
    33  O   -0.459827
    34  O   -0.459766
 Sum of Mulliken charges =  -0.00000

 Dipole moment (field-independent basis, Debye):
    X=             -3.2131    Y=              2.3927    Z=              3.1387  Tot=              5.0892
 Quadrupole moment (field-independent basis, Debye-Ang):
   XX=           -110.2276   YY=            -93.6902   ZZ=            -93.6215
   XY=              9.5002   XZ=              8.1970   YZ=             -0.5109

 Normal termination of Gaussian 16 at Thu May  6 17:19:27 2021.
