 Gaussian 16, Revision A.03,
 Gaussian 16:  EM64L-G16RevA.03 25-Dec-2016

 -------------
 #p 6-31g* mp2
 -------------

 ------------------------------------------------------
 Input file generated by CHIRIPA (05-May-2021 14:53:15)
 ------------------------------------------------------
 Symbolic Z-matrix:
 Charge =  0 Multiplicity = 1

                         Standard orientation:
 ---------------------------------------------------------------------
 Center     Atomic      Atomic             Coordinates (Angstroms)
 Number     Number       Type             X           Y           Z
 ---------------------------------------------------------------------
      1          6           0        4.598801    0.091269   -0.093240
      2          6           0        4.638787   -1.248367    0.642804
      3          6           0        5.923486   -2.032567    0.373781
      4          1           0        4.701934   -0.087267   -1.172329
      5          1           0        5.467027    0.693461    0.208330
      6          1           0        3.769997   -1.847301    0.340980
      7          1           0        4.535354   -1.066635    1.720251
      8          1           0        6.799379   -1.457841    0.691746
      9          1           0        6.029673   -2.242943   -0.695362
     10          1           0        5.931025   -2.986817    0.909702
     11          6           0        3.320637    0.886862    0.165709
     12          6           0        3.280651    2.226498   -0.570336
     13          6           0        1.995952    3.010698   -0.301313
     14          1           0        2.452411    0.284670   -0.135861
     15          1           0        3.217504    1.065399    1.244798
     16          1           0        3.384084    2.044766   -1.647783
     17          1           0        4.149441    2.825432   -0.268512
     18          1           0        1.889765    3.221074    0.767830
     19          1           0        1.120059    2.435973   -0.619277
     20          1           0        1.988413    3.964948   -0.837233
     21          6           0       -1.031133   -1.742749   -0.539213
     22          6           0       -2.291258   -2.349732   -0.552565
     23          6           0       -3.440818   -1.605563   -0.271018
     24          6           0       -3.292915   -0.250538    0.021085
     25          6           0       -2.051314    0.382918    0.042251
     26          6           0       -0.915387   -0.380762   -0.242371
     27          1           0       -0.143421   -2.328417   -0.759121
     28          1           0       -2.384161   -3.407289   -0.782760
     29          1           0       -4.428622   -2.050141   -0.274416
     30          1           0       -1.990456    1.439049    0.275276
     31          1           0        0.061958    0.093283   -0.231273
     32          7           0       -4.502688    0.547609    0.320773
     33          8           0       -4.345576    1.739777    0.575113
     34          8           0       -5.585110   -0.034085    0.295656
 ---------------------------------------------------------------------

 SCF Done:  E(RHF) =  -669.535290210     A.U. after   15 cycles
 E2 =    -0.2091729340D+01 EUMP2 =    -0.67162701954987D+03

 The electronic state is 1-A.
 Alpha  occ. eigenvalues --  -20.60713 -20.60708 -15.85766 -11.31127 -11.27701
 Alpha  occ. eigenvalues --  -11.27682 -11.27442 -11.26720 -11.26665 -11.22494
 Alpha  occ. eigenvalues --  -11.22433 -11.22420 -11.22223 -11.21993 -11.21741
 Alpha  occ. eigenvalues --   -1.59789  -1.39342  -1.19299  -1.09340  -1.08697
 Alpha  occ. eigenvalues --   -1.04703  -1.04374  -0.96829  -0.95532  -0.87841
 Alpha  occ. eigenvalues --   -0.86106  -0.82368  -0.80438  -0.79176  -0.77408
 Alpha  occ. eigenvalues --   -0.71985  -0.71112  -0.70414  -0.66021  -0.64952
 Alpha  occ. eigenvalues --   -0.64696  -0.62134  -0.61690  -0.60183  -0.58439
 Alpha  occ. eigenvalues --   -0.56131  -0.55211  -0.53483  -0.53262  -0.53030
 Alpha  occ. eigenvalues --   -0.52819  -0.50780  -0.48796  -0.48740  -0.48697
 Alpha  occ. eigenvalues --   -0.47462  -0.46678  -0.46609  -0.44749  -0.44643
 Alpha  occ. eigenvalues --   -0.37284  -0.36302
 Alpha virt. eigenvalues --    0.05118   0.11342   0.16589   0.18854   0.22504
 Alpha virt. eigenvalues --    0.23307   0.25068   0.25848   0.26361   0.28385
 Alpha virt. eigenvalues --    0.29690   0.29861   0.31083   0.31229   0.31401

 Mulliken charges:
               1
     1  C   -0.298411
     2  C   -0.298903
     3  C   -0.476266
     4  H    0.150742
     5  H    0.153644
     6  H    0.145804
     7  H    0.154407
     8  H    0.157657
     9  H    0.155710
    10  H    0.161809
    11  C   -0.302728
    12  C   -0.300783
    13  C   -0.478887
    14  H    0.140145
    15  H    0.153578
    16  H    0.153895
    17  H    0.156797
    18  H    0.158749
    19  H    0.147538
    20  H    0.167205
    21  C   -0.173524
    22  C   -0.218493
    23  C   -0.171341
    24  C    0.159160
    25  C   -0.174043
    26  C   -0.229637
    27  H    0.224857
    28  H    0.223128
    29  H    0.275399
    30  H    0.276530
    31  H    0.239364
    32  N    0.487946
    33  O   -0.460265
    34  O   -0.460784
 Sum of Mulliken charges =  -0.00000

 Dipole moment (field-independent basis, Debye):
    X=              4.5328    Y=             -2.7038    Z=             -1.0247  Tot=              5.3765
 Quadrupole moment (field-independent basis, Debye-Ang):
   XX=           -121.1113   YY=            -90.0240   ZZ=            -94.9202
   XY=             12.0183   XZ=              4.5353   YZ=              1.1116

 Normal termination of Gaussian 16 at Thu May  6 08:59:33 2021.
