 Gaussian 16, Revision A.03,
 Gaussian 16:  EM64L-G16RevA.03 25-Dec-2016

 -------------
 #p 6-31g* mp2
 -------------

 ------------------------------------------------------
 Input file generated by CHIRIPA (05-May-2021 14:57:23)
 ------------------------------------------------------
 Symbolic Z-matrix:
 Charge =  0 Multiplicity = 1

                         Standard orientation:
 ---------------------------------------------------------------------
 Center     Atomic      Atomic             Coordinates (Angstroms)
 Number     Number       Type             X           Y           Z
 ---------------------------------------------------------------------
      1          6           0       -1.220202   -2.444690    0.259960
      2          6           0       -1.683177   -1.774299    1.396953
      3          6           0       -2.488835   -0.638509    1.272686
      4          6           0       -2.813632   -0.198674   -0.009633
      5          6           0       -2.367916   -0.844914   -1.161588
      6          6           0       -1.563445   -1.978679   -1.013436
      7          1           0       -0.594809   -3.326213    0.365771
      8          1           0       -1.418199   -2.133947    2.387148
      9          1           0       -2.860981   -0.100379    2.136018
     10          1           0       -2.648806   -0.462558   -2.135407
     11          1           0       -1.205332   -2.497308   -1.898210
     12          7           0       -3.665918    1.002665   -0.153832
     13          8           0       -3.937926    1.370032   -1.294748
     14          8           0       -4.045794    1.554160    0.876792
     15          6           0        1.947518    2.809066    0.126224
     16          6           0        0.989161    1.790970    0.086834
     17          6           0        1.379740    0.450839    0.009061
     18          6           0        2.743318    0.163447   -0.027703
     19          6           0        3.722082    1.155360    0.009968
     20          6           0        3.308521    2.488577    0.087733
     21          1           0        1.635181    3.847426    0.186637
     22          1           0       -0.068512    2.036913    0.116580
     23          1           0        0.658927   -0.357139   -0.022824
     24          1           0        4.769038    0.879085   -0.021232
     25          1           0        4.055007    3.277169    0.118178
     26          7           0        3.168971   -1.251629   -0.110033
     27          8           0        4.376520   -1.478559   -0.141114
     28          8           0        2.286990   -2.107041   -0.141924
 ---------------------------------------------------------------------

 SCF Done:  E(RHF) =  -868.339936163     A.U. after   16 cycles
 E2 =    -0.2602625970D+01 EUMP2 =    -0.87094256213268D+03

 The electronic state is 1-A.
 Alpha  occ. eigenvalues --  -20.61314 -20.61306 -20.61282 -20.61209 -15.86367
 Alpha  occ. eigenvalues --  -15.86291 -11.31647 -11.31296 -11.28202 -11.28171
 Alpha  occ. eigenvalues --  -11.27875 -11.27691 -11.27625 -11.27523 -11.27034
 Alpha  occ. eigenvalues --  -11.26978 -11.26810 -11.26723  -1.60405  -1.60321
 Alpha  occ. eigenvalues --   -1.39953  -1.39888  -1.19814  -1.19451  -1.09147
 Alpha  occ. eigenvalues --   -1.08915  -1.05143  -1.04800  -0.95994  -0.95794
 Alpha  occ. eigenvalues --   -0.86489  -0.86217  -0.82814  -0.82646  -0.77921
 Alpha  occ. eigenvalues --   -0.77750  -0.72564  -0.72546  -0.71762  -0.71632
 Alpha  occ. eigenvalues --   -0.70699  -0.70528  -0.65362  -0.65112  -0.65027
 Alpha  occ. eigenvalues --   -0.64812  -0.62451  -0.62217  -0.55428  -0.55359
 Alpha  occ. eigenvalues --   -0.53623  -0.53169  -0.53140  -0.52628  -0.49333
 Alpha  occ. eigenvalues --   -0.49318  -0.49287  -0.49233  -0.45377  -0.45370
 Alpha  occ. eigenvalues --   -0.37661  -0.37435  -0.36957  -0.36250
 Alpha virt. eigenvalues --    0.04552   0.04778   0.10701   0.11420   0.16099
 Alpha virt. eigenvalues --    0.16351   0.21315   0.21555   0.26970   0.27237
 Alpha virt. eigenvalues --    0.28267   0.28604   0.30929   0.31289   0.32313

 Mulliken charges:
               1
     1  C   -0.170677
     2  C   -0.222375
     3  C   -0.175520
     4  C    0.151203
     5  C   -0.174875
     6  C   -0.225225
     7  H    0.244896
     8  H    0.228659
     9  H    0.276208
    10  H    0.277026
    11  H    0.232207
    12  N    0.486541
    13  O   -0.459575
    14  O   -0.460869
    15  C   -0.169509
    16  C   -0.225891
    17  C   -0.177408
    18  C    0.151904
    19  C   -0.169897
    20  C   -0.220007
    21  H    0.228941
    22  H    0.227123
    23  H    0.291453
    24  H    0.274669
    25  H    0.223878
    26  N    0.489425
    27  O   -0.457872
    28  O   -0.474432
 Sum of Mulliken charges =  -0.00000

 Dipole moment (field-independent basis, Debye):
    X=              1.4646    Y=              0.5282    Z=              0.7979  Tot=              1.7495
 Quadrupole moment (field-independent basis, Debye-Ang):
   XX=           -126.5868   YY=           -101.1040   ZZ=           -100.6016
   XY=             27.0236   XZ=             -0.8599   YZ=              0.3070

 Normal termination of Gaussian 16 at Thu May  6 05:00:49 2021.
