 Gaussian 16, Revision A.03,
 Gaussian 16:  EM64L-G16RevA.03 25-Dec-2016

 -------------
 #p 6-31g* mp2
 -------------

 ------------------------------------------------------
 Input file generated by CHIRIPA (05-May-2021 14:55:25)
 ------------------------------------------------------
 Symbolic Z-matrix:
 Charge =  0 Multiplicity = 1

                         Standard orientation:
 ---------------------------------------------------------------------
 Center     Atomic      Atomic             Coordinates (Angstroms)
 Number     Number       Type             X           Y           Z
 ---------------------------------------------------------------------
      1          6           0       -4.124298   -1.620297    0.184538
      2          6           0       -2.825596   -1.696697   -0.329328
      3          6           0       -2.050086   -0.542443   -0.473649
      4          6           0       -2.607309    0.677166   -0.092405
      5          6           0       -3.898081    0.785823    0.422756
      6          6           0       -4.655459   -0.381464    0.558281
      7          1           0       -4.719690   -2.522011    0.293233
      8          1           0       -2.410499   -2.657434   -0.620403
      9          1           0       -1.041890   -0.572880   -0.868658
     10          1           0       -4.284569    1.757830    0.704265
     11          1           0       -5.663756   -0.319121    0.957650
     12          7           0       -1.795909    1.906022   -0.240535
     13          8           0       -2.309872    2.968429    0.102642
     14          8           0       -0.661334    1.783525   -0.697012
     15          6           0        3.934304   -0.099307    0.466307
     16          6           0        5.064754    0.493293   -0.375653
     17          6           0        5.907681    1.508348    0.396960
     18          1           0        3.290587    0.713848    0.828730
     19          1           0        4.362790   -0.579379    1.356995
     20          1           0        4.634369    0.970900   -1.265190
     21          1           0        5.705745   -0.321384   -0.736273
     22          1           0        6.364003    1.040952    1.275546
     23          1           0        5.286540    2.340579    0.743622
     24          1           0        6.709913    1.919374   -0.223798
     25          6           0        3.082751   -1.115761   -0.292249
     26          6           0        1.952302   -1.708361    0.549712
     27          6           0        1.109375   -2.723416   -0.222901
     28          1           0        2.654264   -0.635689   -1.182936
     29          1           0        3.726468   -1.928916   -0.654671
     30          1           0        1.311309   -0.893684    0.910331
     31          1           0        2.382686   -2.185969    1.439249
     32          1           0        1.730515   -3.555647   -0.569564
     33          1           0        0.653052   -2.256020   -1.101487
     34          1           0        0.307141   -3.134442    0.397856
 ---------------------------------------------------------------------

 SCF Done:  E(RHF) =  -669.535684401     A.U. after   15 cycles
 E2 =    -0.2092042634D+01 EUMP2 =    -0.67162772703430D+03

 The electronic state is 1-A.
 Alpha  occ. eigenvalues --  -20.60824 -20.60815 -15.85867 -11.31173 -11.27749
 Alpha  occ. eigenvalues --  -11.27700 -11.27481 -11.26759 -11.26717 -11.21741
 Alpha  occ. eigenvalues --  -11.21677 -11.21236 -11.21220 -11.21022 -11.20673
 Alpha  occ. eigenvalues --   -1.59892  -1.39448  -1.19347  -1.08754  -1.08272
 Alpha  occ. eigenvalues --   -1.04743  -1.03479  -0.95964  -0.95592  -0.86986
 Alpha  occ. eigenvalues --   -0.86143  -0.82428  -0.79549  -0.78022  -0.77484
 Alpha  occ. eigenvalues --   -0.72089  -0.71212  -0.70474  -0.65014  -0.64954
 Alpha  occ. eigenvalues --   -0.64689  -0.62186  -0.60786  -0.59366  -0.57534
 Alpha  occ. eigenvalues --   -0.55403  -0.55090  -0.53083  -0.52866  -0.52650
 Alpha  occ. eigenvalues --   -0.52354  -0.49898  -0.48840  -0.48839  -0.47857
 Alpha  occ. eigenvalues --   -0.46552  -0.45587  -0.45448  -0.44857  -0.43690
 Alpha  occ. eigenvalues --   -0.37332  -0.36330
 Alpha virt. eigenvalues --    0.05017   0.11264   0.16498   0.19979   0.23054
 Alpha virt. eigenvalues --    0.24151   0.26360   0.26575   0.27508   0.28199
 Alpha virt. eigenvalues --    0.29373   0.30063   0.31493   0.31861   0.32445

 Mulliken charges:
               1
     1  C   -0.170806
     2  C   -0.221959
     3  C   -0.176082
     4  C    0.158902
     5  C   -0.170558
     6  C   -0.218783
     7  H    0.225598
     8  H    0.225989
     9  H    0.282982
    10  H    0.275399
    11  H    0.223370
    12  N    0.488144
    13  O   -0.459904
    14  O   -0.462197
    15  C   -0.300050
    16  C   -0.300123
    17  C   -0.476206
    18  H    0.158358
    19  H    0.146947
    20  H    0.155687
    21  H    0.149278
    22  H    0.153296
    23  H    0.158642
    24  H    0.159542
    25  C   -0.298564
    26  C   -0.302816
    27  C   -0.481782
    28  H    0.154807
    29  H    0.147364
    30  H    0.158979
    31  H    0.153090
    32  H    0.159771
    33  H    0.146995
    34  H    0.156689
 Sum of Mulliken charges =  -0.00000

 Dipole moment (field-independent basis, Debye):
    X=             -2.7952    Y=             -4.2311    Z=              0.5509  Tot=              5.1009
 Quadrupole moment (field-independent basis, Debye-Ang):
   XX=            -77.2954   YY=            -99.7738   ZZ=            -95.0928
   XY=              6.3760   XZ=             -2.8767   YZ=              1.3278

 Normal termination of Gaussian 16 at Thu May  6 19:23:02 2021.
