 Gaussian 16, Revision A.03,
 Gaussian 16:  EM64L-G16RevA.03 25-Dec-2016

 -------------
 #p 6-31g* mp2
 -------------

 ------------------------------------------------------
 Input file generated by CHIRIPA (05-May-2021 14:55:25)
 ------------------------------------------------------
 Symbolic Z-matrix:
 Charge =  0 Multiplicity = 1

                         Standard orientation:
 ---------------------------------------------------------------------
 Center     Atomic      Atomic             Coordinates (Angstroms)
 Number     Number       Type             X           Y           Z
 ---------------------------------------------------------------------
      1          6           0       -1.995080   -2.417818    0.713688
      2          6           0       -1.085835   -1.423423    0.338225
      3          6           0       -1.537753   -0.161524   -0.059180
      4          6           0       -2.911924    0.072656   -0.069399
      5          6           0       -3.842749   -0.897447    0.299048
      6          6           0       -3.368214   -2.152125    0.692938
      7          1           0       -1.635235   -3.395286    1.021036
      8          1           0       -0.018878   -1.626939    0.353373
      9          1           0       -0.855836    0.626513   -0.354824
     10          1           0       -4.900416   -0.664812    0.273760
     11          1           0       -4.076651   -2.922476    0.984006
     12          7           0       -3.402321    1.404750   -0.488253
     13          8           0       -4.617972    1.585938   -0.488654
     14          8           0       -2.561757    2.242432   -0.808218
     15          6           0        3.316444    0.746550    0.421183
     16          6           0        3.839374    2.136840    0.058383
     17          6           0        3.215127    3.243678    0.908690
     18          1           0        2.224363    0.730110    0.302722
     19          1           0        3.518563    0.552145    1.483610
     20          1           0        3.637566    2.328010   -1.003381
     21          1           0        4.930358    2.149916    0.177539
     22          1           0        3.427869    3.080390    1.970140
     23          1           0        2.127731    3.259496    0.782512
     24          1           0        3.603068    4.229145    0.632615
     25          6           0        3.931173   -0.370515   -0.420244
     26          6           0        3.408243   -1.760805   -0.057445
     27          6           0        4.032490   -2.867644   -0.907751
     28          1           0        3.729053   -0.176111   -1.482671
     29          1           0        5.023254   -0.354075   -0.301784
     30          1           0        2.317259   -1.773882   -0.176600
     31          1           0        3.610051   -1.951975    1.004319
     32          1           0        5.119886   -2.883461   -0.781573
     33          1           0        3.819748   -2.704355   -1.969201
     34          1           0        3.644549   -3.853110   -0.631677
 ---------------------------------------------------------------------

 SCF Done:  E(RHF) =  -669.535564141     A.U. after   15 cycles
 E2 =    -0.2091517144D+01 EUMP2 =    -0.67162708128565D+03

 The electronic state is 1-A.
 Alpha  occ. eigenvalues --  -20.60754 -20.60749 -15.85807 -11.31165 -11.27732
 Alpha  occ. eigenvalues --  -11.27729 -11.27466 -11.26746 -11.26709 -11.22542
 Alpha  occ. eigenvalues --  -11.22058 -11.21998 -11.21916 -11.21805 -11.21212
 Alpha  occ. eigenvalues --   -1.59829  -1.39383  -1.19333  -1.09057  -1.08729
 Alpha  occ. eigenvalues --   -1.04736  -1.04085  -0.96501  -0.95567  -0.87519
 Alpha  occ. eigenvalues --   -0.86136  -0.82403  -0.80188  -0.78863  -0.77447
 Alpha  occ. eigenvalues --   -0.72026  -0.71152  -0.70444  -0.65718  -0.64985
 Alpha  occ. eigenvalues --   -0.64740  -0.62103  -0.61461  -0.59902  -0.58119
 Alpha  occ. eigenvalues --   -0.55773  -0.55239  -0.53203  -0.53065  -0.52955
 Alpha  occ. eigenvalues --   -0.52805  -0.50441  -0.48794  -0.48782  -0.48463
 Alpha  occ. eigenvalues --   -0.47219  -0.46392  -0.46291  -0.44791  -0.44350
 Alpha  occ. eigenvalues --   -0.37313  -0.36337
 Alpha virt. eigenvalues --    0.05083   0.11310   0.16572   0.18630   0.22804
 Alpha virt. eigenvalues --    0.23358   0.24440   0.26453   0.27353   0.27558
 Alpha virt. eigenvalues --    0.29251   0.30666   0.31227   0.31368   0.32007

 Mulliken charges:
               1
     1  C   -0.173166
     2  C   -0.227495
     3  C   -0.175814
     4  C    0.159196
     5  C   -0.171034
     6  C   -0.218497
     7  H    0.226270
     8  H    0.237282
     9  H    0.276057
    10  H    0.275483
    11  H    0.223312
    12  N    0.488150
    13  O   -0.460489
    14  O   -0.460777
    15  C   -0.298138
    16  C   -0.300564
    17  C   -0.476866
    18  H    0.141635
    19  H    0.151049
    20  H    0.154481
    21  H    0.153140
    22  H    0.154775
    23  H    0.158950
    24  H    0.163161
    25  C   -0.298543
    26  C   -0.306350
    27  C   -0.475233
    28  H    0.152125
    29  H    0.153468
    30  H    0.144698
    31  H    0.153837
    32  H    0.159009
    33  H    0.157795
    34  H    0.159094
 Sum of Mulliken charges =  -0.00000

 Dipole moment (field-independent basis, Debye):
    X=              1.9282    Y=             -4.6302    Z=              1.4625  Tot=              5.2245
 Quadrupole moment (field-independent basis, Debye-Ang):
   XX=            -99.0422   YY=            -96.0551   ZZ=            -95.4908
   XY=             15.9284   XZ=             -4.6823   YZ=             -0.3845

 Normal termination of Gaussian 16 at Thu May  6 09:32:08 2021.
