 Gaussian 16, Revision A.03,
 Gaussian 16:  EM64L-G16RevA.03 25-Dec-2016

 -------------
 #p 6-31g* mp2
 -------------

 ------------------------------------------------------
 Input file generated by CHIRIPA (05-May-2021 14:57:24)
 ------------------------------------------------------
 Symbolic Z-matrix:
 Charge =  0 Multiplicity = 1

                         Standard orientation:
 ---------------------------------------------------------------------
 Center     Atomic      Atomic             Coordinates (Angstroms)
 Number     Number       Type             X           Y           Z
 ---------------------------------------------------------------------
      1          6           0        3.529482    2.349061   -0.196708
      2          6           0        2.345478    2.024208   -0.866876
      3          6           0        1.859522    0.713388   -0.854840
      4          6           0        2.586191   -0.251921   -0.159556
      5          6           0        3.768995    0.040490    0.517763
      6          6           0        4.236216    1.357913    0.492258
      7          1           0        3.899708    3.369902   -0.211289
      8          1           0        1.794536    2.791894   -1.402755
      9          1           0        0.945686    0.434326   -1.365180
     10          1           0        4.296241   -0.746409    1.043328
     11          1           0        5.156020    1.607308    1.013609
     12          7           0        2.081648   -1.643123   -0.139685
     13          8           0        2.740385   -2.475299    0.480142
     14          8           0        1.037004   -1.875028   -0.744314
     15          6           0       -3.225443    2.480175    0.293877
     16          6           0       -2.581762    1.850097    1.364015
     17          6           0       -2.268787    0.488924    1.302370
     18          6           0       -2.615584   -0.214951    0.150163
     19          6           0       -3.257284    0.384419   -0.932551
     20          6           0       -3.560559    1.746618   -0.848976
     21          1           0       -3.464802    3.537966    0.350282
     22          1           0       -2.320312    2.417292    2.252824
     23          1           0       -1.770807   -0.023914    2.116269
     24          1           0       -3.505324   -0.207288   -1.805349
     25          1           0       -4.060487    2.233319   -1.681587
     26          7           0       -2.289385   -1.656508    0.073293
     27          8           0       -2.605541   -2.254418   -0.952956
     28          8           0       -1.723734   -2.161193    1.040747
 ---------------------------------------------------------------------

 SCF Done:  E(RHF) =  -868.335689493     A.U. after   16 cycles
 E2 =    -0.2601906012D+01 EUMP2 =    -0.87093759550568D+03

 The electronic state is 1-A.
 Alpha  occ. eigenvalues --  -20.60251 -20.60214 -20.59917 -20.59885 -15.85296
 Alpha  occ. eigenvalues --  -15.84987 -11.30988 -11.30907 -11.27606 -11.27580
 Alpha  occ. eigenvalues --  -11.27521 -11.27512 -11.27405 -11.27367 -11.26700
 Alpha  occ. eigenvalues --  -11.26670 -11.26664 -11.26652  -1.59291  -1.58939
 Alpha  occ. eigenvalues --   -1.38846  -1.38497  -1.19193  -1.19123  -1.08527
 Alpha  occ. eigenvalues --   -1.08409  -1.04643  -1.04598  -0.95306  -0.95151
 Alpha  occ. eigenvalues --   -0.86028  -0.85965  -0.82140  -0.81989  -0.77139
 Alpha  occ. eigenvalues --   -0.76934  -0.71580  -0.71216  -0.70711  -0.70311
 Alpha  occ. eigenvalues --   -0.70211  -0.70075  -0.64836  -0.64752  -0.64651
 Alpha  occ. eigenvalues --   -0.64594  -0.61988  -0.61928  -0.55139  -0.55079
 Alpha  occ. eigenvalues --   -0.53007  -0.52890  -0.52717  -0.52685  -0.48289
 Alpha  occ. eigenvalues --   -0.48252  -0.47965  -0.47916  -0.44354  -0.43592
 Alpha  occ. eigenvalues --   -0.37221  -0.37118  -0.36318  -0.36181
 Alpha virt. eigenvalues --    0.05406   0.05628   0.11275   0.11511   0.16835
 Alpha virt. eigenvalues --    0.17017   0.21456   0.21531   0.27321   0.27419
 Alpha virt. eigenvalues --    0.28315   0.28469   0.30807   0.31148   0.32490

 Mulliken charges:
               1
     1  C   -0.172397
     2  C   -0.218826
     3  C   -0.171814
     4  C    0.159172
     5  C   -0.171414
     6  C   -0.218727
     7  H    0.223484
     8  H    0.220564
     9  H    0.274258
    10  H    0.276413
    11  H    0.222586
    12  N    0.489642
    13  O   -0.458844
    14  O   -0.454336
    15  C   -0.174372
    16  C   -0.219130
    17  C   -0.172897
    18  C    0.160172
    19  C   -0.174347
    20  C   -0.220146
    21  H    0.222753
    22  H    0.221561
    23  H    0.276645
    24  H    0.276703
    25  H    0.221619
    26  N    0.494077
    27  O   -0.458812
    28  O   -0.453590
 Sum of Mulliken charges =  -0.00000

 Dipole moment (field-independent basis, Debye):
    X=              0.6638    Y=              9.5633    Z=              0.2229  Tot=              9.5889
 Quadrupole moment (field-independent basis, Debye-Ang):
   XX=            -87.3594   YY=           -110.3989   ZZ=            -99.7482
   XY=             -1.7192   XZ=              3.4252   YZ=             -0.7154

 Normal termination of Gaussian 16 at Wed May  5 16:24:00 2021.
