 Gaussian 16, Revision A.03,
 Gaussian 16:  EM64L-G16RevA.03 25-Dec-2016

 -------------
 #p 6-31g* mp2
 -------------

 ------------------------------------------------------
 Input file generated by CHIRIPA (05-May-2021 14:57:27)
 ------------------------------------------------------
 Symbolic Z-matrix:
 Charge =  0 Multiplicity = 1

                         Standard orientation:
 ---------------------------------------------------------------------
 Center     Atomic      Atomic             Coordinates (Angstroms)
 Number     Number       Type             X           Y           Z
 ---------------------------------------------------------------------
      1          6           0       -3.706013   -1.427320    0.936209
      2          6           0       -3.429330   -0.289061    1.700626
      3          6           0       -2.749028    0.795400    1.138770
      4          6           0       -2.358261    0.707373   -0.196461
      5          6           0       -2.619208   -0.412898   -0.983983
      6          6           0       -3.300783   -1.485503   -0.401298
      7          1           0       -4.234982   -2.265150    1.380762
      8          1           0       -3.742837   -0.241095    2.739596
      9          1           0       -2.521842    1.688783    1.707691
     10          1           0       -2.294045   -0.431419   -2.017107
     11          1           0       -3.514297   -2.368213   -0.997352
     12          7           0       -1.637382    1.849168   -0.802299
     13          8           0       -1.303790    1.746885   -1.980811
     14          8           0       -1.419599    2.824769   -0.087170
     15          6           0        0.495611   -1.945894   -0.539205
     16          6           0        1.545048   -1.761601   -1.445428
     17          6           0        2.647897   -0.973183   -1.103859
     18          6           0        2.668631   -0.381263    0.158081
     19          6           0        1.638588   -0.545931    1.082843
     20          6           0        0.545642   -1.338541    0.719818
     21          1           0       -0.357262   -2.559984   -0.812877
     22          1           0        1.508885   -2.232057   -2.423901
     23          1           0        3.474044   -0.813789   -1.786129
     24          1           0        1.703010   -0.064091    2.050882
     25          1           0       -0.267926   -1.479913    1.425627
     26          7           0        3.830926    0.455619    0.531042
     27          8           0        3.825239    0.966238    1.649018
     28          8           0        4.725611    0.585101   -0.301671
 ---------------------------------------------------------------------

 SCF Done:  E(RHF) =  -868.336031118     A.U. after   16 cycles
 E2 =    -0.2604517166D+01 EUMP2 =    -0.87094054828419D+03

 The electronic state is 1-A.
 Alpha  occ. eigenvalues --  -20.61289 -20.61282 -20.60432 -20.60427 -15.86353
 Alpha  occ. eigenvalues --  -15.85489 -11.31992 -11.30931 -11.28668 -11.28630
 Alpha  occ. eigenvalues --  -11.28493 -11.27763 -11.27711 -11.27519 -11.27502
 Alpha  occ. eigenvalues --  -11.27308 -11.26572 -11.26544  -1.60352  -1.59501
 Alpha  occ. eigenvalues --   -1.39901  -1.39055  -1.20275  -1.19121  -1.09589
 Alpha  occ. eigenvalues --   -1.08521  -1.05728  -1.04542  -0.96368  -0.95338
 Alpha  occ. eigenvalues --   -0.87079  -0.85943  -0.83204  -0.82169  -0.78186
 Alpha  occ. eigenvalues --   -0.77190  -0.72573  -0.71719  -0.71677  -0.71348
 Alpha  occ. eigenvalues --   -0.70815  -0.70291  -0.65901  -0.65698  -0.64787
 Alpha  occ. eigenvalues --   -0.64581  -0.63039  -0.61904  -0.56182  -0.55136
 Alpha  occ. eigenvalues --   -0.54208  -0.53786  -0.52766  -0.52517  -0.49349
 Alpha  occ. eigenvalues --   -0.49307  -0.48476  -0.48458  -0.45247  -0.44445
 Alpha  occ. eigenvalues --   -0.38466  -0.37668  -0.36638  -0.36048
 Alpha virt. eigenvalues --    0.04267   0.05388   0.10247   0.11492   0.15621
 Alpha virt. eigenvalues --    0.16914   0.20190   0.21793   0.25905   0.27347
 Alpha virt. eigenvalues --    0.27484   0.28822   0.29994   0.31345   0.31778

 Mulliken charges:
               1
     1  C   -0.174197
     2  C   -0.223206
     3  C   -0.173797
     4  C    0.166457
     5  C   -0.170144
     6  C   -0.227410
     7  H    0.228528
     8  H    0.227198
     9  H    0.279937
    10  H    0.276312
    11  H    0.223209
    12  N    0.488733
    13  O   -0.458514
    14  O   -0.456629
    15  C   -0.171247
    16  C   -0.216556
    17  C   -0.167410
    18  C    0.161036
    19  C   -0.171957
    20  C   -0.222491
    21  H    0.217675
    22  H    0.221672
    23  H    0.276502
    24  H    0.274698
    25  H    0.223105
    26  N    0.488722
    27  O   -0.460459
    28  O   -0.459767
 Sum of Mulliken charges =  -0.00000

 Dipole moment (field-independent basis, Debye):
    X=             -6.6681    Y=             -6.6860    Z=              0.7825  Tot=              9.4751
 Quadrupole moment (field-independent basis, Debye-Ang):
   XX=           -114.7761   YY=           -108.3494   ZZ=            -98.5343
   XY=              0.7202   XZ=            -11.4209   YZ=              5.7395

 Normal termination of Gaussian 16 at Thu May  6 03:38:09 2021.
