 Gaussian 16, Revision A.03,
 Gaussian 16:  EM64L-G16RevA.03 25-Dec-2016

 -------------
 #p 6-31g* mp2
 -------------

 ------------------------------------------------------
 Input file generated by CHIRIPA (05-May-2021 14:55:20)
 ------------------------------------------------------
 Symbolic Z-matrix:
 Charge =  0 Multiplicity = 1

                         Standard orientation:
 ---------------------------------------------------------------------
 Center     Atomic      Atomic             Coordinates (Angstroms)
 Number     Number       Type             X           Y           Z
 ---------------------------------------------------------------------
      1          6           0       -4.586625    1.406968    0.531331
      2          6           0       -3.251755    1.817335    0.610340
      3          6           0       -2.216987    0.932771    0.291989
      4          6           0       -2.554652   -0.360631   -0.103467
      5          6           0       -3.874890   -0.799299   -0.191962
      6          6           0       -4.893391    0.102261    0.131138
      7          1           0       -5.384140    2.100720    0.780479
      8          1           0       -3.010555    2.829986    0.920834
      9          1           0       -1.174994    1.224161    0.344528
     10          1           0       -4.084119   -1.815104   -0.504662
     11          1           0       -5.929169   -0.219193    0.068874
     12          7           0       -1.467800   -1.306075   -0.443005
     13          8           0       -1.791634   -2.440207   -0.788715
     14          8           0       -0.312670   -0.895082   -0.356997
     15          6           0        3.321744    0.843366   -0.401926
     16          6           0        3.541327    2.215406    0.236255
     17          6           0        3.181815    3.368059   -0.701793
     18          1           0        3.922133    0.772382   -1.319226
     19          1           0        2.270461    0.753419   -0.708700
     20          1           0        4.591564    2.302205    0.542986
     21          1           0        2.940493    2.283060    1.152244
     22          1           0        2.129617    3.309418   -0.998510
     23          1           0        3.790070    3.328671   -1.611230
     24          1           0        3.346333    4.339588   -0.225425
     25          6           0        3.676728   -0.319053    0.523545
     26          6           0        3.457145   -1.691092   -0.114636
     27          6           0        3.816657   -2.843746    0.823412
     28          1           0        4.728010   -0.229105    0.830320
     29          1           0        3.076338   -0.248069    1.440844
     30          1           0        4.057979   -1.758746   -1.030625
     31          1           0        2.406907   -1.777892   -0.421367
     32          1           0        3.208403   -2.804358    1.732849
     33          1           0        4.868855   -2.785104    1.120129
     34          1           0        3.652139   -3.815274    0.347044
 ---------------------------------------------------------------------

 SCF Done:  E(RHF) =  -669.536518836     A.U. after   15 cycles
 E2 =    -0.2091703276D+01 EUMP2 =    -0.67162822211166D+03

 The electronic state is 1-A.
 Alpha  occ. eigenvalues --  -20.61095 -20.61087 -15.86117 -11.31381 -11.27939
 Alpha  occ. eigenvalues --  -11.27931 -11.27661 -11.26930 -11.26920 -11.21041
 Alpha  occ. eigenvalues --  -11.20747 -11.20391 -11.20265 -11.20035 -11.19855
 Alpha  occ. eigenvalues --   -1.60145  -1.39704  -1.19542  -1.08957  -1.07429
 Alpha  occ. eigenvalues --   -1.04930  -1.02582  -0.95809  -0.95079  -0.86334
 Alpha  occ. eigenvalues --   -0.86109  -0.82647  -0.78677  -0.77714  -0.77155
 Alpha  occ. eigenvalues --   -0.72346  -0.71451  -0.70651  -0.65206  -0.64932
 Alpha  occ. eigenvalues --   -0.64037  -0.62279  -0.59973  -0.58494  -0.56659
 Alpha  occ. eigenvalues --   -0.55436  -0.54377  -0.53264  -0.53022  -0.51822
 Alpha  occ. eigenvalues --   -0.51503  -0.49220  -0.49088  -0.48965  -0.46984
 Alpha  occ. eigenvalues --   -0.45683  -0.45117  -0.44754  -0.44482  -0.42816
 Alpha  occ. eigenvalues --   -0.37517  -0.36528
 Alpha virt. eigenvalues --    0.04820   0.11127   0.16328   0.20888   0.23299
 Alpha virt. eigenvalues --    0.25146   0.26675   0.27420   0.28116   0.28684
 Alpha virt. eigenvalues --    0.29180   0.31089   0.31984   0.32366   0.32924

 Mulliken charges:
               1
     1  C   -0.170381
     2  C   -0.218571
     3  C   -0.170786
     4  C    0.157397
     5  C   -0.170323
     6  C   -0.218597
     7  H    0.226395
     8  H    0.224401
     9  H    0.275545
    10  H    0.276065
    11  H    0.224147
    12  N    0.494477
    13  O   -0.457761
    14  O   -0.466367
    15  C   -0.304189
    16  C   -0.298680
    17  C   -0.474061
    18  H    0.146727
    19  H    0.163707
    20  H    0.150527
    21  H    0.147004
    22  H    0.150120
    23  H    0.156068
    24  H    0.156546
    25  C   -0.294253
    26  C   -0.312666
    27  C   -0.474241
    28  H    0.143018
    29  H    0.147500
    30  H    0.145038
    31  H    0.184658
    32  H    0.153658
    33  H    0.148331
    34  H    0.159546
 Sum of Mulliken charges =  -0.00000

 Dipole moment (field-independent basis, Debye):
    X=             -4.2286    Y=              3.2002    Z=              1.1085  Tot=              5.4177
 Quadrupole moment (field-independent basis, Debye-Ang):
   XX=            -73.4664   YY=            -96.3672   ZZ=            -96.0176
   XY=             -4.3750   XZ=             -2.7407   YZ=              0.7787

 Normal termination of Gaussian 16 at Thu May  6 20:41:15 2021.
