 Gaussian 16, Revision A.03,
 Gaussian 16:  EM64L-G16RevA.03 25-Dec-2016

 -------------
 #p 6-31g* mp2
 -------------

 ------------------------------------------------------
 Input file generated by CHIRIPA (05-May-2021 14:55:21)
 ------------------------------------------------------
 Symbolic Z-matrix:
 Charge =  0 Multiplicity = 1

                         Standard orientation:
 ---------------------------------------------------------------------
 Center     Atomic      Atomic             Coordinates (Angstroms)
 Number     Number       Type             X           Y           Z
 ---------------------------------------------------------------------
      1          6           0        0.730107    0.535318    0.569417
      2          6           0        1.764652    1.217027    1.218655
      3          6           0        3.100258    0.906155    0.946509
      4          6           0        3.366403   -0.096482    0.015287
      5          6           0        2.357751   -0.793608   -0.647983
      6          6           0        1.029431   -0.466058   -0.360191
      7          1           0       -0.304594    0.783289    0.786903
      8          1           0        1.535160    1.995166    1.941067
      9          1           0        3.920660    1.418096    1.434642
     10          1           0        2.617783   -1.564481   -1.363215
     11          1           0        0.228033   -0.997140   -0.865917
     12          7           0        4.776493   -0.434417   -0.281104
     13          8           0        4.984573   -1.321807   -1.105651
     14          8           0        5.646940    0.194499    0.316745
     15          6           0       -4.395911   -0.587687   -0.244003
     16          6           0       -4.016189   -1.766498    0.652770
     17          6           0       -4.793641   -3.039437    0.316632
     18          1           0       -5.473665   -0.396284   -0.150427
     19          1           0       -4.216998   -0.861482   -1.293012
     20          1           0       -4.194462   -1.490067    1.699871
     21          1           0       -2.939179   -1.954995    0.557195
     22          1           0       -4.607593   -3.342356   -0.718852
     23          1           0       -5.870009   -2.874786    0.430316
     24          1           0       -4.506558   -3.869449    0.969719
     25          6           0       -3.627137    0.692101    0.079816
     26          6           0       -4.006860    1.870912   -0.816957
     27          6           0       -3.229408    3.143851   -0.480819
     28          1           0       -3.806051    0.965896    1.128826
     29          1           0       -2.549383    0.500698   -0.013759
     30          1           0       -5.083870    2.059409   -0.721382
     31          1           0       -3.828587    1.594480   -1.864058
     32          1           0       -2.153040    2.979200   -0.594503
     33          1           0       -3.415455    3.446770    0.554666
     34          1           0       -3.516492    3.973863   -1.133906
 ---------------------------------------------------------------------

 SCF Done:  E(RHF) =  -669.535574269     A.U. after   15 cycles
 E2 =    -0.2091460071D+01 EUMP2 =    -0.67162703433973D+03

 The electronic state is 1-A.
 Alpha  occ. eigenvalues --  -20.60738 -20.60733 -15.85792 -11.31153 -11.27728
 Alpha  occ. eigenvalues --  -11.27720 -11.27423 -11.26741 -11.26721 -11.22631
 Alpha  occ. eigenvalues --  -11.22554 -11.22520 -11.22342 -11.22027 -11.21792
 Alpha  occ. eigenvalues --   -1.59814  -1.39367  -1.19325  -1.09456  -1.08717
 Alpha  occ. eigenvalues --   -1.04730  -1.04455  -0.96910  -0.95554  -0.87920
 Alpha  occ. eigenvalues --   -0.86126  -0.82392  -0.80524  -0.79300  -0.77438
 Alpha  occ. eigenvalues --   -0.72009  -0.71137  -0.70444  -0.66093  -0.64975
 Alpha  occ. eigenvalues --   -0.64729  -0.62079  -0.61847  -0.60275  -0.58524
 Alpha  occ. eigenvalues --   -0.56217  -0.55238  -0.53553  -0.53327  -0.53056
 Alpha  occ. eigenvalues --   -0.52821  -0.50850  -0.48839  -0.48765  -0.48761
 Alpha  occ. eigenvalues --   -0.47560  -0.46813  -0.46733  -0.44774  -0.44740
 Alpha  occ. eigenvalues --   -0.37298  -0.36337
 Alpha virt. eigenvalues --    0.05090   0.11310   0.16537   0.18730   0.22547
 Alpha virt. eigenvalues --    0.23239   0.24869   0.26154   0.26582   0.27736
 Alpha virt. eigenvalues --    0.29644   0.30421   0.30976   0.31187   0.31574

 Mulliken charges:
               1
     1  C   -0.177684
     2  C   -0.219362
     3  C   -0.170697
     4  C    0.158252
     5  C   -0.170837
     6  C   -0.221306
     7  H    0.235589
     8  H    0.224074
     9  H    0.275468
    10  H    0.275441
    11  H    0.222516
    12  N    0.488045
    13  O   -0.460591
    14  O   -0.460461
    15  C   -0.298618
    16  C   -0.299659
    17  C   -0.476275
    18  H    0.154148
    19  H    0.150692
    20  H    0.153840
    21  H    0.146162
    22  H    0.156030
    23  H    0.157603
    24  H    0.162996
    25  C   -0.303330
    26  C   -0.299752
    27  C   -0.477796
    28  H    0.151502
    29  H    0.140517
    30  H    0.156328
    31  H    0.154332
    32  H    0.151708
    33  H    0.155543
    34  H    0.165579
 Sum of Mulliken charges =  -0.00000

 Dipole moment (field-independent basis, Debye):
    X=             -5.2436    Y=              1.2062    Z=              1.0297  Tot=              5.4781
 Quadrupole moment (field-independent basis, Debye-Ang):
   XX=           -126.8131   YY=            -93.5186   ZZ=            -92.5999
   XY=              5.0425   XZ=              4.1637   YZ=              2.5508

 Normal termination of Gaussian 16 at Thu May  6 17:30:24 2021.
