 Gaussian 16, Revision A.03,
 Gaussian 16:  EM64L-G16RevA.03 25-Dec-2016

 -------------
 #p 6-31g* mp2
 -------------

 ------------------------------------------------------
 Input file generated by CHIRIPA (05-May-2021 14:55:19)
 ------------------------------------------------------
 Symbolic Z-matrix:
 Charge =  0 Multiplicity = 1

                         Standard orientation:
 ---------------------------------------------------------------------
 Center     Atomic      Atomic             Coordinates (Angstroms)
 Number     Number       Type             X           Y           Z
 ---------------------------------------------------------------------
      1          6           0        3.197488    2.019742   -0.261522
      2          6           0        3.751467    1.043643   -1.096304
      3          6           0        3.432560   -0.306017   -0.919490
      4          6           0        2.552223   -0.645663    0.106638
      5          6           0        1.983909    0.303564    0.954740
      6          6           0        2.317030    1.647244    0.759536
      7          1           0        3.450744    3.065867   -0.406019
      8          1           0        4.435530    1.330018   -1.890087
      9          1           0        3.846985   -1.082224   -1.551290
     10          1           0        1.305035   -0.012591    1.737424
     11          1           0        1.885289    2.403141    1.409354
     12          7           0        2.207087   -2.071322    0.303558
     13          8           0        1.428948   -2.344646    1.214838
     14          8           0        2.721244   -2.888434   -0.457104
     15          6           0       -2.628698    0.800169   -0.146274
     16          6           0       -2.523257    2.282089    0.215365
     17          6           0       -1.094791    2.816625    0.107912
     18          1           0       -1.968198    0.220497    0.513018
     19          1           0       -2.256883    0.652288   -1.169641
     20          1           0       -2.896449    2.427343    1.237248
     21          1           0       -3.184230    2.858280   -0.444738
     22          1           0       -0.715850    2.700734   -0.912664
     23          1           0       -0.426434    2.267349    0.778878
     24          1           0       -1.042377    3.877754    0.370813
     25          6           0       -4.050613    0.251214   -0.043636
     26          6           0       -4.156054   -1.230705   -0.405274
     27          6           0       -5.584521   -1.765241   -0.297822
     28          1           0       -4.422427    0.399096    0.979731
     29          1           0       -4.711112    0.830887   -0.702928
     30          1           0       -3.495082   -1.806896    0.254829
     31          1           0       -3.782862   -1.375959   -1.427157
     32          1           0       -6.252878   -1.215965   -0.968788
     33          1           0       -5.963461   -1.649350    0.722754
     34          1           0       -5.636934   -2.826370   -0.560722
 ---------------------------------------------------------------------

 SCF Done:  E(RHF) =  -669.534369966     A.U. after   15 cycles
 E2 =    -0.2092548014D+01 EUMP2 =    -0.67162691797974D+03

 The electronic state is 1-A.
 Alpha  occ. eigenvalues --  -20.60773 -20.60767 -15.85825 -11.31188 -11.27738
 Alpha  occ. eigenvalues --  -11.27729 -11.27461 -11.26768 -11.26733 -11.21866
 Alpha  occ. eigenvalues --  -11.21548 -11.21456 -11.21383 -11.21310 -11.20861
 Alpha  occ. eigenvalues --   -1.59846  -1.39401  -1.19352  -1.08746  -1.08468
 Alpha  occ. eigenvalues --   -1.04768  -1.03597  -0.96078  -0.95582  -0.87119
 Alpha  occ. eigenvalues --   -0.86144  -0.82428  -0.79681  -0.78242  -0.77467
 Alpha  occ. eigenvalues --   -0.72044  -0.71167  -0.70453  -0.65129  -0.64997
 Alpha  occ. eigenvalues --   -0.64771  -0.62157  -0.60975  -0.59464  -0.57669
 Alpha  occ. eigenvalues --   -0.55419  -0.55222  -0.53235  -0.52921  -0.52730
 Alpha  occ. eigenvalues --   -0.52332  -0.50011  -0.48802  -0.48799  -0.47973
 Alpha  occ. eigenvalues --   -0.46695  -0.45791  -0.45691  -0.44805  -0.43845
 Alpha  occ. eigenvalues --   -0.37317  -0.36276
 Alpha virt. eigenvalues --    0.05037   0.11243   0.16451   0.20744   0.22882
 Alpha virt. eigenvalues --    0.24217   0.25931   0.26878   0.27322   0.28385
 Alpha virt. eigenvalues --    0.28944   0.30538   0.31496   0.31560   0.32117

 Mulliken charges:
               1
     1  C   -0.172888
     2  C   -0.218422
     3  C   -0.171616
     4  C    0.158536
     5  C   -0.170582
     6  C   -0.213663
     7  H    0.225804
     8  H    0.223368
     9  H    0.275417
    10  H    0.274594
    11  H    0.225080
    12  N    0.488230
    13  O   -0.460962
    14  O   -0.460276
    15  C   -0.298987
    16  C   -0.299731
    17  C   -0.476514
    18  H    0.151531
    19  H    0.150457
    20  H    0.151582
    21  H    0.152789
    22  H    0.157665
    23  H    0.148885
    24  H    0.156272
    25  C   -0.298419
    26  C   -0.301021
    27  C   -0.475908
    28  H    0.149215
    29  H    0.148704
    30  H    0.157998
    31  H    0.152356
    32  H    0.153648
    33  H    0.154820
    34  H    0.162038
 Sum of Mulliken charges =  -0.00000

 Dipole moment (field-independent basis, Debye):
    X=              1.2095    Y=              4.9565    Z=             -0.7363  Tot=              5.1548
 Quadrupole moment (field-independent basis, Debye-Ang):
   XX=            -88.1819   YY=           -101.9565   ZZ=            -91.4048
   XY=             11.0915   XZ=             -4.1434   YZ=              1.7688

 Normal termination of Gaussian 16 at Thu May  6 17:24:32 2021.
