 Gaussian 16, Revision A.03,
 Gaussian 16:  EM64L-G16RevA.03 25-Dec-2016

 -------------
 #p 6-31g* mp2
 -------------

 ------------------------------------------------------
 Input file generated by CHIRIPA (05-May-2021 14:57:23)
 ------------------------------------------------------
 Symbolic Z-matrix:
 Charge =  0 Multiplicity = 1

                         Standard orientation:
 ---------------------------------------------------------------------
 Center     Atomic      Atomic             Coordinates (Angstroms)
 Number     Number       Type             X           Y           Z
 ---------------------------------------------------------------------
      1          6           0       -2.056522    1.899528   -0.301450
      2          6           0       -3.405102    2.270743   -0.308548
      3          6           0       -4.409117    1.299810   -0.246977
      4          6           0       -4.027051   -0.039098   -0.178839
      5          6           0       -2.692124   -0.440571   -0.169990
      6          6           0       -1.704957    0.547439   -0.232316
      7          1           0       -1.283123    2.660405   -0.349573
      8          1           0       -3.681073    3.320033   -0.362169
      9          1           0       -5.460817    1.559290   -0.250904
     10          1           0       -2.448007   -1.494559   -0.115814
     11          1           0       -0.658436    0.256223   -0.226639
     12          7           0       -5.081039   -1.076021   -0.113258
     13          8           0       -4.718280   -2.248843   -0.053838
     14          8           0       -6.249956   -0.696304   -0.122516
     15          6           0        1.657002    0.019198    1.422212
     16          6           0        2.397818    1.177988    1.167422
     17          6           0        3.616080    1.106220    0.485340
     18          6           0        4.065676   -0.146398    0.070488
     19          6           0        3.350542   -1.318940    0.309271
     20          6           0        2.134886   -1.223377    0.993081
     21          1           0        0.711639    0.084191    1.952741
     22          1           0        2.029141    2.144339    1.499516
     23          1           0        4.209854    1.987423    0.274791
     24          1           0        3.743916   -2.268010   -0.034158
     25          1           0        1.561682   -2.124975    1.189560
     26          7           0        5.354016   -0.234970   -0.652516
     27          8           0        5.728280   -1.350549   -1.007550
     28          8           0        5.965157    0.812862   -0.850483
 ---------------------------------------------------------------------

 SCF Done:  E(RHF) =  -868.337064306     A.U. after   16 cycles
 E2 =    -0.2600859687D+01 EUMP2 =    -0.87093792399364D+03

 The electronic state is 1-A.
 Alpha  occ. eigenvalues --  -20.61432 -20.61424 -20.61290 -20.61280 -15.86490
 Alpha  occ. eigenvalues --  -15.86343 -11.32056 -11.31801 -11.28648 -11.28615
 Alpha  occ. eigenvalues --  -11.28426 -11.28402 -11.28352 -11.28144 -11.27748
 Alpha  occ. eigenvalues --  -11.27699 -11.27386 -11.27348  -1.60502  -1.60361
 Alpha  occ. eigenvalues --   -1.40049  -1.39912  -1.20263  -1.19979  -1.09644
 Alpha  occ. eigenvalues --   -1.09355  -1.05676  -1.05395  -0.96429  -0.96179
 Alpha  occ. eigenvalues --   -0.87070  -0.86790  -0.83251  -0.82997  -0.78241
 Alpha  occ. eigenvalues --   -0.78044  -0.72703  -0.72559  -0.71828  -0.71686
 Alpha  occ. eigenvalues --   -0.71388  -0.71094  -0.65906  -0.65696  -0.65626
 Alpha  occ. eigenvalues --   -0.65372  -0.62998  -0.62745  -0.56232  -0.55872
 Alpha  occ. eigenvalues --   -0.54135  -0.53757  -0.53715  -0.53326  -0.49479
 Alpha  occ. eigenvalues --   -0.49446  -0.49323  -0.49310  -0.45409  -0.45298
 Alpha  occ. eigenvalues --   -0.38302  -0.37951  -0.37288  -0.36993
 Alpha virt. eigenvalues --    0.04231   0.04493   0.10298   0.10581   0.15561
 Alpha virt. eigenvalues --    0.15974   0.19956   0.21592   0.25775   0.26784
 Alpha virt. eigenvalues --    0.27977   0.28086   0.29900   0.30837   0.31921

 Mulliken charges:
               1
     1  C   -0.174202
     2  C   -0.217814
     3  C   -0.170445
     4  C    0.159688
     5  C   -0.173642
     6  C   -0.230137
     7  H    0.224391
     8  H    0.225211
     9  H    0.277523
    10  H    0.273985
    11  H    0.231181
    12  N    0.488029
    13  O   -0.460324
    14  O   -0.458400
    15  C   -0.183429
    16  C   -0.222244
    17  C   -0.169876
    18  C    0.159713
    19  C   -0.169134
    20  C   -0.221806
    21  H    0.231714
    22  H    0.223276
    23  H    0.277886
    24  H    0.279452
    25  H    0.227412
    26  N    0.487912
    27  O   -0.457361
    28  O   -0.458559
 Sum of Mulliken charges =  -0.00000

 Dipole moment (field-independent basis, Debye):
    X=             -0.6694    Y=              3.9309    Z=              2.2866  Tot=              4.5966
 Quadrupole moment (field-independent basis, Debye-Ang):
   XX=           -168.5140   YY=            -97.7872   ZZ=           -105.9494
   XY=            -15.5578   XZ=             10.5788   YZ=             -0.7853

 Normal termination of Gaussian 16 at Fri May  7 08:00:05 2021.
