 Gaussian 16, Revision A.03,
 Gaussian 16:  EM64L-G16RevA.03 25-Dec-2016

 -------------
 #p 6-31g* mp2
 -------------

 ------------------------------------------------------
 Input file generated by CHIRIPA (05-May-2021 14:55:23)
 ------------------------------------------------------
 Symbolic Z-matrix:
 Charge =  0 Multiplicity = 1

                         Standard orientation:
 ---------------------------------------------------------------------
 Center     Atomic      Atomic             Coordinates (Angstroms)
 Number     Number       Type             X           Y           Z
 ---------------------------------------------------------------------
      1          6           0       -3.157016    1.984481    0.830835
      2          6           0       -1.866418    1.543014    1.140648
      3          6           0       -1.430891    0.279230    0.731118
      4          6           0       -2.316136   -0.520642    0.010123
      5          6           0       -3.607994   -0.109147   -0.314012
      6          6           0       -4.022160    1.158448    0.105772
      7          1           0       -3.487047    2.967698    1.152951
      8          1           0       -1.192383    2.182383    1.703612
      9          1           0       -0.437050   -0.087553    0.957323
     10          1           0       -4.257217   -0.769039   -0.876570
     11          1           0       -5.025011    1.498675   -0.136263
     12          7           0       -1.866370   -1.860571   -0.428856
     13          8           0       -2.665428   -2.546232   -1.062900
     14          8           0       -0.723302   -2.199773   -0.130572
     15          6           0        3.532022   -0.109198    0.236768
     16          6           0        3.087469   -1.566262    0.105153
     17          6           0        4.042845   -2.540429    0.795114
     18          1           0        4.539264   -0.000004   -0.188068
     19          1           0        3.612629    0.147470    1.302140
     20          1           0        3.006388   -1.819695   -0.959654
     21          1           0        2.081090   -1.671959    0.530178
     22          1           0        4.116519   -2.315715    1.864076
     23          1           0        5.047074   -2.464291    0.365779
     24          1           0        3.705997   -3.576311    0.688628
     25          6           0        2.587051    0.876701   -0.447895
     26          6           0        3.031605    2.333765   -0.316281
     27          6           0        2.076228    3.307932   -1.006242
     28          1           0        2.506445    0.620034   -1.513268
     29          1           0        1.579810    0.767508   -0.023060
     30          1           0        4.037984    2.439463   -0.741306
     31          1           0        3.112685    2.587198    0.748526
     32          1           0        1.071999    3.231795   -0.576906
     33          1           0        2.002555    3.083219   -2.075203
     34          1           0        2.413076    4.343815   -0.899756
 ---------------------------------------------------------------------

 SCF Done:  E(RHF) =  -669.535420294     A.U. after   15 cycles
 E2 =    -0.2092905888D+01 EUMP2 =    -0.67162832618252D+03

 The electronic state is 1-A.
 Alpha  occ. eigenvalues --  -20.60860 -20.60854 -15.85904 -11.31256 -11.27831
 Alpha  occ. eigenvalues --  -11.27826 -11.27571 -11.26852 -11.26835 -11.21779
 Alpha  occ. eigenvalues --  -11.21440 -11.21354 -11.21155 -11.20883 -11.20490
 Alpha  occ. eigenvalues --   -1.59927  -1.39482  -1.19434  -1.08828  -1.08312
 Alpha  occ. eigenvalues --   -1.04840  -1.03333  -0.95837  -0.95667  -0.86855
 Alpha  occ. eigenvalues --   -0.86236  -0.82504  -0.79432  -0.78101  -0.77495
 Alpha  occ. eigenvalues --   -0.72128  -0.71244  -0.70552  -0.65092  -0.65057
 Alpha  occ. eigenvalues --   -0.64779  -0.62185  -0.60739  -0.59222  -0.57395
 Alpha  occ. eigenvalues --   -0.55361  -0.55144  -0.53162  -0.52945  -0.52505
 Alpha  occ. eigenvalues --   -0.52231  -0.49813  -0.48900  -0.48881  -0.47713
 Alpha  occ. eigenvalues --   -0.46496  -0.45584  -0.45467  -0.44855  -0.43610
 Alpha  occ. eigenvalues --   -0.37407  -0.36420
 Alpha virt. eigenvalues --    0.04947   0.11153   0.16385   0.19867   0.23155
 Alpha virt. eigenvalues --    0.23924   0.25236   0.27101   0.27364   0.28219
 Alpha virt. eigenvalues --    0.29604   0.30971   0.31744   0.31970   0.32379

 Mulliken charges:
               1
     1  C   -0.170308
     2  C   -0.221189
     3  C   -0.171875
     4  C    0.157442
     5  C   -0.170418
     6  C   -0.218494
     7  H    0.226153
     8  H    0.224296
     9  H    0.280969
    10  H    0.275858
    11  H    0.223840
    12  N    0.492088
    13  O   -0.459786
    14  O   -0.464942
    15  C   -0.299152
    16  C   -0.306636
    17  C   -0.476024
    18  H    0.149257
    19  H    0.144706
    20  H    0.155520
    21  H    0.169417
    22  H    0.151103
    23  H    0.151843
    24  H    0.165262
    25  C   -0.298772
    26  C   -0.299586
    27  C   -0.475259
    28  H    0.154467
    29  H    0.140788
    30  H    0.154451
    31  H    0.148219
    32  H    0.148852
    33  H    0.158235
    34  H    0.159673
 Sum of Mulliken charges =  -0.00000

 Dipole moment (field-independent basis, Debye):
    X=             -1.6835    Y=              4.5681    Z=              1.4487  Tot=              5.0794
 Quadrupole moment (field-independent basis, Debye-Ang):
   XX=            -83.7540   YY=           -100.8734   ZZ=            -93.9525
   XY=             -9.2524   XZ=             -2.5044   YZ=              0.1394

 Normal termination of Gaussian 16 at Thu May  6 17:39:19 2021.
