 Gaussian 16, Revision A.03,
 Gaussian 16:  EM64L-G16RevA.03 25-Dec-2016

 -------------
 #p 6-31g* mp2
 -------------

 ------------------------------------------------------
 Input file generated by CHIRIPA (05-May-2021 14:57:23)
 ------------------------------------------------------
 Symbolic Z-matrix:
 Charge =  0 Multiplicity = 1

                         Standard orientation:
 ---------------------------------------------------------------------
 Center     Atomic      Atomic             Coordinates (Angstroms)
 Number     Number       Type             X           Y           Z
 ---------------------------------------------------------------------
      1          6           0       -2.298166    2.214113    1.239965
      2          6           0       -2.224708    2.244986   -0.156521
      3          6           0       -2.090990    1.060377   -0.886841
      4          6           0       -2.033631   -0.142832   -0.185208
      5          6           0       -2.104189   -0.206325    1.205576
      6          6           0       -2.237778    0.990713    1.915365
      7          1           0       -2.401991    3.139174    1.799321
      8          1           0       -2.271346    3.193643   -0.683701
      9          1           0       -2.031801    1.055394   -1.968455
     10          1           0       -2.054963   -1.167290    1.703111
     11          1           0       -2.294583    0.963709    2.999842
     12          7           0       -1.892137   -1.403504   -0.947498
     13          8           0       -1.843913   -2.450619   -0.305733
     14          8           0       -1.832138   -1.320633   -2.172312
     15          6           0        1.663777   -2.220543    1.310463
     16          6           0        1.559032   -2.191344   -0.084062
     17          6           0        1.774765   -1.002593   -0.787540
     18          6           0        2.094961    0.143454   -0.061357
     19          6           0        2.206654    0.146376    1.328177
     20          6           0        1.986685   -1.053647    2.010896
     21          1           0        1.494544   -3.148371    1.848878
     22          1           0        1.308399   -3.096038   -0.630647
     23          1           0        1.700148   -0.951740   -1.867014
     24          1           0        2.457985    1.064359    1.845438
     25          1           0        2.068709   -1.073364    3.093914
     26          7           0        2.325591    1.407897   -0.795111
     27          8           0        2.606429    2.403941   -0.132038
     28          8           0        2.221153    1.378981   -2.019403
 ---------------------------------------------------------------------

 SCF Done:  E(RHF) =  -868.340199554     A.U. after   16 cycles
 E2 =    -0.2603230109D+01 EUMP2 =    -0.87094342966340D+03

 The electronic state is 1-A.
 Alpha  occ. eigenvalues --  -20.61157 -20.61125 -20.60689 -20.60668 -15.86142
 Alpha  occ. eigenvalues --  -15.85724 -11.31242 -11.30929 -11.27841 -11.27724
 Alpha  occ. eigenvalues --  -11.27511 -11.27478 -11.27311 -11.27112 -11.26796
 Alpha  occ. eigenvalues --  -11.26672 -11.26538 -11.26261  -1.60201  -1.59761
 Alpha  occ. eigenvalues --   -1.39764  -1.39317  -1.19399  -1.19064  -1.08840
 Alpha  occ. eigenvalues --   -1.08483  -1.04757  -1.04426  -0.95723  -0.95349
 Alpha  occ. eigenvalues --   -0.86166  -0.85814  -0.82570  -0.82177  -0.77648
 Alpha  occ. eigenvalues --   -0.77251  -0.72402  -0.71946  -0.71541  -0.71066
 Alpha  occ. eigenvalues --   -0.70500  -0.70133  -0.65053  -0.64760  -0.64698
 Alpha  occ. eigenvalues --   -0.64380  -0.62110  -0.61740  -0.55271  -0.54905
 Alpha  occ. eigenvalues --   -0.53328  -0.52849  -0.52556  -0.52475  -0.49167
 Alpha  occ. eigenvalues --   -0.49134  -0.48710  -0.48689  -0.45244  -0.44763
 Alpha  occ. eigenvalues --   -0.37442  -0.36967  -0.36411  -0.35883
 Alpha virt. eigenvalues --    0.04782   0.05301   0.11287   0.11670   0.16344
 Alpha virt. eigenvalues --    0.16848   0.21408   0.21920   0.27346   0.27826
 Alpha virt. eigenvalues --    0.28366   0.28707   0.30971   0.31450   0.32474

 Mulliken charges:
               1
     1  C   -0.169208
     2  C   -0.217039
     3  C   -0.171867
     4  C    0.157733
     5  C   -0.167559
     6  C   -0.220138
     7  H    0.227297
     8  H    0.228739
     9  H    0.279440
    10  H    0.270539
    11  H    0.220810
    12  N    0.489086
    13  O   -0.466262
    14  O   -0.460293
    15  C   -0.171852
    16  C   -0.211963
    17  C   -0.184028
    18  C    0.160130
    19  C   -0.171759
    20  C   -0.221606
    21  H    0.227114
    22  H    0.237211
    23  H    0.281887
    24  H    0.271364
    25  H    0.219276
    26  N    0.487915
    27  O   -0.464707
    28  O   -0.460260
 Sum of Mulliken charges =  -0.00000

 Dipole moment (field-independent basis, Debye):
    X=             -1.4047    Y=             -0.0687    Z=              5.0902  Tot=              5.2810
 Quadrupole moment (field-independent basis, Debye-Ang):
   XX=           -107.9788   YY=           -105.2023   ZZ=            -99.1958
   XY=            -18.8609   XZ=              0.8336   YZ=             -0.7041

 Normal termination of Gaussian 16 at Thu May  6 11:18:06 2021.
