 Gaussian 16, Revision A.03,
 Gaussian 16:  EM64L-G16RevA.03 25-Dec-2016

 -------------
 #p 6-31g* mp2
 -------------

 ------------------------------------------------------
 Input file generated by CHIRIPA (05-May-2021 14:53:17)
 ------------------------------------------------------
 Symbolic Z-matrix:
 Charge =  0 Multiplicity = 1

                         Standard orientation:
 ---------------------------------------------------------------------
 Center     Atomic      Atomic             Coordinates (Angstroms)
 Number     Number       Type             X           Y           Z
 ---------------------------------------------------------------------
      1          6           0       -3.398301   -0.489244   -0.693624
      2          6           0       -3.386921   -1.870438   -0.037760
      3          6           0       -3.608199   -3.003001   -1.040820
      4          1           0       -4.357671   -0.342735   -1.208494
      5          1           0       -2.619288   -0.452157   -1.467678
      6          1           0       -4.164805   -1.904450    0.735775
      7          1           0       -2.427542   -2.013599    0.475770
      8          1           0       -2.825904   -2.997609   -1.806709
      9          1           0       -4.573038   -2.887839   -1.545227
     10          1           0       -3.596308   -3.981473   -0.550605
     11          6           0       -3.178362    0.653300    0.296299
     12          6           0       -3.189742    2.034494   -0.359566
     13          6           0       -2.968464    3.167057    0.643495
     14          1           0       -3.957375    0.616213    1.070352
     15          1           0       -2.218992    0.506791    0.811168
     16          1           0       -4.149121    2.177656   -0.873095
     17          1           0       -2.411858    2.068506   -1.133100
     18          1           0       -2.003625    3.051895    1.147901
     19          1           0       -3.750759    3.161665    1.409383
     20          1           0       -2.980355    4.145529    0.153279
     21          6           0        3.895950    0.443225   -1.929930
     22          6           0        4.532204   -0.105037   -0.811400
     23          6           0        3.806918   -0.390168    0.349294
     24          6           0        2.440725   -0.113130    0.356788
     25          6           0        1.778215    0.432938   -0.741474
     26          6           0        2.523406    0.709992   -1.891466
     27          1           0        4.467100    0.661584   -2.827428
     28          1           0        5.598018   -0.313253   -0.838420
     29          1           0        4.274253   -0.814773    1.229480
     30          1           0        0.714485    0.629533   -0.684494
     31          1           0        2.026639    1.135764   -2.758637
     32          7           0        1.662361   -0.410710    1.579898
     33          8           0        0.459819   -0.157380    1.561134
     34          8           0        2.269561   -0.891647    2.534175
 ---------------------------------------------------------------------

 SCF Done:  E(RHF) =  -669.536265517     A.U. after   15 cycles
 E2 =    -0.2091580243D+01 EUMP2 =    -0.67162784576010D+03

 The electronic state is 1-A.
 Alpha  occ. eigenvalues --  -20.60998 -20.60979 -15.86034 -11.31326 -11.27891
 Alpha  occ. eigenvalues --  -11.27882 -11.27617 -11.26888 -11.26879 -11.21230
 Alpha  occ. eigenvalues --  -11.20948 -11.20873 -11.20635 -11.20627 -11.20566
 Alpha  occ. eigenvalues --   -1.60054  -1.39612  -1.19492  -1.08900  -1.07860
 Alpha  occ. eigenvalues --   -1.04885  -1.03029  -0.95749  -0.95470  -0.86493
 Alpha  occ. eigenvalues --   -0.86287  -0.82586  -0.79082  -0.77725  -0.77561
 Alpha  occ. eigenvalues --   -0.72262  -0.71367  -0.70601  -0.65157  -0.64895
 Alpha  occ. eigenvalues --   -0.64477  -0.62232  -0.60435  -0.58842  -0.57077
 Alpha  occ. eigenvalues --   -0.55389  -0.54758  -0.53218  -0.52976  -0.52200
 Alpha  occ. eigenvalues --   -0.51892  -0.49426  -0.49012  -0.49000  -0.47402
 Alpha  occ. eigenvalues --   -0.46112  -0.45232  -0.45094  -0.44960  -0.43254
 Alpha  occ. eigenvalues --   -0.37469  -0.36485
 Alpha virt. eigenvalues --    0.04883   0.11167   0.16383   0.19889   0.22700
 Alpha virt. eigenvalues --    0.24661   0.26215   0.27436   0.28113   0.28267
 Alpha virt. eigenvalues --    0.29300   0.31216   0.31700   0.32223   0.32332

 Mulliken charges:
               1
     1  C   -0.295120
     2  C   -0.302705
     3  C   -0.475105
     4  H    0.146340
     5  H    0.140058
     6  H    0.151939
     7  H    0.163779
     8  H    0.151328
     9  H    0.152816
    10  H    0.160198
    11  C   -0.313639
    12  C   -0.297078
    13  C   -0.476462
    14  H    0.148981
    15  H    0.178981
    16  H    0.149779
    17  H    0.140606
    18  H    0.160340
    19  H    0.156439
    20  H    0.155853
    21  C   -0.170448
    22  C   -0.218583
    23  C   -0.170695
    24  C    0.157656
    25  C   -0.171744
    26  C   -0.218851
    27  H    0.226211
    28  H    0.223972
    29  H    0.275895
    30  H    0.276980
    31  H    0.224277
    32  N    0.496412
    33  O   -0.470037
    34  O   -0.458376
 Sum of Mulliken charges =  -0.00000

 Dipole moment (field-independent basis, Debye):
    X=              2.9491    Y=              0.9910    Z=             -4.0919  Tot=              5.1404
 Quadrupole moment (field-independent basis, Debye-Ang):
   XX=            -77.3982   YY=            -96.4863   ZZ=            -97.7512
   XY=              0.5546   XZ=             -8.4957   YZ=             -0.6432

 Normal termination of Gaussian 16 at Thu May  6 17:18:16 2021.
