 Gaussian 16, Revision A.03,
 Gaussian 16:  EM64L-G16RevA.03 25-Dec-2016

 -------------
 #p 6-31g* mp2
 -------------

 ------------------------------------------------------
 Input file generated by CHIRIPA (05-May-2021 14:53:15)
 ------------------------------------------------------
 Symbolic Z-matrix:
 Charge =  0 Multiplicity = 1

                         Standard orientation:
 ---------------------------------------------------------------------
 Center     Atomic      Atomic             Coordinates (Angstroms)
 Number     Number       Type             X           Y           Z
 ---------------------------------------------------------------------
      1          6           0        4.139285    0.457606    0.059415
      2          6           0        3.763897    1.939027    0.108997
      3          6           0        4.934901    2.832160    0.519921
      4          1           0        4.510893    0.146855    1.045461
      5          1           0        4.971037    0.320673   -0.645449
      6          1           0        2.932186    2.072927    0.812519
      7          1           0        3.392960    2.246240   -0.877230
      8          1           0        5.765081    2.728060   -0.186170
      9          1           0        5.301689    2.553763    1.513180
     10          1           0        4.644412    3.886976    0.548898
     11          6           0        2.979054   -0.447985   -0.349850
     12          6           0        3.354442   -1.929406   -0.399431
     13          6           0        2.183438   -2.822539   -0.810356
     14          1           0        2.147302   -0.311052    0.355014
     15          1           0        2.607446   -0.137234   -1.335896
     16          1           0        3.725379   -2.236619    0.586795
     17          1           0        4.186153   -2.063306   -1.102953
     18          1           0        1.816650   -2.544142   -1.803614
     19          1           0        1.353258   -2.718439   -0.104265
     20          1           0        2.473927   -3.877355   -0.839332
     21          6           0       -3.982096    1.959941   -0.919129
     22          6           0       -3.379232    0.999058   -1.737532
     23          6           0       -2.710832   -0.093121   -1.176342
     24          6           0       -2.664445   -0.193601    0.213277
     25          6           0       -3.255216    0.747277    1.055315
     26          6           0       -3.918275    1.831210    0.472229
     27          1           0       -4.499250    2.805169   -1.363579
     28          1           0       -3.427205    1.096463   -2.818391
     29          1           0       -2.235401   -0.851539   -1.786412
     30          1           0       -3.190634    0.623109    2.129479
     31          1           0       -4.385553    2.575921    1.110274
     32          7           0       -1.959667   -1.345478    0.818973
     33          8           0       -1.932951   -1.411146    2.046007
     34          8           0       -1.447322   -2.160839    0.055216
 ---------------------------------------------------------------------

 SCF Done:  E(RHF) =  -669.536155265     A.U. after   15 cycles
 E2 =    -0.2091014675D+01 EUMP2 =    -0.67162716994026D+03

 The electronic state is 1-A.
 Alpha  occ. eigenvalues --  -20.60947 -20.60926 -15.85964 -11.31274 -11.27839
 Alpha  occ. eigenvalues --  -11.27831 -11.27575 -11.26843 -11.26832 -11.21298
 Alpha  occ. eigenvalues --  -11.20917 -11.20838 -11.20765 -11.20705 -11.19753
 Alpha  occ. eigenvalues --   -1.60000  -1.39555  -1.19442  -1.08850  -1.07857
 Alpha  occ. eigenvalues --   -1.04837  -1.02882  -0.95695  -0.95306  -0.86321
 Alpha  occ. eigenvalues --   -0.86236  -0.82526  -0.78977  -0.77654  -0.77569
 Alpha  occ. eigenvalues --   -0.72186  -0.71313  -0.70552  -0.65098  -0.64841
 Alpha  occ. eigenvalues --   -0.64491  -0.62184  -0.60276  -0.58744  -0.56917
 Alpha  occ. eigenvalues --   -0.55344  -0.54582  -0.53169  -0.52929  -0.52006
 Alpha  occ. eigenvalues --   -0.51722  -0.49303  -0.48945  -0.48892  -0.47270
 Alpha  occ. eigenvalues --   -0.46029  -0.45253  -0.45140  -0.44781  -0.43156
 Alpha  occ. eigenvalues --   -0.37420  -0.36437
 Alpha virt. eigenvalues --    0.04922   0.11218   0.16406   0.21339   0.23393
 Alpha virt. eigenvalues --    0.24996   0.27161   0.27292   0.27911   0.28197
 Alpha virt. eigenvalues --    0.28890   0.30939   0.32092   0.32241   0.32531

 Mulliken charges:
               1
     1  C   -0.297741
     2  C   -0.298975
     3  C   -0.475269
     4  H    0.150252
     5  H    0.148019
     6  H    0.151341
     7  H    0.149324
     8  H    0.154632
     9  H    0.155613
    10  H    0.157942
    11  C   -0.297127
    12  C   -0.299519
    13  C   -0.482930
    14  H    0.151589
    15  H    0.145126
    16  H    0.151450
    17  H    0.146857
    18  H    0.147580
    19  H    0.181790
    20  H    0.155943
    21  C   -0.170501
    22  C   -0.218556
    23  C   -0.170416
    24  C    0.158104
    25  C   -0.170768
    26  C   -0.218575
    27  H    0.225947
    28  H    0.223800
    29  H    0.276250
    30  H    0.275667
    31  H    0.223725
    32  N    0.488415
    33  O   -0.459757
    34  O   -0.459232
 Sum of Mulliken charges =  -0.00000

 Dipole moment (field-independent basis, Debye):
    X=             -2.7277    Y=              3.9970    Z=             -2.0511  Tot=              5.2558
 Quadrupole moment (field-independent basis, Debye-Ang):
   XX=            -83.2152   YY=            -97.0661   ZZ=            -90.8123
   XY=            -11.6172   XZ=              3.9084   YZ=              2.5322

 Normal termination of Gaussian 16 at Thu May  6 12:08:45 2021.
