 Gaussian 16, Revision A.03,
 Gaussian 16:  EM64L-G16RevA.03 25-Dec-2016

 -------------
 #p 6-31g* mp2
 -------------

 ------------------------------------------------------
 Input file generated by CHIRIPA (05-May-2021 14:53:11)
 ------------------------------------------------------
 Symbolic Z-matrix:
 Charge =  0 Multiplicity = 1

                         Standard orientation:
 ---------------------------------------------------------------------
 Center     Atomic      Atomic             Coordinates (Angstroms)
 Number     Number       Type             X           Y           Z
 ---------------------------------------------------------------------
      1          6           0       -3.489182    0.532072    0.134724
      2          6           0       -3.868993    1.987293   -0.141063
      3          6           0       -2.713573    2.957210    0.108055
      4          1           0       -3.148697    0.439502    1.175130
      5          1           0       -2.635014    0.256869   -0.499354
      6          1           0       -4.723072    2.259249    0.492346
      7          1           0       -4.208796    2.076372   -1.180878
      8          1           0       -1.861003    2.713829   -0.534200
      9          1           0       -2.378201    2.897744    1.148530
     10          1           0       -3.006997    3.991834   -0.095211
     11          6           0       -4.633863   -0.449578   -0.109811
     12          6           0       -4.254052   -1.904800    0.165976
     13          6           0       -5.409473   -2.874716   -0.083141
     14          1           0       -5.488032   -0.174375    0.524267
     15          1           0       -4.974349   -0.357009   -1.150217
     16          1           0       -3.914250   -1.993879    1.205791
     17          1           0       -3.399974   -2.176755   -0.467432
     18          1           0       -5.744845   -2.815251   -1.123617
     19          1           0       -6.262043   -2.631335    0.559113
     20          1           0       -5.116049   -3.909340    0.120124
     21          6           0        1.274540    1.629465   -0.027600
     22          6           0        2.598866    2.079670   -0.028000
     23          6           0        3.658713    1.167983   -0.018153
     24          6           0        3.356607   -0.192870   -0.008004
     25          6           0        2.047705   -0.672521   -0.007332
     26          6           0        1.003665    0.257226   -0.017285
     27          1           0        0.457365    2.344700   -0.035291
     28          1           0        2.812212    3.144782   -0.035999
     29          1           0        4.693275    1.489073   -0.018221
     30          1           0        1.866437   -1.740460    0.000768
     31          1           0       -0.023847   -0.095285   -0.016948
     32          7           0        4.470253   -1.167592    0.002477
     33          8           0        4.177582   -2.361285    0.011312
     34          8           0        5.614712   -0.719430    0.001658
 ---------------------------------------------------------------------

 SCF Done:  E(RHF) =  -669.535620961     A.U. after   15 cycles
 E2 =    -0.2091651304D+01 EUMP2 =    -0.67162727226538D+03

 The electronic state is 1-A.
 Alpha  occ. eigenvalues --  -20.60688 -20.60683 -15.85741 -11.31082 -11.27651
 Alpha  occ. eigenvalues --  -11.27644 -11.27328 -11.26651 -11.26618 -11.22694
 Alpha  occ. eigenvalues --  -11.22525 -11.22418 -11.22336 -11.22211 -11.21622
 Alpha  occ. eigenvalues --   -1.59764  -1.39318  -1.19248  -1.09399  -1.08642
 Alpha  occ. eigenvalues --   -1.04649  -1.04463  -0.96941  -0.95483  -0.87958
 Alpha  occ. eigenvalues --   -0.86045  -0.82320  -0.80555  -0.79206  -0.77371
 Alpha  occ. eigenvalues --   -0.71959  -0.71087  -0.70364  -0.66028  -0.64896
 Alpha  occ. eigenvalues --   -0.64647  -0.62010  -0.61842  -0.60309  -0.58559
 Alpha  occ. eigenvalues --   -0.56284  -0.55153  -0.53597  -0.53314  -0.52980
 Alpha  occ. eigenvalues --   -0.52729  -0.50867  -0.48849  -0.48715  -0.48713
 Alpha  occ. eigenvalues --   -0.47573  -0.46732  -0.46633  -0.44729  -0.44719
 Alpha  occ. eigenvalues --   -0.37221  -0.36258
 Alpha virt. eigenvalues --    0.05156   0.11382   0.16640   0.19275   0.22375
 Alpha virt. eigenvalues --    0.23625   0.24541   0.25580   0.26089   0.28463
 Alpha virt. eigenvalues --    0.29305   0.30283   0.30823   0.31144   0.31719

 Mulliken charges:
               1
     1  C   -0.304120
     2  C   -0.299202
     3  C   -0.483232
     4  H    0.150966
     5  H    0.145025
     6  H    0.157154
     7  H    0.155932
     8  H    0.148489
     9  H    0.156962
    10  H    0.166719
    11  C   -0.298316
    12  C   -0.300702
    13  C   -0.476268
    14  H    0.152795
    15  H    0.152220
    16  H    0.152813
    17  H    0.149864
    18  H    0.156601
    19  H    0.156698
    20  H    0.162968
    21  C   -0.178329
    22  C   -0.219698
    23  C   -0.171031
    24  C    0.158486
    25  C   -0.171914
    26  C   -0.226363
    27  H    0.234978
    28  H    0.223433
    29  H    0.275086
    30  H    0.275487
    31  H    0.230018
    32  N    0.488022
    33  O   -0.460761
    34  O   -0.460782
 Sum of Mulliken charges =  -0.00000

 Dipole moment (field-independent basis, Debye):
    X=             -4.2741    Y=              3.4472    Z=             -0.0149  Tot=              5.4910
 Quadrupole moment (field-independent basis, Debye-Ang):
   XX=           -118.4611   YY=            -93.8150   ZZ=            -94.7195
   XY=             14.5155   XZ=             -0.5235   YZ=             -0.0234

 Normal termination of Gaussian 16 at Wed May  5 15:24:48 2021.
