 Gaussian 16, Revision A.03,
 Gaussian 16:  EM64L-G16RevA.03 25-Dec-2016

 -------------
 #p 6-31g* mp2
 -------------

 ------------------------------------------------------
 Input file generated by CHIRIPA (05-May-2021 14:57:26)
 ------------------------------------------------------
 Symbolic Z-matrix:
 Charge =  0 Multiplicity = 1

                         Standard orientation:
 ---------------------------------------------------------------------
 Center     Atomic      Atomic             Coordinates (Angstroms)
 Number     Number       Type             X           Y           Z
 ---------------------------------------------------------------------
      1          6           0        2.329464    2.720970    0.213857
      2          6           0        1.328424    1.755707    0.063166
      3          6           0        1.661359    0.411389   -0.127909
      4          6           0        3.011445    0.065977   -0.163244
      5          6           0        4.031755    1.004404   -0.016230
      6          6           0        3.675562    2.342904    0.173749
      7          1           0        2.061799    3.763009    0.361863
      8          1           0        0.282201    2.046427    0.093887
      9          1           0        0.906636   -0.356434   -0.247325
     10          1           0        5.065974    0.684130   -0.051362
     11          1           0        4.455105    3.090385    0.290489
     12          7           0        3.376220   -1.354113   -0.364947
     13          8           0        4.572999   -1.632696   -0.392272
     14          8           0        2.458443   -2.161706   -0.491897
     15          6           0       -4.372339    1.584675   -0.761374
     16          6           0       -3.753162    1.704888    0.487101
     17          6           0       -2.963570    0.666975    0.990920
     18          6           0       -2.813948   -0.482231    0.216176
     19          6           0       -3.417894   -0.631972   -1.031267
     20          6           0       -4.203028    0.418685   -1.515244
     21          1           0       -4.983981    2.395900   -1.145045
     22          1           0       -3.882887    2.609255    1.074753
     23          1           0       -2.472793    0.733595    1.954308
     24          1           0       -3.269996   -1.545672   -1.594026
     25          1           0       -4.682691    0.322554   -2.485155
     26          7           0       -1.980402   -1.587768    0.739044
     27          8           0       -1.864271   -2.589936    0.037040
     28          8           0       -1.458983   -1.431186    1.840970
 ---------------------------------------------------------------------

 SCF Done:  E(RHF) =  -868.336479305     A.U. after   16 cycles
 E2 =    -0.2600807760D+01 EUMP2 =    -0.87093728706466D+03

 The electronic state is 1-A.
 Alpha  occ. eigenvalues --  -20.61134 -20.61087 -20.60131 -20.60070 -15.86167
 Alpha  occ. eigenvalues --  -15.85160 -11.31754 -11.30719 -11.28365 -11.28270
 Alpha  occ. eigenvalues --  -11.28061 -11.27398 -11.27344 -11.27312 -11.27307
 Alpha  occ. eigenvalues --  -11.27164 -11.26412 -11.26401  -1.60199  -1.59180
 Alpha  occ. eigenvalues --   -1.39738  -1.38723  -1.19932  -1.18928  -1.09279
 Alpha  occ. eigenvalues --   -1.08299  -1.05345  -1.04365  -0.96074  -0.95095
 Alpha  occ. eigenvalues --   -0.86725  -0.85758  -0.82887  -0.81923  -0.77915
 Alpha  occ. eigenvalues --   -0.76926  -0.72350  -0.71600  -0.71358  -0.70991
 Alpha  occ. eigenvalues --   -0.70508  -0.70047  -0.65557  -0.65318  -0.64585
 Alpha  occ. eigenvalues --   -0.64389  -0.62670  -0.61707  -0.55806  -0.54898
 Alpha  occ. eigenvalues --   -0.53691  -0.53412  -0.52679  -0.52464  -0.49133
 Alpha  occ. eigenvalues --   -0.49106  -0.48165  -0.48114  -0.45076  -0.44086
 Alpha  occ. eigenvalues --   -0.37921  -0.36972  -0.36936  -0.35963
 Alpha virt. eigenvalues --    0.04579   0.05621   0.10650   0.11684   0.16043
 Alpha virt. eigenvalues --    0.17053   0.20841   0.21586   0.26635   0.27117
 Alpha virt. eigenvalues --    0.27986   0.28405   0.30561   0.30937   0.32134

 Mulliken charges:
               1
     1  C   -0.171339
     2  C   -0.220165
     3  C   -0.166723
     4  C    0.157538
     5  C   -0.170761
     6  C   -0.218897
     7  H    0.221661
     8  H    0.218347
     9  H    0.279054
    10  H    0.275022
    11  H    0.221423
    12  N    0.487055
    13  O   -0.464053
    14  O   -0.451594
    15  C   -0.171244
    16  C   -0.220866
    17  C   -0.177966
    18  C    0.153179
    19  C   -0.170827
    20  C   -0.218128
    21  H    0.227188
    22  H    0.223745
    23  H    0.276599
    24  H    0.280004
    25  H    0.226367
    26  N    0.484656
    27  O   -0.450212
    28  O   -0.459062
 Sum of Mulliken charges =  -0.00000

 Dipole moment (field-independent basis, Debye):
    X=             -4.4236    Y=              8.5819    Z=             -1.1942  Tot=              9.7285
 Quadrupole moment (field-independent basis, Debye-Ang):
   XX=            -91.7042   YY=           -107.2233   ZZ=           -103.4388
   XY=              7.2313   XZ=              8.4894   YZ=              3.5872

 Normal termination of Gaussian 16 at Thu May  6 19:46:37 2021.
