 Gaussian 16, Revision A.03,
 Gaussian 16:  EM64L-G16RevA.03 25-Dec-2016

 -------------
 #p 6-31g* mp2
 -------------

 ------------------------------------------------------
 Input file generated by CHIRIPA (05-May-2021 14:57:24)
 ------------------------------------------------------
 Symbolic Z-matrix:
 Charge =  0 Multiplicity = 1

                         Standard orientation:
 ---------------------------------------------------------------------
 Center     Atomic      Atomic             Coordinates (Angstroms)
 Number     Number       Type             X           Y           Z
 ---------------------------------------------------------------------
      1          6           0       -6.031494   -1.316058    0.334771
      2          6           0       -6.181138    0.031708   -0.008236
      3          6           0       -5.059674    0.839923   -0.217174
      4          6           0       -3.797812    0.265018   -0.074071
      5          6           0       -3.616061   -1.074426    0.266730
      6          6           0       -4.751689   -1.863858    0.470919
      7          1           0       -6.908176   -1.936603    0.495235
      8          1           0       -7.173826    0.459830   -0.114660
      9          1           0       -5.146707    1.886291   -0.483553
     10          1           0       -2.613597   -1.472821    0.365553
     11          1           0       -4.632453   -2.910239    0.737216
     12          7           0       -2.603071    1.110697   -0.292751
     13          8           0       -1.502262    0.580246   -0.160543
     14          8           0       -2.790064    2.287977   -0.592219
     15          6           0        6.517490   -0.110521    0.001610
     16          6           0        5.816070   -1.192728   -0.540017
     17          6           0        4.418226   -1.211787   -0.525304
     18          6           0        3.750827   -0.127102    0.041551
     19          6           0        4.421265    0.965602    0.589093
     20          6           0        5.819080    0.963297    0.563446
     21          1           0        7.603357   -0.104013   -0.014066
     22          1           0        6.355834   -2.028040   -0.977002
     23          1           0        3.850149   -2.036825   -0.937639
     24          1           0        3.855482    1.783844    1.017797
     25          1           0        6.361184    1.805091    0.984812
     26          7           0        2.271009   -0.135970    0.062914
     27          8           0        1.706433    0.831828    0.568145
     28          8           0        1.703722   -1.110553   -0.425975
 ---------------------------------------------------------------------

 SCF Done:  E(RHF) =  -868.334793899     A.U. after   16 cycles
 E2 =    -0.2600626135D+01 EUMP2 =    -0.87093542003321D+03

 The electronic state is 1-A.
 Alpha  occ. eigenvalues --  -20.59720 -20.59643 -20.59363 -20.59213 -15.84758
 Alpha  occ. eigenvalues --  -15.84337 -11.30494 -11.30128 -11.27124 -11.27086
 Alpha  occ. eigenvalues --  -11.26922 -11.26793 -11.26696 -11.26610 -11.26217
 Alpha  occ. eigenvalues --  -11.26192 -11.25898 -11.25853  -1.58739  -1.58378
 Alpha  occ. eigenvalues --   -1.38294  -1.37911  -1.18700  -1.18355  -1.08024
 Alpha  occ. eigenvalues --   -1.07680  -1.04160  -1.03816  -0.94798  -0.94428
 Alpha  occ. eigenvalues --   -0.85541  -0.85195  -0.81634  -0.81250  -0.76616
 Alpha  occ. eigenvalues --   -0.76225  -0.70973  -0.70507  -0.70098  -0.69808
 Alpha  occ. eigenvalues --   -0.69734  -0.69461  -0.64346  -0.64169  -0.63985
 Alpha  occ. eigenvalues --   -0.63828  -0.61504  -0.61149  -0.54649  -0.54324
 Alpha  occ. eigenvalues --   -0.52469  -0.52258  -0.52133  -0.51912  -0.47848
 Alpha  occ. eigenvalues --   -0.47710  -0.47307  -0.47114  -0.43627  -0.43222
 Alpha  occ. eigenvalues --   -0.36705  -0.36374  -0.35781  -0.35441
 Alpha virt. eigenvalues --    0.05927   0.06303   0.11867   0.12206   0.17354
 Alpha virt. eigenvalues --    0.17711   0.21952   0.22282   0.27836   0.28167
 Alpha virt. eigenvalues --    0.28876   0.29243   0.31472   0.31799   0.33135

 Mulliken charges:
               1
     1  C   -0.172307
     2  C   -0.218903
     3  C   -0.172086
     4  C    0.158213
     5  C   -0.172455
     6  C   -0.219134
     7  H    0.221683
     8  H    0.219678
     9  H    0.273435
    10  H    0.283352
    11  H    0.220829
    12  N    0.485359
    13  O   -0.438836
    14  O   -0.469764
    15  C   -0.172086
    16  C   -0.218505
    17  C   -0.171851
    18  C    0.159402
    19  C   -0.171378
    20  C   -0.218533
    21  H    0.223063
    22  H    0.220752
    23  H    0.273573
    24  H    0.276915
    25  H    0.221746
    26  N    0.486898
    27  O   -0.445490
    28  O   -0.463574
 Sum of Mulliken charges =  -0.00000

 Dipole moment (field-independent basis, Debye):
    X=              1.1859    Y=             -2.8851    Z=              0.7482  Tot=              3.2078
 Quadrupole moment (field-independent basis, Debye-Ang):
   XX=            -36.8473   YY=           -100.2464   ZZ=           -105.3714
   XY=              7.5384   XZ=             -2.0137   YZ=              1.9990

 Normal termination of Gaussian 16 at Thu May  6 05:04:45 2021.
