 Gaussian 16, Revision A.03,
 Gaussian 16:  EM64L-G16RevA.03 25-Dec-2016

 -------------
 #p 6-31g* mp2
 -------------

 ------------------------------------------------------
 Input file generated by CHIRIPA (05-May-2021 14:57:23)
 ------------------------------------------------------
 Symbolic Z-matrix:
 Charge =  0 Multiplicity = 1

                         Standard orientation:
 ---------------------------------------------------------------------
 Center     Atomic      Atomic             Coordinates (Angstroms)
 Number     Number       Type             X           Y           Z
 ---------------------------------------------------------------------
      1          6           0       -1.121439    0.251248    1.691709
      2          6           0       -1.853300    1.354684    1.240789
      3          6           0       -2.981353    1.176951    0.434281
      4          6           0       -3.350852   -0.124035    0.096350
      5          6           0       -2.642304   -1.243550    0.529865
      6          6           0       -1.517578   -1.042068    1.335436
      7          1           0       -0.246432    0.398540    2.317859
      8          1           0       -1.547982    2.360238    1.515900
      9          1           0       -3.566134    2.013428    0.071299
     10          1           0       -2.971204   -2.233829    0.239021
     11          1           0       -0.951112   -1.900873    1.684169
     12          7           0       -4.543310   -0.324764   -0.756967
     13          8           0       -4.848117   -1.481156   -1.040670
     14          8           0       -5.150572    0.678097   -1.125938
     15          6           0        4.146131   -2.226394   -0.126790
     16          6           0        2.759866   -2.054158   -0.055210
     17          6           0        2.199308   -0.774815   -0.115256
     18          6           0        3.058436    0.314985   -0.247641
     19          6           0        4.443525    0.175885   -0.321588
     20          6           0        4.982063   -1.112786   -0.259517
     21          1           0        4.573033   -3.223841   -0.079358
     22          1           0        2.108240   -2.917177    0.047882
     23          1           0        1.129566   -0.612796   -0.062161
     24          1           0        5.067497    1.055399   -0.424212
     25          1           0        6.059018   -1.243540   -0.315351
     26          7           0        2.476655    1.674305   -0.312280
     27          8           0        3.255161    2.618198   -0.429033
     28          8           0        1.253164    1.770108   -0.244970
 ---------------------------------------------------------------------

 SCF Done:  E(RHF) =  -868.338059782     A.U. after   16 cycles
 E2 =    -0.2601956050D+01 EUMP2 =    -0.87094001583211D+03

 The electronic state is 1-A.
 Alpha  occ. eigenvalues --  -20.61519 -20.61476 -20.60532 -20.60508 -15.86535
 Alpha  occ. eigenvalues --  -15.85576 -11.31802 -11.30888 -11.28358 -11.28299
 Alpha  occ. eigenvalues --  -11.28094 -11.27580 -11.27383 -11.27355 -11.27339
 Alpha  occ. eigenvalues --  -11.27175 -11.26628 -11.26257  -1.60578  -1.59599
 Alpha  occ. eigenvalues --   -1.40133  -1.39154  -1.19975  -1.19071  -1.09390
 Alpha  occ. eigenvalues --   -1.08471  -1.05364  -1.04464  -0.96242  -0.95306
 Alpha  occ. eigenvalues --   -0.86768  -0.85864  -0.83070  -0.82142  -0.78142
 Alpha  occ. eigenvalues --   -0.77197  -0.72775  -0.71909  -0.71797  -0.71075
 Alpha  occ. eigenvalues --   -0.70921  -0.70154  -0.65628  -0.65374  -0.64720
 Alpha  occ. eigenvalues --   -0.64468  -0.62713  -0.61801  -0.55864  -0.54954
 Alpha  occ. eigenvalues --   -0.53704  -0.53535  -0.52677  -0.52549  -0.49518
 Alpha  occ. eigenvalues --   -0.49512  -0.48553  -0.48547  -0.45565  -0.44573
 Alpha  occ. eigenvalues --   -0.37955  -0.37081  -0.36873  -0.36031
 Alpha virt. eigenvalues --    0.04324   0.05376   0.10639   0.11462   0.15873
 Alpha virt. eigenvalues --    0.16853   0.20471   0.21957   0.26045   0.27747
 Alpha virt. eigenvalues --    0.28275   0.28789   0.30247   0.31628   0.32568

 Mulliken charges:
               1
     1  C   -0.165109
     2  C   -0.202595
     3  C   -0.171385
     4  C    0.158175
     5  C   -0.171549
     6  C   -0.233288
     7  H    0.226630
     8  H    0.232710
     9  H    0.277004
    10  H    0.272503
    11  H    0.215432
    12  N    0.488215
    13  O   -0.463276
    14  O   -0.459161
    15  C   -0.169615
    16  C   -0.222362
    17  C   -0.181623
    18  C    0.154905
    19  C   -0.169609
    20  C   -0.218925
    21  H    0.227565
    22  H    0.221871
    23  H    0.286158
    24  H    0.276837
    25  H    0.225566
    26  N    0.489135
    27  O   -0.457669
    28  O   -0.466539
 Sum of Mulliken charges =  -0.00000

 Dipole moment (field-independent basis, Debye):
    X=              6.3640    Y=             -3.7311    Z=              3.2238  Tot=              8.0508
 Quadrupole moment (field-independent basis, Debye-Ang):
   XX=           -116.4811   YY=           -102.6976   ZZ=           -105.9319
   XY=            -16.5557   XZ=            -10.1496   YZ=              0.9002

 Normal termination of Gaussian 16 at Thu May  6 00:14:39 2021.
