 Gaussian 16, Revision A.03,
 Gaussian 16:  EM64L-G16RevA.03 25-Dec-2016

 -------------
 #p 6-31g* mp2
 -------------

 ------------------------------------------------------
 Input file generated by CHIRIPA (05-May-2021 14:55:23)
 ------------------------------------------------------
 Symbolic Z-matrix:
 Charge =  0 Multiplicity = 1

                         Standard orientation:
 ---------------------------------------------------------------------
 Center     Atomic      Atomic             Coordinates (Angstroms)
 Number     Number       Type             X           Y           Z
 ---------------------------------------------------------------------
      1          6           0        1.218456   -2.324520    1.168771
      2          6           0        2.551143   -1.941767    1.353074
      3          6           0        3.103172   -0.904417    0.595634
      4          6           0        2.290244   -0.268645   -0.341507
      5          6           0        0.959046   -0.627004   -0.548343
      6          6           0        0.428055   -1.667076    0.220322
      7          1           0        0.797798   -3.131415    1.761528
      8          1           0        3.167331   -2.450565    2.088928
      9          1           0        4.131885   -0.587819    0.717836
     10          1           0        0.369584   -0.101042   -1.289502
     11          1           0       -0.607242   -1.962201    0.075043
     12          7           0        2.863517    0.830992   -1.149317
     13          8           0        2.126402    1.375264   -1.968502
     14          8           0        4.039109    1.127793   -0.947996
     15          6           0       -3.203179    0.423814   -0.370610
     16          6           0       -3.959933   -0.903650   -0.314499
     17          6           0       -4.740544   -1.193766   -1.596791
     18          1           0       -3.916659    1.237623   -0.559297
     19          1           0       -2.513105    0.408630   -1.225574
     20          1           0       -4.647374   -0.886501    0.540923
     21          1           0       -3.244592   -1.714372   -0.125733
     22          1           0       -4.065153   -1.237855   -2.457318
     23          1           0       -5.475906   -0.405280   -1.786874
     24          1           0       -5.273989   -2.147431   -1.534986
     25          6           0       -2.417972    0.727874    0.904037
     26          6           0       -1.661217    2.055338    0.847926
     27          6           0       -0.880607    2.345455    2.130218
     28          1           0       -3.108046    0.743058    1.759001
     29          1           0       -1.704491   -0.085936    1.092724
     30          1           0       -2.376559    2.866060    0.659160
     31          1           0       -0.973776    2.038188   -0.007496
     32          1           0       -0.145244    1.556968    2.320301
     33          1           0       -1.555998    2.389543    2.990744
     34          1           0       -0.347161    3.299119    2.068412
 ---------------------------------------------------------------------

 SCF Done:  E(RHF) =  -669.534499035     A.U. after   15 cycles
 E2 =    -0.2094727890D+01 EUMP2 =    -0.67162922692566D+03

 The electronic state is 1-A.
 Alpha  occ. eigenvalues --  -20.60845 -20.60839 -15.85894 -11.31280 -11.27849
 Alpha  occ. eigenvalues --  -11.27833 -11.27578 -11.26855 -11.26838 -11.22375
 Alpha  occ. eigenvalues --  -11.21988 -11.21774 -11.21714 -11.21641 -11.21131
 Alpha  occ. eigenvalues --   -1.59915  -1.39468  -1.19457  -1.08949  -1.08831
 Alpha  occ. eigenvalues --   -1.04866  -1.03935  -0.96380  -0.95672  -0.87394
 Alpha  occ. eigenvalues --   -0.86261  -0.82515  -0.80035  -0.78725  -0.77559
 Alpha  occ. eigenvalues --   -0.72111  -0.71236  -0.70557  -0.65743  -0.65085
 Alpha  occ. eigenvalues --   -0.64821  -0.62157  -0.61355  -0.59754  -0.57978
 Alpha  occ. eigenvalues --   -0.55686  -0.55334  -0.53202  -0.53100  -0.52940
 Alpha  occ. eigenvalues --   -0.52761  -0.50341  -0.48875  -0.48867  -0.48328
 Alpha  occ. eigenvalues --   -0.47107  -0.46228  -0.46147  -0.44863  -0.44204
 Alpha  occ. eigenvalues --   -0.37417  -0.36385
 Alpha virt. eigenvalues --    0.04956   0.11063   0.16352   0.18683   0.23176
 Alpha virt. eigenvalues --    0.23393   0.24931   0.25351   0.27251   0.28603
 Alpha virt. eigenvalues --    0.29931   0.30935   0.31396   0.31440   0.32407

 Mulliken charges:
               1
     1  C   -0.173708
     2  C   -0.218365
     3  C   -0.170682
     4  C    0.158885
     5  C   -0.172370
     6  C   -0.223269
     7  H    0.226733
     8  H    0.223986
     9  H    0.276009
    10  H    0.277983
    11  H    0.231546
    12  N    0.488454
    13  O   -0.460890
    14  O   -0.459748
    15  C   -0.301388
    16  C   -0.301373
    17  C   -0.475734
    18  H    0.155699
    19  H    0.145924
    20  H    0.155683
    21  H    0.141588
    22  H    0.155760
    23  H    0.159065
    24  H    0.161178
    25  C   -0.305677
    26  C   -0.302027
    27  C   -0.477408
    28  H    0.150525
    29  H    0.148598
    30  H    0.154095
    31  H    0.157035
    32  H    0.155645
    33  H    0.153573
    34  H    0.164677
 Sum of Mulliken charges =  -0.00000

 Dipole moment (field-independent basis, Debye):
    X=             -2.0248    Y=             -3.7890    Z=              2.8416  Tot=              5.1509
 Quadrupole moment (field-independent basis, Debye-Ang):
   XX=            -99.4474   YY=            -92.9934   ZZ=            -96.8236
   XY=             -9.8022   XZ=              8.9910   YZ=              0.0397

 Normal termination of Gaussian 16 at Thu May  6 04:43:36 2021.
