 Gaussian 16, Revision A.03,
 Gaussian 16:  EM64L-G16RevA.03 25-Dec-2016

 -------------
 #p 6-31g* mp2
 -------------

 ------------------------------------------------------
 Input file generated by CHIRIPA (05-May-2021 14:55:25)
 ------------------------------------------------------
 Symbolic Z-matrix:
 Charge =  0 Multiplicity = 1

                         Standard orientation:
 ---------------------------------------------------------------------
 Center     Atomic      Atomic             Coordinates (Angstroms)
 Number     Number       Type             X           Y           Z
 ---------------------------------------------------------------------
      1          6           0        3.211377    2.128786    0.846094
      2          6           0        2.690926    1.175855    1.727895
      3          6           0        2.214752   -0.048605    1.249874
      4          6           0        2.274466   -0.288036   -0.122131
      5          6           0        2.787229    0.641202   -1.025945
      6          6           0        3.257786    1.858894   -0.525594
      7          1           0        3.579099    3.077347    1.226105
      8          1           0        2.653638    1.382731    2.793661
      9          1           0        1.806740   -0.804148    1.910252
     10          1           0        2.811267    0.406259   -2.083130
     11          1           0        3.661441    2.597086   -1.212748
     12          7           0        1.773335   -1.580734   -0.640010
     13          8           0        1.837031   -1.767426   -1.853157
     14          8           0        1.326342   -2.382782    0.177030
     15          6           0       -3.084176   -0.515648    0.499664
     16          6           0       -2.443671   -1.775313   -0.084275
     17          6           0       -2.586221   -2.990459    0.832727
     18          1           0       -2.626287   -0.297160    1.474110
     19          1           0       -4.148812   -0.708980    0.690884
     20          1           0       -1.380869   -1.579222   -0.275628
     21          1           0       -2.903004   -1.990719   -1.057533
     22          1           0       -3.642412   -3.214136    1.014472
     23          1           0       -2.111628   -2.800300    1.800819
     24          1           0       -2.121384   -3.879810    0.395873
     25          6           0       -2.949894    0.707607   -0.405512
     26          6           0       -3.590398    1.967272    0.178427
     27          6           0       -3.447849    3.182417   -0.738576
     28          1           0       -1.885257    0.900939   -0.596734
     29          1           0       -3.407782    0.489118   -1.379959
     30          1           0       -3.131065    2.182678    1.151684
     31          1           0       -4.653200    1.771180    0.369779
     32          1           0       -3.922441    2.992259   -1.706668
     33          1           0       -2.391658    3.406094   -0.920320
     34          1           0       -3.912685    4.071769   -0.301723
 ---------------------------------------------------------------------

 SCF Done:  E(RHF) =  -669.535987203     A.U. after   15 cycles
 E2 =    -0.2091769964D+01 EUMP2 =    -0.67162775716782D+03

 The electronic state is 1-A.
 Alpha  occ. eigenvalues --  -20.60961 -20.60950 -15.85979 -11.31317 -11.27879
 Alpha  occ. eigenvalues --  -11.27872 -11.27611 -11.26882 -11.26872 -11.21425
 Alpha  occ. eigenvalues --  -11.21043 -11.20996 -11.20841 -11.20637 -11.20075
 Alpha  occ. eigenvalues --   -1.60020  -1.39573  -1.19483  -1.08885  -1.07959
 Alpha  occ. eigenvalues --   -1.04877  -1.02982  -0.95726  -0.95454  -0.86482
 Alpha  occ. eigenvalues --   -0.86277  -0.82556  -0.79091  -0.77725  -0.77608
 Alpha  occ. eigenvalues --   -0.72201  -0.71347  -0.70587  -0.65136  -0.64878
 Alpha  occ. eigenvalues --   -0.64596  -0.62223  -0.60379  -0.58861  -0.57029
 Alpha  occ. eigenvalues --   -0.55379  -0.54764  -0.53209  -0.52967  -0.52131
 Alpha  occ. eigenvalues --   -0.51885  -0.49436  -0.48970  -0.48960  -0.47398
 Alpha  occ. eigenvalues --   -0.46174  -0.45395  -0.45256  -0.44694  -0.43250
 Alpha  occ. eigenvalues --   -0.37461  -0.36479
 Alpha virt. eigenvalues --    0.04897   0.11170   0.16367   0.21284   0.23196
 Alpha virt. eigenvalues --    0.24802   0.26879   0.27260   0.27835   0.28206
 Alpha virt. eigenvalues --    0.28569   0.30804   0.31815   0.32149   0.32529

 Mulliken charges:
               1
     1  C   -0.170567
     2  C   -0.218576
     3  C   -0.171289
     4  C    0.157606
     5  C   -0.170852
     6  C   -0.218626
     7  H    0.226182
     8  H    0.223955
     9  H    0.275874
    10  H    0.276103
    11  H    0.224038
    12  N    0.486996
    13  O   -0.458189
    14  O   -0.458078
    15  C   -0.297977
    16  C   -0.301806
    17  C   -0.471935
    18  H    0.144782
    19  H    0.147557
    20  H    0.160679
    21  H    0.150575
    22  H    0.148233
    23  H    0.151774
    24  H    0.168928
    25  C   -0.297036
    26  C   -0.298669
    27  C   -0.475146
    28  H    0.146383
    29  H    0.150724
    30  H    0.149011
    31  H    0.152133
    32  H    0.155966
    33  H    0.152745
    34  H    0.158503
 Sum of Mulliken charges =  -0.00000

 Dipole moment (field-independent basis, Debye):
    X=              1.9619    Y=              4.4399    Z=              1.7610  Tot=              5.1636
 Quadrupole moment (field-independent basis, Debye-Ang):
   XX=            -86.8832   YY=            -98.3645   ZZ=            -91.0838
   XY=             10.7896   XZ=              3.3457   YZ=             -1.7991

 Normal termination of Gaussian 16 at Wed May  5 19:12:48 2021.
