 Gaussian 16, Revision A.03,
 Gaussian 16:  EM64L-G16RevA.03 25-Dec-2016

 -------------
 #p 6-31g* mp2
 -------------

 ------------------------------------------------------
 Input file generated by CHIRIPA (05-May-2021 14:57:21)
 ------------------------------------------------------
 Symbolic Z-matrix:
 Charge =  0 Multiplicity = 1

                         Standard orientation:
 ---------------------------------------------------------------------
 Center     Atomic      Atomic             Coordinates (Angstroms)
 Number     Number       Type             X           Y           Z
 ---------------------------------------------------------------------
      1          6           0       -2.033850    1.161585    0.213277
      2          6           0       -3.202403    1.914366    0.057310
      3          6           0       -4.437452    1.281430   -0.111792
      4          6           0       -4.467484   -0.112241   -0.120013
      5          6           0       -3.320717   -0.889946    0.032931
      6          6           0       -2.096626   -0.235705    0.200612
      7          1           0       -1.078691    1.661541    0.344088
      8          1           0       -3.156658    2.999661    0.066739
      9          1           0       -5.357541    1.839775   -0.234699
     10          1           0       -3.398005   -1.970343    0.019246
     11          1           0       -1.190730   -0.822885    0.321512
     12          7           0       -5.769174   -0.793580   -0.298281
     13          8           0       -5.768881   -2.022654   -0.301906
     14          8           0       -6.765085   -0.085637   -0.431008
     15          6           0        2.083983    0.800308    1.101042
     16          6           0        2.646337   -0.410255    1.519150
     17          6           0        3.847738   -0.863518    0.966218
     18          6           0        4.462637   -0.077427   -0.007051
     19          6           0        3.927322    1.133098   -0.444495
     20          6           0        2.725140    1.566770    0.122280
     21          1           0        1.150401    1.144805    1.535949
     22          1           0        2.150616   -1.007575    2.279094
     23          1           0        4.305130   -1.796804    1.271486
     24          1           0        4.444776    1.706661   -1.203893
     25          1           0        2.290718    2.507317   -0.204359
     26          7           0        5.734921   -0.546907   -0.599742
     27          8           0        6.256980    0.164108   -1.455633
     28          8           0        6.185987   -1.617010   -0.197180
 ---------------------------------------------------------------------

 SCF Done:  E(RHF) =  -868.336518087     A.U. after   16 cycles
 E2 =    -0.2600118660D+01 EUMP2 =    -0.87093663674725D+03

 The electronic state is 1-A.
 Alpha  occ. eigenvalues --  -20.61428 -20.61423 -20.61269 -20.61264 -15.86487
 Alpha  occ. eigenvalues --  -15.86327 -11.32058 -11.31840 -11.28630 -11.28619
 Alpha  occ. eigenvalues --  -11.28546 -11.28411 -11.28401 -11.28311 -11.27769
 Alpha  occ. eigenvalues --  -11.27739 -11.27515 -11.27497  -1.60498  -1.60341
 Alpha  occ. eigenvalues --   -1.40046  -1.39890  -1.20259  -1.20034  -1.09652
 Alpha  occ. eigenvalues --   -1.09428  -1.05679  -1.05449  -0.96451  -0.96230
 Alpha  occ. eigenvalues --   -0.87086  -0.86856  -0.83263  -0.83050  -0.78242
 Alpha  occ. eigenvalues --   -0.78052  -0.72703  -0.72544  -0.71823  -0.71665
 Alpha  occ. eigenvalues --   -0.71631  -0.71043  -0.65921  -0.65718  -0.65686
 Alpha  occ. eigenvalues --   -0.65452  -0.63008  -0.62784  -0.56480  -0.55849
 Alpha  occ. eigenvalues --   -0.54009  -0.53780  -0.53777  -0.53546  -0.49479
 Alpha  occ. eigenvalues --   -0.49444  -0.49315  -0.49288  -0.45405  -0.45262
 Alpha  occ. eigenvalues --   -0.38302  -0.38064  -0.37268  -0.37040
 Alpha virt. eigenvalues --    0.04245   0.04462   0.10312   0.10591   0.15534
 Alpha virt. eigenvalues --    0.15878   0.18129   0.22015   0.24873   0.25831
 Alpha virt. eigenvalues --    0.27147   0.29499   0.29649   0.30834   0.32328

 Mulliken charges:
               1
     1  C   -0.173142
     2  C   -0.217766
     3  C   -0.170133
     4  C    0.159529
     5  C   -0.170079
     6  C   -0.219522
     7  H    0.216585
     8  H    0.224254
     9  H    0.277710
    10  H    0.277685
    11  H    0.222559
    12  N    0.487899
    13  O   -0.458644
    14  O   -0.458630
    15  C   -0.178421
    16  C   -0.220113
    17  C   -0.169758
    18  C    0.159921
    19  C   -0.169640
    20  C   -0.217866
    21  H    0.220956
    22  H    0.225434
    23  H    0.278732
    24  H    0.278523
    25  H    0.221894
    26  N    0.487874
    27  O   -0.458019
    28  O   -0.457821
 Sum of Mulliken charges =  -0.00000

 Dipole moment (field-independent basis, Debye):
    X=              0.1919    Y=              3.9396    Z=              2.6336  Tot=              4.7427
 Quadrupole moment (field-independent basis, Debye-Ang):
   XX=           -183.7192   YY=            -98.5969   ZZ=           -104.7282
   XY=             -5.8083   XZ=              6.0633   YZ=             -3.7375

 Normal termination of Gaussian 16 at Thu May  6 09:38:38 2021.
