 Gaussian 16, Revision A.03,
 Gaussian 16:  EM64L-G16RevA.03 25-Dec-2016

 -------------
 #p 6-31g* mp2
 -------------

 ------------------------------------------------------
 Input file generated by CHIRIPA (05-May-2021 14:55:22)
 ------------------------------------------------------
 Symbolic Z-matrix:
 Charge =  0 Multiplicity = 1

                         Standard orientation:
 ---------------------------------------------------------------------
 Center     Atomic      Atomic             Coordinates (Angstroms)
 Number     Number       Type             X           Y           Z
 ---------------------------------------------------------------------
      1          6           0       -2.601104    2.213826    0.123002
      2          6           0       -1.648651    1.482859    0.840666
      3          6           0       -1.667536    0.085014    0.825813
      4          6           0       -2.657442   -0.552256    0.079313
      5          6           0       -3.620106    0.148030   -0.646061
      6          6           0       -3.582062    1.545257   -0.616767
      7          1           0       -2.578993    3.299465    0.140149
      8          1           0       -0.885665    1.999411    1.416054
      9          1           0       -0.942276   -0.505577    1.372274
     10          1           0       -4.368454   -0.395002   -1.210427
     11          1           0       -4.323018    2.110346   -1.175071
     12          7           0       -2.687576   -2.031764    0.055945
     13          8           0       -3.570013   -2.569469   -0.609498
     14          8           0       -1.828186   -2.625684    0.703515
     15          6           0        3.759195   -0.170974    0.255280
     16          6           0        4.595985   -1.047446   -0.677225
     17          6           0        5.318189   -2.174830    0.061166
     18          1           0        4.410790    0.254959    1.030491
     19          1           0        3.023655   -0.799654    0.775988
     20          1           0        5.328809   -0.417077   -1.197050
     21          1           0        3.942357   -1.471188   -1.450420
     22          1           0        4.598694   -2.827500    0.566092
     23          1           0        5.993024   -1.767399    0.820901
     24          1           0        5.910391   -2.788958   -0.624400
     25          6           0        3.031142    0.960516   -0.468180
     26          6           0        2.194353    1.836988    0.464324
     27          6           0        1.472149    2.964372   -0.274067
     28          1           0        3.766682    1.589196   -0.988888
     29          1           0        2.379548    0.534584   -1.243392
     30          1           0        2.847981    2.260730    1.237519
     31          1           0        1.461527    1.206619    0.984149
     32          1           0        0.797313    2.556941   -1.033801
     33          1           0        2.191644    3.617042   -0.778993
     34          1           0        0.879945    3.578500    0.411500
 ---------------------------------------------------------------------

 SCF Done:  E(RHF) =  -669.534886746     A.U. after   15 cycles
 E2 =    -0.2092808715D+01 EUMP2 =    -0.67162769546132D+03

 The electronic state is 1-A.
 Alpha  occ. eigenvalues --  -20.60786 -20.60781 -15.85838 -11.31198 -11.27754
 Alpha  occ. eigenvalues --  -11.27747 -11.27477 -11.26776 -11.26718 -11.22349
 Alpha  occ. eigenvalues --  -11.21889 -11.21807 -11.21699 -11.21606 -11.21059
 Alpha  occ. eigenvalues --   -1.59861  -1.39415  -1.19365  -1.08831  -1.08742
 Alpha  occ. eigenvalues --   -1.04777  -1.03927  -0.96379  -0.95594  -0.87402
 Alpha  occ. eigenvalues --   -0.86152  -0.82433  -0.80032  -0.78579  -0.77481
 Alpha  occ. eigenvalues --   -0.72056  -0.71185  -0.70466  -0.65506  -0.65010
 Alpha  occ. eigenvalues --   -0.64769  -0.62238  -0.61224  -0.59771  -0.57973
 Alpha  occ. eigenvalues --   -0.55663  -0.55239  -0.53170  -0.53052  -0.52895
 Alpha  occ. eigenvalues --   -0.52661  -0.50299  -0.48814  -0.48811  -0.48338
 Alpha  occ. eigenvalues --   -0.47058  -0.46124  -0.46008  -0.44822  -0.44181
 Alpha  occ. eigenvalues --   -0.37325  -0.36339
 Alpha virt. eigenvalues --    0.05029   0.11245   0.16446   0.19861   0.22831
 Alpha virt. eigenvalues --    0.24124   0.25052   0.26242   0.26730   0.28669
 Alpha virt. eigenvalues --    0.29084   0.30460   0.30929   0.31259   0.32159

 Mulliken charges:
               1
     1  C   -0.172582
     2  C   -0.215452
     3  C   -0.173984
     4  C    0.158379
     5  C   -0.171375
     6  C   -0.218620
     7  H    0.226039
     8  H    0.228607
     9  H    0.275000
    10  H    0.275533
    11  H    0.223506
    12  N    0.488149
    13  O   -0.460319
    14  O   -0.460803
    15  C   -0.299246
    16  C   -0.300225
    17  C   -0.476519
    18  H    0.149352
    19  H    0.151349
    20  H    0.151324
    21  H    0.154687
    22  H    0.158498
    23  H    0.154298
    24  H    0.161376
    25  C   -0.298797
    26  C   -0.301854
    27  C   -0.478523
    28  H    0.151005
    29  H    0.153208
    30  H    0.154164
    31  H    0.144091
    32  H    0.161478
    33  H    0.159768
    34  H    0.148489
 Sum of Mulliken charges =  -0.00000

 Dipole moment (field-independent basis, Debye):
    X=              0.2070    Y=              5.1632    Z=             -0.0075  Tot=              5.1673
 Quadrupole moment (field-independent basis, Debye-Ang):
   XX=            -91.6922   YY=           -101.6255   ZZ=            -93.6372
   XY=            -13.3870   XZ=              2.3393   YZ=              0.5700

 Normal termination of Gaussian 16 at Thu May  6 09:25:07 2021.
