 Gaussian 16, Revision A.03,
 Gaussian 16:  EM64L-G16RevA.03 25-Dec-2016

 -------------
 #p 6-31g* mp2
 -------------

 ------------------------------------------------------
 Input file generated by CHIRIPA (05-May-2021 14:51:12)
 ------------------------------------------------------
 Symbolic Z-matrix:
 Charge =  0 Multiplicity = 1

                         Standard orientation:
 ---------------------------------------------------------------------
 Center     Atomic      Atomic             Coordinates (Angstroms)
 Number     Number       Type             X           Y           Z
 ---------------------------------------------------------------------
      1          6           0        2.893683    1.486585   -0.146536
      2          6           0        1.651456    2.049700    0.544664
      3          6           0        1.509106    3.561403    0.364985
      4          1           0        3.786035    1.990036    0.249938
      5          1           0        2.849290    1.726864   -1.217839
      6          1           0        1.697503    1.807231    1.614105
      7          1           0        0.761973    1.544715    0.146635
      8          1           0        1.437816    3.818115   -0.696909
      9          1           0        2.378662    4.082122    0.778899
     10          1           0        0.614531    3.942894    0.867042
     11          6           0        3.049786   -0.023464    0.024080
     12          6           0        4.292013   -0.586579   -0.667120
     13          6           0        4.434363   -2.098282   -0.487441
     14          1           0        3.094179   -0.263743    1.095383
     15          1           0        2.157434   -0.526915   -0.372395
     16          1           0        5.181496   -0.081594   -0.269091
     17          1           0        4.245966   -0.344110   -1.736561
     18          1           0        3.564807   -2.619001   -0.901356
     19          1           0        4.505653   -2.354994    0.574452
     20          1           0        5.328938   -2.479773   -0.989499
     21          6           0       -3.561150   -0.297982    0.280389
     22          6           0       -4.404698    0.213921   -0.887673
     23          6           0       -5.580070    1.079809   -0.433214
     24          1           0       -4.201478   -0.874797    0.961717
     25          1           0       -3.185245    0.559473    0.855593
     26          1           0       -4.777758   -0.644207   -1.461309
     27          1           0       -3.762248    0.789423   -1.566400
     28          1           0       -5.223003    1.953966    0.120819
     29          1           0       -6.244283    0.512191    0.226507
     30          1           0       -6.169630    1.435047   -1.284147
     31          6           0       -2.382319   -1.165139   -0.157932
     32          6           0       -1.538771   -1.677042    1.010129
     33          6           0       -0.363399   -2.542930    0.555670
     34          1           0       -2.758223   -2.022594   -0.733137
     35          1           0       -1.741990   -0.588324   -0.839261
     36          1           0       -2.181221   -2.252543    1.688856
     37          1           0       -1.165711   -0.818914    1.583766
     38          1           0        0.300815   -1.975312   -0.104051
     39          1           0       -0.720466   -3.417087    0.001638
     40          1           0        0.226161   -2.898167    1.406603
 ---------------------------------------------------------------------

 SCF Done:  E(RHF) =  -470.733287970     A.U. after   11 cycles
 E2 =    -0.1583169773D+01 EUMP2 =    -0.47231645774292D+03

 The electronic state is 1-A.
 Alpha  occ. eigenvalues --  -11.21666 -11.21607 -11.21602 -11.21579 -11.21427
 Alpha  occ. eigenvalues --  -11.21413 -11.21358 -11.21353 -11.21123 -11.21074
 Alpha  occ. eigenvalues --  -11.21048 -11.21024  -1.08465  -1.08423  -1.03554
 Alpha  occ. eigenvalues --   -1.03520  -0.96008  -0.95962  -0.87031  -0.86973
 Alpha  occ. eigenvalues --   -0.79644  -0.79560  -0.78296  -0.78221  -0.65179
 Alpha  occ. eigenvalues --   -0.64984  -0.60967  -0.60909  -0.59370  -0.59336
 Alpha  occ. eigenvalues --   -0.57634  -0.57564  -0.55383  -0.55180  -0.52697
 Alpha  occ. eigenvalues --   -0.52658  -0.52467  -0.52361  -0.50052  -0.49831
 Alpha  occ. eigenvalues --   -0.47954  -0.47904  -0.46735  -0.46586  -0.45938
 Alpha  occ. eigenvalues --   -0.45770  -0.45719  -0.45455  -0.43807  -0.43778
 Alpha virt. eigenvalues --    0.20152   0.23032   0.23879   0.24200   0.25739
 Alpha virt. eigenvalues --    0.26629   0.27329   0.27656   0.27943   0.29323
 Alpha virt. eigenvalues --    0.31053   0.31493   0.31738   0.31854   0.32236

 Mulliken charges:
               1
     1  C   -0.297834
     2  C   -0.300823
     3  C   -0.475681
     4  H    0.149941
     5  H    0.149356
     6  H    0.152197
     7  H    0.151711
     8  H    0.155275
     9  H    0.155580
    10  H    0.160116
    11  C   -0.304785
    12  C   -0.299275
    13  C   -0.476103
    14  H    0.149744
    15  H    0.156221
    16  H    0.151894
    17  H    0.151641
    18  H    0.156163
    19  H    0.155220
    20  H    0.160129
    21  C   -0.298347
    22  C   -0.299633
    23  C   -0.475708
    24  H    0.149761
    25  H    0.149719
    26  H    0.151911
    27  H    0.151778
    28  H    0.155237
    29  H    0.155206
    30  H    0.160254
    31  C   -0.298648
    32  C   -0.300397
    33  C   -0.480414
    34  H    0.149595
    35  H    0.148814
    36  H    0.151860
    37  H    0.153347
    38  H    0.159625
    39  H    0.154651
    40  H    0.160701
 Sum of Mulliken charges =  -0.00000

 Dipole moment (field-independent basis, Debye):
    X=              0.0180    Y=             -0.0012    Z=              0.0122  Tot=              0.0218
 Quadrupole moment (field-independent basis, Debye-Ang):
   XX=            -84.9720   YY=            -85.6665   ZZ=            -84.0734
   XY=              1.4109   XZ=              0.5830   YZ=              0.0139

 Normal termination of Gaussian 16 at Thu May  6 02:18:36 2021.
