 Gaussian 16, Revision A.03,
 Gaussian 16:  EM64L-G16RevA.03 25-Dec-2016

 -------------
 #p 6-31g* mp2
 -------------

 ------------------------------------------------------
 Input file generated by CHIRIPA (05-May-2021 14:57:27)
 ------------------------------------------------------
 Symbolic Z-matrix:
 Charge =  0 Multiplicity = 1

                         Standard orientation:
 ---------------------------------------------------------------------
 Center     Atomic      Atomic             Coordinates (Angstroms)
 Number     Number       Type             X           Y           Z
 ---------------------------------------------------------------------
      1          6           0        1.506797    2.390688   -0.793540
      2          6           0        0.706362    1.265111   -0.572406
      3          6           0        1.282290    0.045534   -0.204319
      4          6           0        2.668167   -0.013017   -0.065729
      5          6           0        3.492456    1.090759   -0.279076
      6          6           0        2.894842    2.300080   -0.646429
      7          1           0        1.050979    3.334101   -1.079194
      8          1           0       -0.371883    1.332545   -0.685916
      9          1           0        0.686265   -0.841438   -0.026970
     10          1           0        4.564446    0.992620   -0.158147
     11          1           0        3.518948    3.172584   -0.817520
     12          7           0        3.289355   -1.298699    0.323559
     13          8           0        4.512728   -1.324180    0.439091
     14          8           0        2.541108   -2.256592    0.505780
     15          6           0       -2.664684    2.137091    1.078248
     16          6           0       -3.113129    1.890534   -0.223531
     17          6           0       -3.063048    0.600187   -0.759295
     18          6           0       -2.556227   -0.424712    0.038205
     19          6           0       -2.101851   -0.210835    1.338623
     20          6           0       -2.161364    1.087470    1.853804
     21          1           0       -2.707252    3.142555    1.486447
     22          1           0       -3.504509    2.703754   -0.828131
     23          1           0       -3.403531    0.381274   -1.764067
     24          1           0       -1.716918   -1.041827    1.917154
     25          1           0       -1.812395    1.276010    2.865098
     26          7           0       -2.498216   -1.794958   -0.518089
     27          8           0       -2.047303   -2.680727    0.204910
     28          8           0       -2.904757   -1.957240   -1.666577
 ---------------------------------------------------------------------

 SCF Done:  E(RHF) =  -868.335523152     A.U. after   16 cycles
 E2 =    -0.2605823385D+01 EUMP2 =    -0.87094134653682D+03

 The electronic state is 1-A.
 Alpha  occ. eigenvalues --  -20.61557 -20.61512 -20.60519 -20.60489 -15.86575
 Alpha  occ. eigenvalues --  -15.85556 -11.32249 -11.31017 -11.28836 -11.28749
 Alpha  occ. eigenvalues --  -11.28554 -11.27896 -11.27785 -11.27584 -11.27491
 Alpha  occ. eigenvalues --  -11.27347 -11.26674 -11.26425  -1.60603  -1.59585
 Alpha  occ. eigenvalues --   -1.40140  -1.39132  -1.20499  -1.19178  -1.09780
 Alpha  occ. eigenvalues --   -1.08573  -1.05865  -1.04587  -0.96550  -0.95396
 Alpha  occ. eigenvalues --   -0.87217  -0.85990  -0.83339  -0.82224  -0.78359
 Alpha  occ. eigenvalues --   -0.77267  -0.72760  -0.71982  -0.71760  -0.71463
 Alpha  occ. eigenvalues --   -0.70916  -0.70313  -0.66045  -0.65779  -0.64830
 Alpha  occ. eigenvalues --   -0.64671  -0.63146  -0.62048  -0.56285  -0.55292
 Alpha  occ. eigenvalues --   -0.54261  -0.53870  -0.52930  -0.52241  -0.49559
 Alpha  occ. eigenvalues --   -0.49519  -0.48536  -0.48520  -0.45447  -0.44517
 Alpha  occ. eigenvalues --   -0.38535  -0.37690  -0.37172  -0.35985
 Alpha virt. eigenvalues --    0.04073   0.05302   0.10052   0.11479   0.15551
 Alpha virt. eigenvalues --    0.16754   0.20493   0.21785   0.26374   0.27111
 Alpha virt. eigenvalues --    0.27798   0.28273   0.30311   0.31355   0.31672

 Mulliken charges:
               1
     1  C   -0.177779
     2  C   -0.220623
     3  C   -0.181383
     4  C    0.158763
     5  C   -0.172690
     6  C   -0.218202
     7  H    0.220234
     8  H    0.235133
     9  H    0.277709
    10  H    0.274779
    11  H    0.221416
    12  N    0.487226
    13  O   -0.462372
    14  O   -0.455451
    15  C   -0.173746
    16  C   -0.225854
    17  C   -0.181677
    18  C    0.154106
    19  C   -0.177303
    20  C   -0.212832
    21  H    0.229298
    22  H    0.226965
    23  H    0.280065
    24  H    0.284472
    25  H    0.230395
    26  N    0.487100
    27  O   -0.451539
    28  O   -0.456210
 Sum of Mulliken charges =  -0.00000

 Dipole moment (field-independent basis, Debye):
    X=             -2.7537    Y=              9.1210    Z=              0.7669  Tot=              9.5585
 Quadrupole moment (field-independent basis, Debye-Ang):
   XX=           -111.1140   YY=           -108.4585   ZZ=           -101.4161
   XY=              1.1575   XZ=             -7.0167   YZ=             -2.4252

 Normal termination of Gaussian 16 at Fri May  7 05:07:08 2021.
