 Gaussian 16, Revision A.03,
 Gaussian 16:  EM64L-G16RevA.03 25-Dec-2016

 -------------
 #p 6-31g* mp2
 -------------

 ------------------------------------------------------
 Input file generated by CHIRIPA (05-May-2021 14:55:25)
 ------------------------------------------------------
 Symbolic Z-matrix:
 Charge =  0 Multiplicity = 1

                         Standard orientation:
 ---------------------------------------------------------------------
 Center     Atomic      Atomic             Coordinates (Angstroms)
 Number     Number       Type             X           Y           Z
 ---------------------------------------------------------------------
      1          6           0       -1.627029    1.977757    0.075600
      2          6           0       -1.270902    0.909555   -0.754242
      3          6           0       -2.062192   -0.241728   -0.808624
      4          6           0       -3.208022   -0.291233   -0.016216
      5          6           0       -3.589354    0.756445    0.820591
      6          6           0       -2.783080    1.897934    0.858987
      7          1           0       -1.006516    2.868297    0.111637
      8          1           0       -0.373650    0.968769   -1.363731
      9          1           0       -1.809885   -1.083340   -1.442225
     10          1           0       -4.489599    0.668157    1.416562
     11          1           0       -3.062104    2.725979    1.504380
     12          7           0       -4.053657   -1.504860   -0.065326
     13          8           0       -5.058222   -1.523771    0.642578
     14          8           0       -3.695888   -2.414210   -0.810794
     15          6           0        3.552979    0.726359    0.277352
     16          6           0        2.731230    1.448563   -0.790889
     17          6           0        1.986994    2.665966   -0.241491
     18          1           0        2.887471    0.413481    1.093533
     19          1           0        4.273634    1.431319    0.714482
     20          1           0        2.013280    0.742087   -1.226841
     21          1           0        3.398740    1.759591   -1.604712
     22          1           0        2.691806    3.392187    0.176173
     23          1           0        1.298475    2.368902    0.556190
     24          1           0        1.406016    3.167211   -1.021924
     25          6           0        4.302769   -0.492854   -0.256559
     26          6           0        5.124518   -1.215058    0.811681
     27          6           0        5.868754   -2.432460    0.262283
     28          1           0        3.582114   -1.197814   -0.693689
     29          1           0        4.968277   -0.179975   -1.072740
     30          1           0        4.457009   -1.526086    1.625504
     31          1           0        5.842469   -0.508582    1.247633
     32          1           0        6.557274   -2.135397   -0.535399
     33          1           0        5.163942   -3.158682   -0.155381
     34          1           0        6.449732   -2.933706    1.042716
 ---------------------------------------------------------------------

 SCF Done:  E(RHF) =  -669.534372430     A.U. after   15 cycles
 E2 =    -0.2092831992D+01 EUMP2 =    -0.67162720442188D+03

 The electronic state is 1-A.
 Alpha  occ. eigenvalues --  -20.60730 -20.60725 -15.85782 -11.31133 -11.27702
 Alpha  occ. eigenvalues --  -11.27696 -11.27352 -11.26694 -11.26652 -11.22745
 Alpha  occ. eigenvalues --  -11.22399 -11.22179 -11.22052 -11.21965 -11.21405
 Alpha  occ. eigenvalues --   -1.59806  -1.39360  -1.19301  -1.09202  -1.08689
 Alpha  occ. eigenvalues --   -1.04713  -1.04329  -0.96806  -0.95524  -0.87827
 Alpha  occ. eigenvalues --   -0.86093  -0.82375  -0.80433  -0.78938  -0.77425
 Alpha  occ. eigenvalues --   -0.72001  -0.71129  -0.70425  -0.65919  -0.64946
 Alpha  occ. eigenvalues --   -0.64706  -0.62210  -0.61534  -0.60192  -0.58370
 Alpha  occ. eigenvalues --   -0.56129  -0.55188  -0.53470  -0.53242  -0.52988
 Alpha  occ. eigenvalues --   -0.52780  -0.50687  -0.48768  -0.48757  -0.48718
 Alpha  occ. eigenvalues --   -0.47423  -0.46488  -0.46366  -0.44769  -0.44562
 Alpha  occ. eigenvalues --   -0.37249  -0.36308
 Alpha virt. eigenvalues --    0.05087   0.11256   0.16514   0.19942   0.22606
 Alpha virt. eigenvalues --    0.23960   0.25419   0.26248   0.26473   0.28035
 Alpha virt. eigenvalues --    0.29292   0.29867   0.30635   0.31301   0.32015

 Mulliken charges:
               1
     1  C   -0.175181
     2  C   -0.223452
     3  C   -0.172603
     4  C    0.158462
     5  C   -0.171002
     6  C   -0.219630
     7  H    0.231192
     8  H    0.231408
     9  H    0.275121
    10  H    0.275289
    11  H    0.223244
    12  N    0.488068
    13  O   -0.460611
    14  O   -0.460720
    15  C   -0.299246
    16  C   -0.302528
    17  C   -0.487620
    18  H    0.152755
    19  H    0.151900
    20  H    0.147007
    21  H    0.157072
    22  H    0.163125
    23  H    0.157857
    24  H    0.154748
    25  C   -0.299195
    26  C   -0.300438
    27  C   -0.476286
    28  H    0.150245
    29  H    0.150712
    30  H    0.153594
    31  H    0.152478
    32  H    0.155524
    33  H    0.156614
    34  H    0.162097
 Sum of Mulliken charges =  -0.00000

 Dipole moment (field-independent basis, Debye):
    X=              3.2301    Y=              4.2589    Z=              0.2345  Tot=              5.3503
 Quadrupole moment (field-independent basis, Debye-Ang):
   XX=           -111.3180   YY=            -97.3828   ZZ=            -93.0779
   XY=            -15.1820   XZ=             -2.9491   YZ=              1.1966

 Normal termination of Gaussian 16 at Thu May  6 14:22:36 2021.
