 Gaussian 16, Revision A.03,
 Gaussian 16:  EM64L-G16RevA.03 25-Dec-2016

 -------------
 #p 6-31g* mp2
 -------------

 ------------------------------------------------------
 Input file generated by CHIRIPA (05-May-2021 14:57:21)
 ------------------------------------------------------
 Symbolic Z-matrix:
 Charge =  0 Multiplicity = 1

                         Standard orientation:
 ---------------------------------------------------------------------
 Center     Atomic      Atomic             Coordinates (Angstroms)
 Number     Number       Type             X           Y           Z
 ---------------------------------------------------------------------
      1          6           0        2.308222   -2.257255    0.576140
      2          6           0        3.029151   -1.591079    1.572629
      3          6           0        3.644441   -0.364722    1.304269
      4          6           0        3.517899    0.168991    0.022697
      5          6           0        2.806411   -0.470522   -0.991254
      6          6           0        2.199344   -1.695840   -0.700371
      7          1           0        1.833444   -3.209515    0.793357
      8          1           0        3.115377   -2.024710    2.564886
      9          1           0        4.208553    0.172376    2.057078
     10          1           0        2.738061   -0.013271   -1.970881
     11          1           0        1.640089   -2.210961   -1.476211
     12          7           0        4.164926    1.466730   -0.273326
     13          8           0        4.038580    1.915838   -1.410417
     14          8           0        4.786160    2.010218    0.637348
     15          6           0       -5.081587    1.831609    0.547853
     16          6           0       -5.492633    0.499856    0.429548
     17          6           0       -4.575796   -0.498422    0.086912
     18          6           0       -3.249781   -0.127841   -0.131361
     19          6           0       -2.809546    1.190243   -0.021196
     20          6           0       -3.743713    2.171952    0.322500
     21          1           0       -5.800539    2.600659    0.814432
     22          1           0       -6.531001    0.232629    0.603981
     23          1           0       -4.866927   -1.537162   -0.011475
     24          1           0       -1.767685    1.425942   -0.201171
     25          1           0       -3.421650    3.205398    0.413665
     26          7           0       -2.269993   -1.175903   -0.494655
     27          8           0       -1.107482   -0.823513   -0.681811
     28          8           0       -2.683099   -2.329918   -0.585371
 ---------------------------------------------------------------------

 SCF Done:  E(RHF) =  -868.339666019     A.U. after   16 cycles
 E2 =    -0.2599128237D+01 EUMP2 =    -0.87093879425612D+03

 The electronic state is 1-A.
 Alpha  occ. eigenvalues --  -20.61435 -20.61423 -20.60069 -20.60061 -15.86452
 Alpha  occ. eigenvalues --  -15.85106 -11.31577 -11.30171 -11.28132 -11.28093
 Alpha  occ. eigenvalues --  -11.27817 -11.27091 -11.27052 -11.26721 -11.26583
 Alpha  occ. eigenvalues --  -11.26271 -11.25717 -11.25458  -1.60507  -1.59150
 Alpha  occ. eigenvalues --   -1.40062  -1.38712  -1.19730  -1.18277  -1.09174
 Alpha  occ. eigenvalues --   -1.07720  -1.05092  -1.03621  -0.96048  -0.94618
 Alpha  occ. eigenvalues --   -0.86502  -0.85033  -0.82884  -0.81459  -0.77958
 Alpha  occ. eigenvalues --   -0.76558  -0.72696  -0.71808  -0.71333  -0.70832
 Alpha  occ. eigenvalues --   -0.70472  -0.69376  -0.65384  -0.65091  -0.63922
 Alpha  occ. eigenvalues --   -0.63606  -0.62437  -0.60984  -0.55605  -0.54115
 Alpha  occ. eigenvalues --   -0.53440  -0.53178  -0.51977  -0.51712  -0.49456
 Alpha  occ. eigenvalues --   -0.49427  -0.48104  -0.48057  -0.45517  -0.44185
 Alpha  occ. eigenvalues --   -0.37700  -0.36685  -0.36207  -0.35162
 Alpha virt. eigenvalues --    0.04550   0.05940   0.10972   0.12481   0.16101
 Alpha virt. eigenvalues --    0.17547   0.21156   0.22585   0.27087   0.28018
 Alpha virt. eigenvalues --    0.28518   0.29403   0.30741   0.32146   0.32263

 Mulliken charges:
               1
     1  C   -0.170944
     2  C   -0.219697
     3  C   -0.174850
     4  C    0.156419
     5  C   -0.174509
     6  C   -0.197646
     7  H    0.226621
     8  H    0.218622
     9  H    0.270362
    10  H    0.272256
    11  H    0.232303
    12  N    0.487824
    13  O   -0.463458
    14  O   -0.464592
    15  C   -0.170030
    16  C   -0.218712
    17  C   -0.170889
    18  C    0.157088
    19  C   -0.170784
    20  C   -0.218739
    21  H    0.227378
    22  H    0.224349
    23  H    0.275032
    24  H    0.277910
    25  H    0.226631
    26  N    0.490509
    27  O   -0.465550
    28  O   -0.462903
 Sum of Mulliken charges =  -0.00000

 Dipole moment (field-independent basis, Debye):
    X=             -6.1626    Y=             -0.9886    Z=              2.2071  Tot=              6.6201
 Quadrupole moment (field-independent basis, Debye-Ang):
   XX=            -97.2540   YY=           -105.6395   ZZ=           -101.8654
   XY=            -26.1366   XZ=              1.0098   YZ=             -0.2573

 Normal termination of Gaussian 16 at Thu May  6 09:39:01 2021.
