 Gaussian 16, Revision A.03,
 Gaussian 16:  EM64L-G16RevA.03 25-Dec-2016

 -------------
 #p 6-31g* mp2
 -------------

 ------------------------------------------------------
 Input file generated by CHIRIPA (05-May-2021 14:53:16)
 ------------------------------------------------------
 Symbolic Z-matrix:
 Charge =  0 Multiplicity = 1

                         Standard orientation:
 ---------------------------------------------------------------------
 Center     Atomic      Atomic             Coordinates (Angstroms)
 Number     Number       Type             X           Y           Z
 ---------------------------------------------------------------------
      1          6           0        3.944218   -0.106270    0.081835
      2          6           0        3.070096    0.882092    0.854517
      3          6           0        1.577262    0.682028    0.591428
      4          1           0        3.742629   -0.001685   -0.993046
      5          1           0        3.656814   -1.130916    0.355507
      6          1           0        3.360000    1.904584    0.580505
      7          1           0        3.273929    0.775275    1.927670
      8          1           0        1.266651   -0.326732    0.882160
      9          1           0        1.353210    0.808994   -0.472659
     10          1           0        0.970899    1.398986    1.153704
     11          6           0        5.439138    0.081144    0.334452
     12          6           0        6.313260   -0.907218   -0.438230
     13          6           0        7.806094   -0.707154   -0.175142
     14          1           0        5.726542    1.105789    0.060780
     15          1           0        5.640727   -0.023442    1.409333
     16          1           0        6.109427   -0.800401   -1.511383
     17          1           0        6.023357   -1.929710   -0.164218
     18          1           0        8.030146   -0.834120    0.888946
     19          1           0        8.116706    0.301605   -0.465874
     20          1           0        8.412457   -1.424113   -0.737417
     21          6           0       -1.844143    1.645360   -0.774197
     22          6           0       -3.038279    2.106153   -0.210078
     23          6           0       -4.054221    1.208985    0.132701
     24          6           0       -3.841443   -0.148303   -0.103486
     25          6           0       -2.662859   -0.638255   -0.664000
     26          6           0       -1.660568    0.277039   -0.998962
     27          1           0       -1.060237    2.349342   -1.037440
     28          1           0       -3.183608    3.168254   -0.034389
     29          1           0       -4.988530    1.538493    0.570776
     30          1           0       -2.547104   -1.702861   -0.827197
     31          1           0       -0.734219   -0.083673   -1.436922
     32          7           0       -4.909750   -1.107689    0.255260
     33          8           0       -4.697709   -2.298522    0.037101
     34          8           0       -5.938900   -0.650657    0.747813
 ---------------------------------------------------------------------

 SCF Done:  E(RHF) =  -669.534952226     A.U. after   15 cycles
 E2 =    -0.2091762260D+01 EUMP2 =    -0.67162671448623D+03

 The electronic state is 1-A.
 Alpha  occ. eigenvalues --  -20.60709 -20.60704 -15.85761 -11.31110 -11.27677
 Alpha  occ. eigenvalues --  -11.27657 -11.27397 -11.26694 -11.26641 -11.22329
 Alpha  occ. eigenvalues --  -11.22051 -11.22036 -11.22026 -11.21878 -11.21425
 Alpha  occ. eigenvalues --   -1.59785  -1.39339  -1.19279  -1.09029  -1.08676
 Alpha  occ. eigenvalues --   -1.04683  -1.04145  -0.96620  -0.95512  -0.87653
 Alpha  occ. eigenvalues --   -0.86069  -0.82346  -0.80226  -0.78820  -0.77395
 Alpha  occ. eigenvalues --   -0.71980  -0.71107  -0.70388  -0.65663  -0.64931
 Alpha  occ. eigenvalues --   -0.64702  -0.62061  -0.61526  -0.59987  -0.58207
 Alpha  occ. eigenvalues --   -0.55916  -0.55175  -0.53453  -0.53145  -0.52877
 Alpha  occ. eigenvalues --   -0.52640  -0.50560  -0.48754  -0.48736  -0.48503
 Alpha  occ. eigenvalues --   -0.47244  -0.46366  -0.46272  -0.44748  -0.44389
 Alpha  occ. eigenvalues --   -0.37224  -0.36265
 Alpha virt. eigenvalues --    0.05125   0.11318   0.16597   0.20343   0.22469
 Alpha virt. eigenvalues --    0.23906   0.25647   0.26295   0.27064   0.27920
 Alpha virt. eigenvalues --    0.29020   0.30555   0.30977   0.31240   0.31635

 Mulliken charges:
               1
     1  C   -0.298786
     2  C   -0.301007
     3  C   -0.475609
     4  H    0.147258
     5  H    0.150950
     6  H    0.151608
     7  H    0.155782
     8  H    0.159489
     9  H    0.142223
    10  H    0.163290
    11  C   -0.298586
    12  C   -0.300062
    13  C   -0.476021
    14  H    0.149755
    15  H    0.151313
    16  H    0.151629
    17  H    0.152904
    18  H    0.156093
    19  H    0.155371
    20  H    0.161525
    21  C   -0.169993
    22  C   -0.219499
    23  C   -0.171272
    24  C    0.158505
    25  C   -0.173138
    26  C   -0.214785
    27  H    0.225677
    28  H    0.222920
    29  H    0.275212
    30  H    0.275176
    31  H    0.225398
    32  N    0.488063
    33  O   -0.460677
    34  O   -0.460705
 Sum of Mulliken charges =  -0.00000

 Dipole moment (field-independent basis, Debye):
    X=              3.9291    Y=              3.3648    Z=             -1.1914  Tot=              5.3084
 Quadrupole moment (field-independent basis, Debye-Ang):
   XX=           -123.4280   YY=            -92.7863   ZZ=            -94.0913
   XY=            -16.2050   XZ=              3.4569   YZ=              0.7564

 Normal termination of Gaussian 16 at Thu May  6 17:14:43 2021.
