 Gaussian 16, Revision A.03,
 Gaussian 16:  EM64L-G16RevA.03 25-Dec-2016

 -------------
 #p 6-31g* mp2
 -------------

 ------------------------------------------------------
 Input file generated by CHIRIPA (05-May-2021 14:53:17)
 ------------------------------------------------------
 Symbolic Z-matrix:
 Charge =  0 Multiplicity = 1

                         Standard orientation:
 ---------------------------------------------------------------------
 Center     Atomic      Atomic             Coordinates (Angstroms)
 Number     Number       Type             X           Y           Z
 ---------------------------------------------------------------------
      1          6           0        3.221103   -0.609286    0.889301
      2          6           0        2.329370    0.251840    1.784432
      3          6           0        1.470329   -0.579224    2.737939
      4          1           0        2.591829   -1.299572    0.310971
      5          1           0        3.869994   -1.232157    1.520464
      6          1           0        1.683323    0.873909    1.151763
      7          1           0        2.960825    0.940288    2.360557
      8          1           0        2.101308   -1.188501    3.393110
      9          1           0        0.816547   -1.255257    2.177448
     10          1           0        0.840726    0.056342    3.368427
     11          6           0        4.085892    0.207178   -0.069478
     12          6           0        4.977624   -0.653948   -0.964609
     13          6           0        5.836666    0.177116   -1.918116
     14          1           0        3.437001    0.830049   -0.700641
     15          1           0        4.715165    0.897464    0.508852
     16          1           0        4.346169   -1.342395   -1.540734
     17          1           0        5.623671   -1.276016   -0.331940
     18          1           0        6.490448    0.853149   -1.357624
     19          1           0        5.205687    0.786393   -2.573286
     20          1           0        6.466269   -0.458450   -2.548604
     21          6           0       -1.700601    2.396346   -0.176819
     22          6           0       -0.959171    1.243496   -0.455636
     23          6           0       -1.587898   -0.002520   -0.537474
     24          6           0       -2.965829   -0.059411   -0.334109
     25          6           0       -3.731952    1.071194   -0.054685
     26          6           0       -3.082189    2.306675    0.022416
     27          1           0       -1.204020    3.360189   -0.115084
     28          1           0        0.113919    1.310134   -0.610813
     29          1           0       -1.038101   -0.910909   -0.751886
     30          1           0       -4.800277    0.973139    0.095264
     31          1           0       -3.660528    3.200328    0.239101
     32          7           0       -3.642570   -1.372935   -0.418240
     33          8           0       -4.857699   -1.396356   -0.235075
     34          8           0       -2.945055   -2.354183   -0.665755
 ---------------------------------------------------------------------

 SCF Done:  E(RHF) =  -669.535365411     A.U. after   15 cycles
 E2 =    -0.2091854359D+01 EUMP2 =    -0.67162721976969D+03

 The electronic state is 1-A.
 Alpha  occ. eigenvalues --  -20.60787 -20.60782 -15.85841 -11.31218 -11.27799
 Alpha  occ. eigenvalues --  -11.27788 -11.27531 -11.26804 -11.26791 -11.22256
 Alpha  occ. eigenvalues --  -11.22093 -11.22031 -11.21965 -11.21497 -11.21483
 Alpha  occ. eigenvalues --   -1.59862  -1.39415  -1.19394  -1.09026  -1.08784
 Alpha  occ. eigenvalues --   -1.04803  -1.04051  -0.96481  -0.95617  -0.87494
 Alpha  occ. eigenvalues --   -0.86199  -0.82453  -0.80125  -0.78848  -0.77497
 Alpha  occ. eigenvalues --   -0.72059  -0.71184  -0.70499  -0.65730  -0.65045
 Alpha  occ. eigenvalues --   -0.64785  -0.62207  -0.61395  -0.59849  -0.58096
 Alpha  occ. eigenvalues --   -0.55775  -0.55296  -0.53169  -0.53104  -0.52930
 Alpha  occ. eigenvalues --   -0.52872  -0.50419  -0.48826  -0.48814  -0.48420
 Alpha  occ. eigenvalues --   -0.47162  -0.46366  -0.46314  -0.44818  -0.44322
 Alpha  occ. eigenvalues --   -0.37365  -0.36384
 Alpha virt. eigenvalues --    0.05028   0.11161   0.16427   0.19144   0.22861
 Alpha virt. eigenvalues --    0.23844   0.24857   0.25977   0.27446   0.28451
 Alpha virt. eigenvalues --    0.28999   0.30825   0.31274   0.31407   0.32213

 Mulliken charges:
               1
     1  C   -0.299287
     2  C   -0.302890
     3  C   -0.475303
     4  H    0.148403
     5  H    0.154033
     6  H    0.143001
     7  H    0.153802
     8  H    0.157996
     9  H    0.157313
    10  H    0.161801
    11  C   -0.297560
    12  C   -0.300143
    13  C   -0.475924
    14  H    0.141475
    15  H    0.151546
    16  H    0.153079
    17  H    0.154494
    18  H    0.155713
    19  H    0.153971
    20  H    0.162629
    21  C   -0.171926
    22  C   -0.218362
    23  C   -0.172000
    24  C    0.158653
    25  C   -0.170630
    26  C   -0.218461
    27  H    0.226048
    28  H    0.226491
    29  H    0.275259
    30  H    0.275793
    31  H    0.223618
    32  N    0.488151
    33  O   -0.460257
    34  O   -0.460527
 Sum of Mulliken charges =  -0.00000

 Dipole moment (field-independent basis, Debye):
    X=              2.4587    Y=              4.5727    Z=              0.3652  Tot=              5.2047
 Quadrupole moment (field-independent basis, Debye-Ang):
   XX=           -104.4506   YY=            -95.0150   ZZ=            -95.4495
   XY=            -16.7859   XZ=             -1.5610   YZ=             -0.7543

 Normal termination of Gaussian 16 at Thu May  6 15:36:11 2021.
