 Gaussian 16, Revision A.03,
 Gaussian 16:  EM64L-G16RevA.03 25-Dec-2016

 -------------
 #p 6-31g* mp2
 -------------

 ------------------------------------------------------
 Input file generated by CHIRIPA (05-May-2021 14:57:24)
 ------------------------------------------------------
 Symbolic Z-matrix:
 Charge =  0 Multiplicity = 1

                         Standard orientation:
 ---------------------------------------------------------------------
 Center     Atomic      Atomic             Coordinates (Angstroms)
 Number     Number       Type             X           Y           Z
 ---------------------------------------------------------------------
      1          6           0        1.437677    0.301166    2.054202
      2          6           0        1.776102   -0.963695    1.562149
      3          6           0        2.766706   -1.103940    0.585634
      4          6           0        3.401443    0.047133    0.121489
      5          6           0        3.086588    1.321045    0.591919
      6          6           0        2.092845    1.437496    1.568373
      7          1           0        0.666933    0.400870    2.812759
      8          1           0        1.268956   -1.847934    1.937610
      9          1           0        3.048403   -2.071065    0.187220
     10          1           0        3.609701    2.184060    0.198249
     11          1           0        1.832085    2.421071    1.948675
     12          7           0        4.451813   -0.088743   -0.912272
     13          8           0        4.996187    0.940921   -1.304812
     14          8           0        4.710830   -1.222333   -1.310419
     15          6           0       -5.709749    0.353997   -0.121258
     16          6           0       -5.195998   -0.917343    0.154927
     17          6           0       -3.822812   -1.163445    0.063602
     18          6           0       -2.988435   -0.110472   -0.308358
     19          6           0       -3.469966    1.167097   -0.589846
     20          6           0       -4.846615    1.390332   -0.492108
     21          1           0       -6.777818    0.536293   -0.047823
     22          1           0       -5.863952   -1.724065    0.443163
     23          1           0       -3.398319   -2.138052    0.271841
     24          1           0       -2.779181    1.951352   -0.874764
     25          1           0       -5.242795    2.378679   -0.707181
     26          7           0       -1.532871   -0.358904   -0.408434
     27          8           0       -0.818835    0.585588   -0.738166
     28          8           0       -1.133597   -1.493415   -0.155247
 ---------------------------------------------------------------------

 SCF Done:  E(RHF) =  -868.337976128     A.U. after   16 cycles
 E2 =    -0.2601111971D+01 EUMP2 =    -0.87093908809882D+03

 The electronic state is 1-A.
 Alpha  occ. eigenvalues --  -20.61429 -20.61372 -20.59551 -20.59542 -15.86419
 Alpha  occ. eigenvalues --  -15.84589 -11.31741 -11.29684 -11.28302 -11.28286
 Alpha  occ. eigenvalues --  -11.28005 -11.27287 -11.27274 -11.26245 -11.26147
 Alpha  occ. eigenvalues --  -11.25975 -11.25313 -11.25156  -1.60456  -1.58625
 Alpha  occ. eigenvalues --   -1.40018  -1.38188  -1.19901  -1.17805  -1.09303
 Alpha  occ. eigenvalues --   -1.07292  -1.05291  -1.03187  -0.96148  -0.94183
 Alpha  occ. eigenvalues --   -0.86690  -0.84640  -0.82985  -0.81034  -0.78043
 Alpha  occ. eigenvalues --   -0.76094  -0.72653  -0.71798  -0.70997  -0.70831
 Alpha  occ. eigenvalues --   -0.69930  -0.69040  -0.65551  -0.65285  -0.63513
 Alpha  occ. eigenvalues --   -0.63261  -0.62637  -0.60586  -0.55785  -0.53821
 Alpha  occ. eigenvalues --   -0.53633  -0.53376  -0.51604  -0.51350  -0.49411
 Alpha  occ. eigenvalues --   -0.49248  -0.47590  -0.47560  -0.45436  -0.43656
 Alpha  occ. eigenvalues --   -0.37885  -0.36895  -0.35742  -0.34662
 Alpha virt. eigenvalues --    0.04466   0.06434   0.10760   0.12941   0.15980
 Alpha virt. eigenvalues --    0.17999   0.20939   0.22728   0.26850   0.27815
 Alpha virt. eigenvalues --    0.28679   0.29513   0.30521   0.31992   0.32225

 Mulliken charges:
               1
     1  C   -0.170397
     2  C   -0.197299
     3  C   -0.167338
     4  C    0.160643
     5  C   -0.170438
     6  C   -0.210960
     7  H    0.215612
     8  H    0.221860
     9  H    0.271880
    10  H    0.269574
    11  H    0.215074
    12  N    0.488121
    13  O   -0.465259
    14  O   -0.463357
    15  C   -0.170537
    16  C   -0.218375
    17  C   -0.171826
    18  C    0.157716
    19  C   -0.171657
    20  C   -0.218448
    21  H    0.227316
    22  H    0.224736
    23  H    0.274565
    24  H    0.276051
    25  H    0.225015
    26  N    0.487343
    27  O   -0.454785
    28  O   -0.464830
 Sum of Mulliken charges =  -0.00000

 Dipole moment (field-independent basis, Debye):
    X=             -9.2031    Y=              1.2712    Z=              3.8950  Tot=             10.0739
 Quadrupole moment (field-independent basis, Debye-Ang):
   XX=           -101.1622   YY=            -95.7143   ZZ=           -105.7734
   XY=              0.4812   XZ=             12.2761   YZ=             -1.7828

 Normal termination of Gaussian 16 at Wed May  5 22:43:19 2021.
