 Gaussian 16, Revision A.03,
 Gaussian 16:  EM64L-G16RevA.03 25-Dec-2016

 -------------
 #p 6-31g* mp2
 -------------

 ------------------------------------------------------
 Input file generated by CHIRIPA (05-May-2021 14:53:12)
 ------------------------------------------------------
 Symbolic Z-matrix:
 Charge =  0 Multiplicity = 1

                         Standard orientation:
 ---------------------------------------------------------------------
 Center     Atomic      Atomic             Coordinates (Angstroms)
 Number     Number       Type             X           Y           Z
 ---------------------------------------------------------------------
      1          6           0        3.343703    0.851816    0.034243
      2          6           0        4.154159    1.926012    0.760362
      3          6           0        3.410183    3.257632    0.865629
      4          1           0        3.088663    1.211515   -0.971996
      5          1           0        2.392201    0.700517    0.562587
      6          1           0        5.104446    2.074253    0.231595
      7          1           0        4.407463    1.563636    1.764920
      8          1           0        2.469903    3.131438    1.412026
      9          1           0        3.170846    3.644956   -0.130011
     10          1           0        4.007717    4.011134    1.388168
     11          6           0        4.074146   -0.485110   -0.078943
     12          6           0        3.263690   -1.559307   -0.805063
     13          6           0        4.007666   -2.890927   -0.910330
     14          1           0        5.025648   -0.333812   -0.607288
     15          1           0        4.329186   -0.844810    0.927295
     16          1           0        3.010386   -1.196931   -1.809621
     17          1           0        2.313403   -1.707548   -0.276296
     18          1           0        4.247003   -3.278250    0.085310
     19          1           0        4.947946   -2.764732   -1.456726
     20          1           0        3.410132   -3.644429   -1.432869
     21          6           0       -1.923586   -2.274431    0.953019
     22          6           0       -1.106078   -1.377270    0.257820
     23          6           0       -1.634984   -0.193380   -0.264877
     24          6           0       -2.991761    0.062791   -0.072985
     25          6           0       -3.832016   -0.811216    0.615037
     26          6           0       -3.281552   -1.989044    1.129099
     27          1           0       -1.504346   -3.191751    1.355709
     28          1           0       -0.051112   -1.596300    0.119551
     29          1           0       -1.024818    0.518693   -0.807157
     30          1           0       -4.879952   -0.565424    0.736829
     31          1           0       -3.918821   -2.683954    1.668573
     32          7           0       -3.563101    1.312914   -0.621770
     33          8           0       -4.761552    1.515424   -0.439171
     34          8           0       -2.801650    2.066577   -1.224114
 ---------------------------------------------------------------------

 SCF Done:  E(RHF) =  -669.535623572     A.U. after   15 cycles
 E2 =    -0.2091260636D+01 EUMP2 =    -0.67162688420840D+03

 The electronic state is 1-A.
 Alpha  occ. eigenvalues --  -20.60726 -20.60721 -15.85779 -11.31140 -11.27715
 Alpha  occ. eigenvalues --  -11.27696 -11.27455 -11.26732 -11.26692 -11.22548
 Alpha  occ. eigenvalues --  -11.22058 -11.21987 -11.21930 -11.21830 -11.21256
 Alpha  occ. eigenvalues --   -1.59802  -1.39355  -1.19313  -1.09059  -1.08711
 Alpha  occ. eigenvalues --   -1.04715  -1.04106  -0.96520  -0.95545  -0.87538
 Alpha  occ. eigenvalues --   -0.86116  -0.82379  -0.80209  -0.78864  -0.77420
 Alpha  occ. eigenvalues --   -0.71998  -0.71125  -0.70424  -0.65718  -0.64965
 Alpha  occ. eigenvalues --   -0.64715  -0.62089  -0.61479  -0.59916  -0.58137
 Alpha  occ. eigenvalues --   -0.55793  -0.55223  -0.53227  -0.53048  -0.52961
 Alpha  occ. eigenvalues --   -0.52795  -0.50461  -0.48769  -0.48752  -0.48481
 Alpha  occ. eigenvalues --   -0.47243  -0.46385  -0.46299  -0.44761  -0.44363
 Alpha  occ. eigenvalues --   -0.37299  -0.36318
 Alpha virt. eigenvalues --    0.05105   0.11332   0.16578   0.19347   0.22747
 Alpha virt. eigenvalues --    0.23692   0.24677   0.26352   0.27437   0.28140
 Alpha virt. eigenvalues --    0.29625   0.29848   0.31183   0.31373   0.32155

 Mulliken charges:
               1
     1  C   -0.299697
     2  C   -0.300117
     3  C   -0.476573
     4  H    0.151881
     5  H    0.144674
     6  H    0.153448
     7  H    0.152168
     8  H    0.156562
     9  H    0.157911
    10  H    0.161908
    11  C   -0.297710
    12  C   -0.306648
    13  C   -0.475528
    14  H    0.153424
    15  H    0.150556
    16  H    0.155530
    17  H    0.143889
    18  H    0.155780
    19  H    0.159608
    20  H    0.160258
    21  C   -0.173502
    22  C   -0.227696
    23  C   -0.174910
    24  C    0.158841
    25  C   -0.171215
    26  C   -0.218524
    27  H    0.225919
    28  H    0.237270
    29  H    0.276875
    30  H    0.275416
    31  H    0.223178
    32  N    0.488101
    33  O   -0.460753
    34  O   -0.460323
 Sum of Mulliken charges =  -0.00000

 Dipole moment (field-independent basis, Debye):
    X=              2.2150    Y=             -4.3381    Z=              1.9047  Tot=              5.2300
 Quadrupole moment (field-independent basis, Debye-Ang):
   XX=           -102.0667   YY=            -96.3307   ZZ=            -94.3024
   XY=             15.3456   XZ=             -8.3232   YZ=             -0.5102

 Normal termination of Gaussian 16 at Thu May  6 16:59:56 2021.
