 Gaussian 16, Revision A.03,
 Gaussian 16:  EM64L-G16RevA.03 25-Dec-2016

 -------------
 #p 6-31g* mp2
 -------------

 ------------------------------------------------------
 Input file generated by CHIRIPA (05-May-2021 14:55:22)
 ------------------------------------------------------
 Symbolic Z-matrix:
 Charge =  0 Multiplicity = 1

                         Standard orientation:
 ---------------------------------------------------------------------
 Center     Atomic      Atomic             Coordinates (Angstroms)
 Number     Number       Type             X           Y           Z
 ---------------------------------------------------------------------
      1          6           0       -1.239441    1.323498    1.098754
      2          6           0       -2.564946    1.602323    1.447771
      3          6           0       -3.610814    0.823758    0.943246
      4          6           0       -3.293677   -0.230661    0.088311
      5          6           0       -1.983201   -0.533557   -0.278018
      6          6           0       -0.953303    0.258325    0.238489
      7          1           0       -0.433188    1.933478    1.495335
      8          1           0       -2.790128    2.428917    2.115663
      9          1           0       -4.645939    1.017472    1.197037
     10          1           0       -1.789964   -1.364212   -0.945918
     11          1           0        0.075162    0.039465   -0.034282
     12          7           0       -4.392437   -1.061942   -0.452149
     13          8           0       -4.086667   -1.985260   -1.203565
     14          8           0       -5.538610   -0.774441   -0.114113
     15          6           0        3.398395    0.398498   -0.630463
     16          6           0        3.288376    1.922238   -0.566446
     17          6           0        2.111815    2.464611   -1.378438
     18          1           0        3.501003    0.088392   -1.679391
     19          1           0        2.462694   -0.045461   -0.263369
     20          1           0        4.224525    2.363173   -0.932254
     21          1           0        3.186209    2.228767    0.482467
     22          1           0        1.166894    2.052204   -1.010137
     23          1           0        2.211109    2.187374   -2.432896
     24          1           0        2.051912    3.555806   -1.318734
     25          6           0        4.569830   -0.158740    0.176356
     26          6           0        4.679849   -1.682480    0.112339
     27          6           0        5.856409   -2.224853    0.924331
     28          1           0        5.505531    0.285220   -0.190739
     29          1           0        4.467221    0.151367    1.225283
     30          1           0        4.782015   -1.989008   -0.936575
     31          1           0        3.743700   -2.123415    0.478147
     32          1           0        5.757115   -1.947615    1.978789
     33          1           0        6.801330   -1.812445    0.556030
     34          1           0        5.916312   -3.316048    0.864626
 ---------------------------------------------------------------------

 SCF Done:  E(RHF) =  -669.534972820     A.U. after   15 cycles
 E2 =    -0.2092411075D+01 EUMP2 =    -0.67162738389558D+03

 The electronic state is 1-A.
 Alpha  occ. eigenvalues --  -20.60758 -20.60753 -15.85811 -11.31188 -11.27759
 Alpha  occ. eigenvalues --  -11.27750 -11.27503 -11.26770 -11.26736 -11.22589
 Alpha  occ. eigenvalues --  -11.22450 -11.22265 -11.22168 -11.22012 -11.21594
 Alpha  occ. eigenvalues --   -1.59833  -1.39386  -1.19362  -1.09320  -1.08756
 Alpha  occ. eigenvalues --   -1.04769  -1.04343  -0.96795  -0.95588  -0.87805
 Alpha  occ. eigenvalues --   -0.86174  -0.82420  -0.80416  -0.79133  -0.77463
 Alpha  occ. eigenvalues --   -0.72031  -0.71156  -0.70472  -0.66043  -0.65014
 Alpha  occ. eigenvalues --   -0.64749  -0.62196  -0.61649  -0.60158  -0.58400
 Alpha  occ. eigenvalues --   -0.56117  -0.55261  -0.53453  -0.53274  -0.53031
 Alpha  occ. eigenvalues --   -0.52884  -0.50742  -0.48826  -0.48784  -0.48678
 Alpha  occ. eigenvalues --   -0.47444  -0.46635  -0.46567  -0.44790  -0.44613
 Alpha  occ. eigenvalues --   -0.37329  -0.36356
 Alpha virt. eigenvalues --    0.05066   0.11132   0.16556   0.18961   0.22749
 Alpha virt. eigenvalues --    0.23893   0.24742   0.26125   0.27046   0.28179
 Alpha virt. eigenvalues --    0.29142   0.30112   0.30992   0.31356   0.31531

 Mulliken charges:
               1
     1  C   -0.173705
     2  C   -0.218720
     3  C   -0.170953
     4  C    0.158864
     5  C   -0.174129
     6  C   -0.226219
     7  H    0.226620
     8  H    0.223533
     9  H    0.275672
    10  H    0.276600
    11  H    0.236512
    12  N    0.488024
    13  O   -0.460230
    14  O   -0.460492
    15  C   -0.303984
    16  C   -0.301175
    17  C   -0.481520
    18  H    0.154490
    19  H    0.142333
    20  H    0.157292
    21  H    0.148635
    22  H    0.151186
    23  H    0.160228
    24  H    0.163438
    25  C   -0.297909
    26  C   -0.300352
    27  C   -0.476225
    28  H    0.152937
    29  H    0.149627
    30  H    0.153877
    31  H    0.150812
    32  H    0.155640
    33  H    0.156502
    34  H    0.162790
 Sum of Mulliken charges =  -0.00000

 Dipole moment (field-independent basis, Debye):
    X=              4.0599    Y=              2.9246    Z=              1.8579  Tot=              5.3374
 Quadrupole moment (field-independent basis, Debye-Ang):
   XX=           -117.6315   YY=            -95.1911   ZZ=            -93.2573
   XY=            -12.3180   XZ=             -9.0392   YZ=              1.6152

 Normal termination of Gaussian 16 at Wed May  5 22:17:19 2021.
