 Gaussian 16, Revision A.03,
 Gaussian 16:  EM64L-G16RevA.03 25-Dec-2016

 -------------
 #p 6-31g* mp2
 -------------

 ------------------------------------------------------
 Input file generated by CHIRIPA (05-May-2021 14:51:08)
 ------------------------------------------------------
 Symbolic Z-matrix:
 Charge =  0 Multiplicity = 1

                         Standard orientation:
 ---------------------------------------------------------------------
 Center     Atomic      Atomic             Coordinates (Angstroms)
 Number     Number       Type             X           Y           Z
 ---------------------------------------------------------------------
      1          6           0       -3.111712    0.645243   -0.447841
      2          6           0       -3.528020   -0.805296   -0.201647
      3          6           0       -4.666438   -1.257058   -1.116910
      4          1           0       -3.982258    1.299524   -0.302895
      5          1           0       -2.806681    0.758762   -1.497348
      6          1           0       -3.830858   -0.916362    0.847433
      7          1           0       -2.656335   -1.456181   -0.347008
      8          1           0       -4.371412   -1.174834   -2.168005
      9          1           0       -5.552609   -0.631948   -0.966777
     10          1           0       -4.948126   -2.296904   -0.923951
     11          6           0       -1.974629    1.111508    0.459555
     12          6           0       -1.558321    2.562046    0.213361
     13          6           0       -0.419903    3.013809    1.128625
     14          1           0       -2.279659    0.997988    1.509062
     15          1           0       -1.104082    0.457226    0.314610
     16          1           0       -2.430006    3.212931    0.358723
     17          1           0       -1.255482    2.673112   -0.835719
     18          1           0        0.466268    2.388699    0.978492
     19          1           0       -0.714929    2.931585    2.179720
     20          1           0       -0.138214    4.053654    0.935666
     21          6           0        3.259863   -0.616444    0.028431
     22          6           0        3.525196    0.550402   -0.923438
     23          6           0        4.963316    1.063414   -0.843293
     24          1           0        3.480963   -0.299876    1.056946
     25          1           0        3.955536   -1.434878   -0.203082
     26          1           0        2.828304    1.365864   -0.691105
     27          1           0        3.303255    0.231077   -1.949786
     28          1           0        5.671003    0.267187   -1.095888
     29          1           0        5.193353    1.408421    0.169946
     30          1           0        5.131018    1.897404   -1.531912
     31          6           0        1.826477   -1.140307   -0.040145
     32          6           0        1.561145   -2.307152    0.911724
     33          6           0        0.123025   -2.820164    0.831579
     34          1           0        1.130805   -0.321871    0.191367
     35          1           0        1.605378   -1.456875   -1.068661
     36          1           0        1.783086   -1.987828    1.938072
     37          1           0        2.258036   -3.122614    0.679390
     38          1           0       -0.107013   -3.165172   -0.181661
     39          1           0       -0.584662   -2.023937    1.084173
     40          1           0       -0.044677   -3.654155    1.520197
 ---------------------------------------------------------------------

 SCF Done:  E(RHF) =  -470.732690351     A.U. after   11 cycles
 E2 =    -0.1584760870D+01 EUMP2 =    -0.47231745122105D+03

 The electronic state is 1-A.
 Alpha  occ. eigenvalues --  -11.21645 -11.21628 -11.21627 -11.21526 -11.21449
 Alpha  occ. eigenvalues --  -11.21391 -11.21389 -11.21329 -11.21137 -11.21093
 Alpha  occ. eigenvalues --  -11.21060 -11.21029  -1.08495  -1.08410  -1.03564
 Alpha  occ. eigenvalues --   -1.03525  -0.96011  -0.95983  -0.87048  -0.86981
 Alpha  occ. eigenvalues --   -0.79659  -0.79576  -0.78447  -0.78100  -0.65288
 Alpha  occ. eigenvalues --   -0.64898  -0.60962  -0.60931  -0.59383  -0.59358
 Alpha  occ. eigenvalues --   -0.57621  -0.57591  -0.55302  -0.55274  -0.52701
 Alpha  occ. eigenvalues --   -0.52688  -0.52495  -0.52358  -0.50005  -0.49883
 Alpha  occ. eigenvalues --   -0.48069  -0.47875  -0.46866  -0.46643  -0.46243
 Alpha  occ. eigenvalues --   -0.45778  -0.45736  -0.44906  -0.43816  -0.43775
 Alpha virt. eigenvalues --    0.19917   0.22399   0.23719   0.24133   0.25582
 Alpha virt. eigenvalues --    0.26468   0.26882   0.27227   0.28326   0.30099
 Alpha virt. eigenvalues --    0.30850   0.31470   0.31704   0.31790   0.31954

 Mulliken charges:
               1
     1  C   -0.297171
     2  C   -0.305159
     3  C   -0.475553
     4  H    0.149435
     5  H    0.149371
     6  H    0.151207
     7  H    0.158908
     8  H    0.154900
     9  H    0.154864
    10  H    0.160335
    11  C   -0.310296
    12  C   -0.298873
    13  C   -0.479565
    14  H    0.148870
    15  H    0.160625
    16  H    0.152323
    17  H    0.152202
    18  H    0.156848
    19  H    0.155418
    20  H    0.160793
    21  C   -0.297258
    22  C   -0.301860
    23  C   -0.475663
    24  H    0.149898
    25  H    0.149892
    26  H    0.153231
    27  H    0.151950
    28  H    0.155295
    29  H    0.155497
    30  H    0.160422
    31  C   -0.308543
    32  C   -0.299230
    33  C   -0.482661
    34  H    0.158030
    35  H    0.149182
    36  H    0.152123
    37  H    0.152038
    38  H    0.154422
    39  H    0.163203
    40  H    0.160552
 Sum of Mulliken charges =  -0.00000

 Dipole moment (field-independent basis, Debye):
    X=              0.0144    Y=             -0.0121    Z=              0.0051  Tot=              0.0195
 Quadrupole moment (field-independent basis, Debye-Ang):
   XX=            -85.9747   YY=            -84.7133   ZZ=            -84.0975
   XY=             -1.2395   XZ=             -1.1075   YZ=              0.4311

 Normal termination of Gaussian 16 at Wed May  5 21:18:55 2021.
