 Gaussian 16, Revision A.03,
 Gaussian 16:  EM64L-G16RevA.03 25-Dec-2016

 -------------
 #p 6-31g* mp2
 -------------

 ------------------------------------------------------
 Input file generated by CHIRIPA (05-May-2021 14:55:21)
 ------------------------------------------------------
 Symbolic Z-matrix:
 Charge =  0 Multiplicity = 1

                         Standard orientation:
 ---------------------------------------------------------------------
 Center     Atomic      Atomic             Coordinates (Angstroms)
 Number     Number       Type             X           Y           Z
 ---------------------------------------------------------------------
      1          6           0        1.080443    1.125283    1.718870
      2          6           0        0.713053   -0.079897    1.111345
      3          6           0        1.613498   -0.764100    0.289388
      4          6           0        2.878783   -0.211927    0.095869
      5          6           0        3.274470    0.986861    0.687163
      6          6           0        2.357727    1.653883    1.505217
      7          1           0        0.374625    1.650114    2.355870
      8          1           0       -0.278227   -0.492775    1.275481
      9          1           0        1.355236   -1.698841   -0.193291
     10          1           0        4.269746    1.373573    0.504687
     11          1           0        2.645789    2.589660    1.975735
     12          7           0        3.840671   -0.927168   -0.772234
     13          8           0        4.949379   -0.419710   -0.926803
     14          8           0        3.467678   -1.981688   -1.281646
     15          6           0       -2.929045    0.594931   -0.535107
     16          6           0       -3.417532    2.023696   -0.775926
     17          6           0       -2.299972    2.961196   -1.234126
     18          1           0       -2.129140    0.609698    0.217805
     19          1           0       -2.480371    0.207422   -1.460268
     20          1           0       -3.866398    2.407900    0.149019
     21          1           0       -4.216499    2.005504   -1.528213
     22          1           0       -1.857130    2.604366   -2.169627
     23          1           0       -1.505037    3.009048   -0.482866
     24          1           0       -2.671235    3.977256   -1.400399
     25          6           0       -4.034802   -0.354171   -0.076588
     26          6           0       -3.546315   -1.782936    0.164232
     27          6           0       -4.663875   -2.720436    0.622431
     28          1           0       -4.483476    0.033338    0.848574
     29          1           0       -4.834708   -0.368938   -0.829500
     30          1           0       -2.747347   -1.764744    0.916518
     31          1           0       -3.097449   -2.167141   -0.760714
     32          1           0       -5.458809   -2.768288   -0.128828
     33          1           0       -5.106718   -2.363605    1.557933
     34          1           0       -4.292613   -3.736496    0.788704
 ---------------------------------------------------------------------

 SCF Done:  E(RHF) =  -669.535237688     A.U. after   15 cycles
 E2 =    -0.2092249196D+01 EUMP2 =    -0.67162748688470D+03

 The electronic state is 1-A.
 Alpha  occ. eigenvalues --  -20.60753 -20.60747 -15.85805 -11.31178 -11.27739
 Alpha  occ. eigenvalues --  -11.27725 -11.27499 -11.26769 -11.26731 -11.22440
 Alpha  occ. eigenvalues --  -11.22241 -11.22151 -11.22086 -11.21690 -11.21611
 Alpha  occ. eigenvalues --   -1.59827  -1.39381  -1.19347  -1.09170  -1.08745
 Alpha  occ. eigenvalues --   -1.04748  -1.04205  -0.96633  -0.95579  -0.87646
 Alpha  occ. eigenvalues --   -0.86155  -0.82410  -0.80280  -0.79011  -0.77445
 Alpha  occ. eigenvalues --   -0.72024  -0.71150  -0.70461  -0.65874  -0.65000
 Alpha  occ. eigenvalues --   -0.64716  -0.62098  -0.61607  -0.60002  -0.58248
 Alpha  occ. eigenvalues --   -0.55927  -0.55256  -0.53322  -0.53124  -0.53032
 Alpha  occ. eigenvalues --   -0.52823  -0.50576  -0.48789  -0.48778  -0.48588
 Alpha  occ. eigenvalues --   -0.47331  -0.46497  -0.46435  -0.44785  -0.44470
 Alpha  occ. eigenvalues --   -0.37320  -0.36325
 Alpha virt. eigenvalues --    0.05065   0.11188   0.16520   0.19334   0.22838
 Alpha virt. eigenvalues --    0.23188   0.24779   0.26221   0.27141   0.28112
 Alpha virt. eigenvalues --    0.29374   0.30275   0.31111   0.31390   0.32209

 Mulliken charges:
               1
     1  C   -0.173310
     2  C   -0.219264
     3  C   -0.173178
     4  C    0.158815
     5  C   -0.171018
     6  C   -0.218151
     7  H    0.225406
     8  H    0.229651
     9  H    0.276021
    10  H    0.275589
    11  H    0.223438
    12  N    0.488061
    13  O   -0.460467
    14  O   -0.460346
    15  C   -0.301079
    16  C   -0.300225
    17  C   -0.475610
    18  H    0.142086
    19  H    0.153585
    20  H    0.150579
    21  H    0.155059
    22  H    0.158934
    23  H    0.151836
    24  H    0.161742
    25  C   -0.298736
    26  C   -0.302042
    27  C   -0.475872
    28  H    0.149236
    29  H    0.153738
    30  H    0.143415
    31  H    0.155356
    32  H    0.158421
    33  H    0.155757
    34  H    0.162574
 Sum of Mulliken charges =  -0.00000

 Dipole moment (field-independent basis, Debye):
    X=             -3.5178    Y=              2.5051    Z=              2.9497  Tot=              5.2298
 Quadrupole moment (field-independent basis, Debye-Ang):
   XX=           -112.1553   YY=            -94.0197   ZZ=            -93.8737
   XY=             10.5301   XZ=              9.9022   YZ=              0.7726

 Normal termination of Gaussian 16 at Thu May  6 17:32:04 2021.
