 Gaussian 16, Revision A.03,
 Gaussian 16:  EM64L-G16RevA.03 25-Dec-2016

 -------------
 #p 6-31g* mp2
 -------------

 ------------------------------------------------------
 Input file generated by CHIRIPA (05-May-2021 14:57:25)
 ------------------------------------------------------
 Symbolic Z-matrix:
 Charge =  0 Multiplicity = 1

                         Standard orientation:
 ---------------------------------------------------------------------
 Center     Atomic      Atomic             Coordinates (Angstroms)
 Number     Number       Type             X           Y           Z
 ---------------------------------------------------------------------
      1          6           0        5.746269    0.726900   -0.644754
      2          6           0        5.057059    1.542461    0.258779
      3          6           0        3.810086    1.153949    0.757443
      4          6           0        3.279469   -0.061973    0.329343
      5          6           0        3.941689   -0.896431   -0.569787
      6          6           0        5.187370   -0.487801   -1.055429
      7          1           0        6.714446    1.036520   -1.027070
      8          1           0        5.488681    2.486339    0.579465
      9          1           0        3.254941    1.766009    1.457882
     10          1           0        3.485865   -1.831795   -0.871011
     11          1           0        5.720359   -1.123200   -1.757024
     12          7           0        1.960039   -0.483922    0.850364
     13          8           0        1.514146   -1.559829    0.457629
     14          8           0        1.396746    0.269251    1.641609
     15          6           0       -5.798854    0.930172    0.189769
     16          6           0       -5.497200   -0.384258    0.560982
     17          6           0       -4.225077   -0.914294    0.325798
     18          6           0       -3.274386   -0.098226   -0.285358
     19          6           0       -3.544417    1.215130   -0.666762
     20          6           0       -4.823220    1.724270   -0.421840
     21          1           0       -6.789665    1.333801    0.376248
     22          1           0       -6.252916   -1.003268    1.036131
     23          1           0       -3.964622   -1.928567    0.602982
     24          1           0       -2.770268    1.807934   -1.138667
     25          1           0       -5.054666    2.745422   -0.711198
     26          7           0       -1.924110   -0.648292   -0.539490
     27          8           0       -1.104123    0.091141   -1.079395
     28          8           0       -1.711318   -1.808450   -0.193962
 ---------------------------------------------------------------------

 SCF Done:  E(RHF) =  -868.335779398     A.U. after   16 cycles
 E2 =    -0.2601142999D+01 EUMP2 =    -0.87093692239625D+03

 The electronic state is 1-A.
 Alpha  occ. eigenvalues --  -20.59523 -20.59444 -20.59379 -20.59236 -15.84559
 Alpha  occ. eigenvalues --  -15.84370 -11.30283 -11.30142 -11.26912 -11.26885
 Alpha  occ. eigenvalues --  -11.26792 -11.26737 -11.26728 -11.26613 -11.26017
 Alpha  occ. eigenvalues --  -11.25997 -11.25908 -11.25874  -1.58526  -1.58351
 Alpha  occ. eigenvalues --   -1.38085  -1.37909  -1.18490  -1.18359  -1.07820
 Alpha  occ. eigenvalues --   -1.07679  -1.03955  -1.03831  -0.94605  -0.94439
 Alpha  occ. eigenvalues --   -0.85338  -0.85211  -0.81444  -0.81288  -0.76417
 Alpha  occ. eigenvalues --   -0.76261  -0.70837  -0.70562  -0.69958  -0.69617
 Alpha  occ. eigenvalues --   -0.69540  -0.69482  -0.64146  -0.64017  -0.63968
 Alpha  occ. eigenvalues --   -0.63851  -0.61305  -0.61179  -0.54461  -0.54337
 Alpha  occ. eigenvalues --   -0.52258  -0.52129  -0.52062  -0.51939  -0.47848
 Alpha  occ. eigenvalues --   -0.47513  -0.47365  -0.47007  -0.43448  -0.43159
 Alpha  occ. eigenvalues --   -0.36493  -0.36359  -0.35574  -0.35453
 Alpha virt. eigenvalues --    0.06134   0.06325   0.12077   0.12198   0.17565
 Alpha virt. eigenvalues --    0.17721   0.22123   0.22234   0.28002   0.28108
 Alpha virt. eigenvalues --    0.29050   0.29172   0.31632   0.31741   0.33312

 Mulliken charges:
               1
     1  C   -0.172389
     2  C   -0.218754
     3  C   -0.171502
     4  C    0.162308
     5  C   -0.169831
     6  C   -0.218812
     7  H    0.221606
     8  H    0.219282
     9  H    0.272818
    10  H    0.277421
    11  H    0.220509
    12  N    0.491438
    13  O   -0.444142
    14  O   -0.470443
    15  C   -0.172113
    16  C   -0.218580
    17  C   -0.170605
    18  C    0.161784
    19  C   -0.170528
    20  C   -0.218576
    21  H    0.222234
    22  H    0.220848
    23  H    0.275923
    24  H    0.273472
    25  H    0.219971
    26  N    0.491280
    27  O   -0.466704
    28  O   -0.447917
 Sum of Mulliken charges =  -0.00000

 Dipole moment (field-independent basis, Debye):
    X=             -0.1793    Y=              3.0745    Z=             -0.9472  Tot=              3.2221
 Quadrupole moment (field-independent basis, Debye-Ang):
   XX=            -47.0428   YY=            -98.3880   ZZ=           -105.9557
   XY=             -0.2320   XZ=             -7.3044   YZ=              0.5164

 Normal termination of Gaussian 16 at Thu May  6 09:52:47 2021.
