 Gaussian 16, Revision A.03,
 Gaussian 16:  EM64L-G16RevA.03 25-Dec-2016

 -------------
 #p 6-31g* mp2
 -------------

 ------------------------------------------------------
 Input file generated by CHIRIPA (05-May-2021 14:57:21)
 ------------------------------------------------------
 Symbolic Z-matrix:
 Charge =  0 Multiplicity = 1

                         Standard orientation:
 ---------------------------------------------------------------------
 Center     Atomic      Atomic             Coordinates (Angstroms)
 Number     Number       Type             X           Y           Z
 ---------------------------------------------------------------------
      1          6           0       -1.343651    1.770899   -0.966144
      2          6           0       -1.195240    0.383605   -0.866599
      3          6           0       -2.253472   -0.413439   -0.420041
      4          6           0       -3.451533    0.212824   -0.079845
      5          6           0       -3.630316    1.592504   -0.168224
      6          6           0       -2.558574    2.369865   -0.617254
      7          1           0       -0.516344    2.382417   -1.314001
      8          1           0       -0.252861   -0.084289   -1.136866
      9          1           0       -2.165856   -1.489656   -0.333447
     10          1           0       -4.581805    2.030175    0.108415
     11          1           0       -2.676692    3.447024   -0.693563
     12          7           0       -4.578987   -0.620551    0.394215
     13          8           0       -5.624282   -0.044542    0.687829
     14          8           0       -4.396043   -1.833980    0.463192
     15          6           0        1.495147   -2.120921   -0.151001
     16          6           0        2.587226   -2.063311   -1.023105
     17          6           0        3.574225   -1.086465   -0.861397
     18          6           0        3.436888   -0.178986    0.187847
     19          6           0        2.360609   -0.210542    1.073237
     20          6           0        1.385517   -1.195983    0.892547
     21          1           0        0.733047   -2.883098   -0.283992
     22          1           0        2.674966   -2.780330   -1.834419
     23          1           0        4.430077   -1.019062   -1.521998
     24          1           0        2.300541    0.517920    1.872708
     25          1           0        0.538484   -1.238334    1.571360
     26          7           0        4.475477    0.859708    0.369087
     27          8           0        4.331352    1.647630    1.301313
     28          8           0        5.413981    0.866247   -0.424514
 ---------------------------------------------------------------------

 SCF Done:  E(RHF) =  -868.336679863     A.U. after   16 cycles
 E2 =    -0.2602496212D+01 EUMP2 =    -0.87093917607489D+03

 The electronic state is 1-A.
 Alpha  occ. eigenvalues --  -20.61534 -20.61529 -20.61253 -20.61231 -15.86588
 Alpha  occ. eigenvalues --  -15.86294 -11.32109 -11.31658 -11.28630 -11.28596
 Alpha  occ. eigenvalues --  -11.28382 -11.28234 -11.28129 -11.27803 -11.27723
 Alpha  occ. eigenvalues --  -11.27645 -11.27148 -11.27039  -1.60608  -1.60319
 Alpha  occ. eigenvalues --   -1.40155  -1.39875  -1.20293  -1.19782  -1.09674
 Alpha  occ. eigenvalues --   -1.09157  -1.05683  -1.05170  -0.96464  -0.96013
 Alpha  occ. eigenvalues --   -0.87068  -0.86556  -0.83260  -0.82849  -0.78290
 Alpha  occ. eigenvalues --   -0.77921  -0.72796  -0.72509  -0.71940  -0.71644
 Alpha  occ. eigenvalues --   -0.71363  -0.70859  -0.65910  -0.65647  -0.65397
 Alpha  occ. eigenvalues --   -0.65184  -0.62982  -0.62558  -0.56167  -0.55647
 Alpha  occ. eigenvalues --   -0.54289  -0.53758  -0.53451  -0.52963  -0.49569
 Alpha  occ. eigenvalues --   -0.49547  -0.49277  -0.49254  -0.45525  -0.45283
 Alpha  occ. eigenvalues --   -0.38341  -0.37835  -0.37414  -0.36471
 Alpha virt. eigenvalues --    0.04162   0.04574   0.10187   0.10983   0.15494
 Alpha virt. eigenvalues --    0.16217   0.19749   0.21665   0.25440   0.26715
 Alpha virt. eigenvalues --    0.27669   0.29122   0.30365   0.31028   0.31579

 Mulliken charges:
               1
     1  C   -0.174354
     2  C   -0.220557
     3  C   -0.181132
     4  C    0.160133
     5  C   -0.171979
     6  C   -0.217463
     7  H    0.229793
     8  H    0.233834
     9  H    0.266247
    10  H    0.276750
    11  H    0.226071
    12  N    0.488115
    13  O   -0.457930
    14  O   -0.463257
    15  C   -0.186973
    16  C   -0.217596
    17  C   -0.172765
    18  C    0.158292
    19  C   -0.173282
    20  C   -0.219694
    21  H    0.229668
    22  H    0.227865
    23  H    0.278381
    24  H    0.278874
    25  H    0.231716
    26  N    0.487575
    27  O   -0.458338
    28  O   -0.457994
 Sum of Mulliken charges =  -0.00000

 Dipole moment (field-independent basis, Debye):
    X=              0.5294    Y=             -0.6016    Z=             -2.2735  Tot=              2.4106
 Quadrupole moment (field-independent basis, Debye-Ang):
   XX=           -155.0515   YY=            -98.7093   ZZ=           -102.5721
   XY=            -25.4101   XZ=             -0.0042   YZ=              0.8895

 Normal termination of Gaussian 16 at Thu May  6 04:54:01 2021.
