 Gaussian 16, Revision A.03,
 Gaussian 16:  EM64L-G16RevA.03 25-Dec-2016

 -------------
 #p 6-31g* mp2
 -------------

 ------------------------------------------------------
 Input file generated by CHIRIPA (05-May-2021 14:51:07)
 ------------------------------------------------------
 Symbolic Z-matrix:
 Charge =  0 Multiplicity = 1

                         Standard orientation:
 ---------------------------------------------------------------------
 Center     Atomic      Atomic             Coordinates (Angstroms)
 Number     Number       Type             X           Y           Z
 ---------------------------------------------------------------------
      1          6           0       -3.291744   -0.166404    0.693552
      2          6           0       -1.991556    0.473434    0.205595
      3          6           0       -0.865281    0.383069    1.235709
      4          1           0       -3.605838    0.321992    1.626161
      5          1           0       -3.103358   -1.220352    0.940734
      6          1           0       -2.182653    1.525499   -0.041905
      7          1           0       -1.680623   -0.016413   -0.726063
      8          1           0       -0.645911   -0.662282    1.475959
      9          1           0       -1.150794    0.888392    2.164004
     10          1           0        0.054806    0.846558    0.866280
     11          6           0       -4.427087   -0.084014   -0.325240
     12          6           0       -5.727275   -0.723852    0.162717
     13          6           0       -6.853550   -0.633487   -0.867396
     14          1           0       -4.615472    0.969934   -0.572422
     15          1           0       -4.112993   -0.572411   -1.257849
     16          1           0       -6.038208   -0.234005    1.094375
     17          1           0       -5.536178   -1.775917    0.410218
     18          1           0       -6.568037   -1.138810   -1.795691
     19          1           0       -7.072920    0.411863   -1.107647
     20          1           0       -7.773637   -1.096976   -0.497967
     21          6           0        3.286839    0.585023   -0.394297
     22          6           0        3.495936    2.041970    0.019909
     23          6           0        2.342048    2.949505   -0.407547
     24          1           0        3.163406    0.534600   -1.484787
     25          1           0        2.348499    0.217617    0.043798
     26          1           0        4.434299    2.406094   -0.417702
     27          1           0        3.619076    2.088908    1.109519
     28          1           0        1.401303    2.613398    0.040375
     29          1           0        2.221159    2.932386   -1.495524
     30          1           0        2.512184    3.986410   -0.101376
     31          6           0        4.431993   -0.334605    0.025985
     32          6           0        4.222895   -1.791552   -0.388222
     33          6           0        5.376783   -2.699086    0.039234
     34          1           0        5.370332    0.032801   -0.412110
     35          1           0        4.555425   -0.284182    1.116474
     36          1           0        4.099755   -1.838490   -1.477831
     37          1           0        3.284531   -2.155676    0.049390
     38          1           0        5.497672   -2.681968    1.127212
     39          1           0        6.317527   -2.362980   -0.408687
     40          1           0        5.206646   -3.735991   -0.266937
 ---------------------------------------------------------------------

 SCF Done:  E(RHF) =  -470.732979351     A.U. after   11 cycles
 E2 =    -0.1582965049D+01 EUMP2 =    -0.47231594439990D+03

 The electronic state is 1-A.
 Alpha  occ. eigenvalues --  -11.21624 -11.21607 -11.21591 -11.21587 -11.21416
 Alpha  occ. eigenvalues --  -11.21380 -11.21356 -11.21319 -11.21110 -11.21074
 Alpha  occ. eigenvalues --  -11.21063 -11.21060  -1.08448  -1.08413  -1.03564
 Alpha  occ. eigenvalues --   -1.03509  -0.96013  -0.95964  -0.87030  -0.86983
 Alpha  occ. eigenvalues --   -0.79639  -0.79558  -0.78256  -0.78228  -0.65080
 Alpha  occ. eigenvalues --   -0.65059  -0.60979  -0.60942  -0.59482  -0.59228
 Alpha  occ. eigenvalues --   -0.57672  -0.57522  -0.55336  -0.55215  -0.52753
 Alpha  occ. eigenvalues --   -0.52653  -0.52468  -0.52356  -0.49978  -0.49877
 Alpha  occ. eigenvalues --   -0.48024  -0.47818  -0.46643  -0.46594  -0.45801
 Alpha  occ. eigenvalues --   -0.45762  -0.45724  -0.45675  -0.43781  -0.43725
 Alpha virt. eigenvalues --    0.21076   0.23077   0.23537   0.24899   0.26343
 Alpha virt. eigenvalues --    0.26616   0.27207   0.27377   0.27875   0.29132
 Alpha virt. eigenvalues --    0.30500   0.31401   0.31781   0.31883   0.31980

 Mulliken charges:
               1
     1  C   -0.298504
     2  C   -0.299063
     3  C   -0.487428
     4  H    0.149673
     5  H    0.149534
     6  H    0.152362
     7  H    0.152553
     8  H    0.155028
     9  H    0.155433
    10  H    0.170578
    11  C   -0.298286
    12  C   -0.299667
    13  C   -0.475718
    14  H    0.149658
    15  H    0.149754
    16  H    0.151943
    17  H    0.151917
    18  H    0.155209
    19  H    0.155229
    20  H    0.160264
    21  C   -0.304571
    22  C   -0.299328
    23  C   -0.481716
    24  H    0.149387
    25  H    0.155381
    26  H    0.152014
    27  H    0.152001
    28  H    0.160149
    29  H    0.155335
    30  H    0.160533
    31  C   -0.297840
    32  C   -0.299698
    33  C   -0.475708
    34  H    0.149440
    35  H    0.149782
    36  H    0.151792
    37  H    0.152064
    38  H    0.155240
    39  H    0.155151
    40  H    0.160124
 Sum of Mulliken charges =  -0.00000

 Dipole moment (field-independent basis, Debye):
    X=             -0.0156    Y=              0.0017    Z=             -0.0007  Tot=              0.0157
 Quadrupole moment (field-independent basis, Debye-Ang):
   XX=            -85.9249   YY=            -84.5741   ZZ=            -84.3075
   XY=              0.3816   XZ=             -1.2744   YZ=              0.3908

 Normal termination of Gaussian 16 at Wed May  5 18:05:15 2021.
