 Gaussian 16, Revision A.03,
 Gaussian 16:  EM64L-G16RevA.03 25-Dec-2016

 -------------
 #p 6-31g* mp2
 -------------

 ------------------------------------------------------
 Input file generated by CHIRIPA (05-May-2021 14:53:15)
 ------------------------------------------------------
 Symbolic Z-matrix:
 Charge =  0 Multiplicity = 1

                         Standard orientation:
 ---------------------------------------------------------------------
 Center     Atomic      Atomic             Coordinates (Angstroms)
 Number     Number       Type             X           Y           Z
 ---------------------------------------------------------------------
      1          6           0       -3.851354   -0.399276   -0.263843
      2          6           0       -4.265003    0.874499    0.473976
      3          6           0       -5.684258    1.324627    0.126281
      4          1           0       -3.928930   -0.229870   -1.346538
      5          1           0       -4.561371   -1.202084   -0.021419
      6          1           0       -3.553621    1.674292    0.231320
      7          1           0       -4.186249    0.702103    1.555038
      8          1           0       -6.409461    0.546228    0.384693
      9          1           0       -5.773238    1.523942   -0.946546
     10          1           0       -5.959364    2.236869    0.664789
     11          6           0       -2.434996   -0.861848    0.073328
     12          6           0       -2.021347   -2.135623   -0.664492
     13          6           0       -0.602091   -2.585751   -0.316796
     14          1           0       -1.724978   -0.059040   -0.169096
     15          1           0       -2.357419   -1.031254    1.156023
     16          1           0       -2.100100   -1.963227   -1.745553
     17          1           0       -2.732728   -2.935416   -0.421835
     18          1           0       -0.513111   -2.785066    0.756031
     19          1           0        0.123112   -1.807352   -0.575208
     20          1           0       -0.326986   -3.497993   -0.855305
     21          6           0        1.769718    2.882392   -0.355120
     22          6           0        1.640797    2.336669    0.926318
     23          6           0        2.017674    1.013698    1.175838
     24          6           0        2.521915    0.261593    0.115946
     25          6           0        2.662426    0.776791   -1.171733
     26          6           0        2.279222    2.102087   -1.398218
     27          1           0        1.474495    3.911010   -0.540007
     28          1           0        1.245424    2.940321    1.738310
     29          1           0        1.928513    0.566054    2.158224
     30          1           0        3.059859    0.150353   -1.961061
     31          1           0        2.380460    2.523265   -2.394413
     32          7           0        2.924245   -1.140208    0.367908
     33          8           0        3.365691   -1.781970   -0.582830
     34          8           0        2.790528   -1.570633    1.511365
 ---------------------------------------------------------------------

 SCF Done:  E(RHF) =  -669.535704918     A.U. after   15 cycles
 E2 =    -0.2092067599D+01 EUMP2 =    -0.67162777251646D+03

 The electronic state is 1-A.
 Alpha  occ. eigenvalues --  -20.60765 -20.60757 -15.85810 -11.31217 -11.27789
 Alpha  occ. eigenvalues --  -11.27783 -11.27535 -11.26809 -11.26800 -11.21731
 Alpha  occ. eigenvalues --  -11.21390 -11.21331 -11.21254 -11.21210 -11.20549
 Alpha  occ. eigenvalues --   -1.59832  -1.39385  -1.19393  -1.08782  -1.08366
 Alpha  occ. eigenvalues --   -1.04796  -1.03417  -0.95846  -0.95609  -0.86858
 Alpha  occ. eigenvalues --   -0.86192  -0.82437  -0.79497  -0.78174  -0.77479
 Alpha  occ. eigenvalues --   -0.72033  -0.71166  -0.70494  -0.65043  -0.65000
 Alpha  occ. eigenvalues --   -0.64796  -0.62140  -0.60818  -0.59236  -0.57457
 Alpha  occ. eigenvalues --   -0.55296  -0.55137  -0.53132  -0.52886  -0.52511
 Alpha  occ. eigenvalues --   -0.52268  -0.49799  -0.48795  -0.48784  -0.47800
 Alpha  occ. eigenvalues --   -0.46552  -0.45705  -0.45638  -0.44762  -0.43665
 Alpha  occ. eigenvalues --   -0.37364  -0.36397
 Alpha virt. eigenvalues --    0.05052   0.11241   0.16517   0.21394   0.22877
 Alpha virt. eigenvalues --    0.24349   0.26603   0.27284   0.27434   0.27915
 Alpha virt. eigenvalues --    0.28352   0.30790   0.31370   0.31857   0.32312

 Mulliken charges:
               1
     1  C   -0.297834
     2  C   -0.298954
     3  C   -0.475487
     4  H    0.148834
     5  H    0.150452
     6  H    0.148362
     7  H    0.151639
     8  H    0.156368
     9  H    0.154813
    10  H    0.158913
    11  C   -0.298732
    12  C   -0.300466
    13  C   -0.474194
    14  H    0.147714
    15  H    0.149535
    16  H    0.149848
    17  H    0.151862
    18  H    0.161672
    19  H    0.147646
    20  H    0.165551
    21  C   -0.171084
    22  C   -0.218537
    23  C   -0.170408
    24  C    0.155975
    25  C   -0.172602
    26  C   -0.218546
    27  H    0.225723
    28  H    0.223852
    29  H    0.276024
    30  H    0.276071
    31  H    0.223540
    32  N    0.491863
    33  O   -0.459963
    34  O   -0.459449
 Sum of Mulliken charges =  -0.00000

 Dipole moment (field-independent basis, Debye):
    X=             -1.3415    Y=              4.8502    Z=             -0.8495  Tot=              5.1036
 Quadrupole moment (field-independent basis, Debye-Ang):
   XX=           -103.4994   YY=            -92.3056   ZZ=            -89.8273
   XY=             12.7655   XZ=             -4.3503   YZ=              0.4250

 Normal termination of Gaussian 16 at Thu May  6 09:00:46 2021.
