 Gaussian 16, Revision A.03,
 Gaussian 16:  EM64L-G16RevA.03 25-Dec-2016

 -------------
 #p 6-31g* mp2
 -------------

 ------------------------------------------------------
 Input file generated by CHIRIPA (05-May-2021 14:55:25)
 ------------------------------------------------------
 Symbolic Z-matrix:
 Charge =  0 Multiplicity = 1

                         Standard orientation:
 ---------------------------------------------------------------------
 Center     Atomic      Atomic             Coordinates (Angstroms)
 Number     Number       Type             X           Y           Z
 ---------------------------------------------------------------------
      1          6           0        2.122178    2.663989    0.544433
      2          6           0        3.482702    2.452402    0.298009
      3          6           0        3.954938    1.178300   -0.030939
      4          6           0        3.034696    0.133811   -0.105028
      5          6           0        1.673201    0.312806    0.134934
      6          6           0        1.223354    1.595400    0.462254
      7          1           0        1.764030    3.657040    0.799335
      8          1           0        4.183027    3.280416    0.361110
      9          1           0        5.002942    0.986423   -0.226615
     10          1           0        0.999175   -0.532261    0.064442
     11          1           0        0.166201    1.756778    0.653116
     12          7           0        3.522780   -1.219519   -0.452408
     13          8           0        2.691706   -2.123116   -0.511273
     14          8           0        4.727172   -1.351036   -0.659242
     15          6           0       -3.082545   -0.660100    0.292731
     16          6           0       -2.894400   -2.174030    0.395700
     17          6           0       -1.491152   -2.565104    0.860186
     18          1           0       -2.337167   -0.250852   -0.402879
     19          1           0       -2.879299   -0.204925    1.271967
     20          1           0       -3.099288   -2.626357   -0.583094
     21          1           0       -3.640436   -2.579747    1.090998
     22          1           0       -1.279844   -2.140884    1.847094
     23          1           0       -0.735622   -2.187758    0.163489
     24          1           0       -1.378604   -3.651728    0.926820
     25          6           0       -4.480346   -0.253452   -0.170427
     26          6           0       -4.668491    1.260478   -0.273395
     27          6           0       -6.071740    1.651553   -0.737881
     28          1           0       -4.683593   -0.708626   -1.149662
     29          1           0       -5.225724   -0.662700    0.525182
     30          1           0       -3.922455    1.666195   -0.968694
     31          1           0       -4.463602    1.712805    0.705399
     32          1           0       -6.827269    1.274206   -0.041185
     33          1           0       -6.283047    1.227332   -1.724790
     34          1           0       -6.184288    2.738177   -0.804515
 ---------------------------------------------------------------------

 SCF Done:  E(RHF) =  -669.535732579     A.U. after   15 cycles
 E2 =    -0.2091453471D+01 EUMP2 =    -0.67162718605009D+03

 The electronic state is 1-A.
 Alpha  occ. eigenvalues --  -20.60723 -20.60717 -15.85773 -11.31120 -11.27699
 Alpha  occ. eigenvalues --  -11.27659 -11.27440 -11.26716 -11.26684 -11.22097
 Alpha  occ. eigenvalues --  -11.21970 -11.21880 -11.21811 -11.21460 -11.21282
 Alpha  occ. eigenvalues --   -1.59797  -1.39351  -1.19296  -1.08878  -1.08696
 Alpha  occ. eigenvalues --   -1.04696  -1.03907  -0.96352  -0.95533  -0.87365
 Alpha  occ. eigenvalues --   -0.86096  -0.82363  -0.79976  -0.78728  -0.77407
 Alpha  occ. eigenvalues --   -0.71993  -0.71119  -0.70416  -0.65505  -0.64948
 Alpha  occ. eigenvalues --   -0.64706  -0.62081  -0.61274  -0.59716  -0.57972
 Alpha  occ. eigenvalues --   -0.55649  -0.55199  -0.53033  -0.52997  -0.52969
 Alpha  occ. eigenvalues --   -0.52598  -0.50287  -0.48752  -0.48748  -0.48280
 Alpha  occ. eigenvalues --   -0.47003  -0.46250  -0.46175  -0.44759  -0.44172
 Alpha  occ. eigenvalues --   -0.37284  -0.36299
 Alpha virt. eigenvalues --    0.05117   0.11350   0.16606   0.19871   0.22700
 Alpha virt. eigenvalues --    0.23687   0.25426   0.26005   0.26660   0.28359
 Alpha virt. eigenvalues --    0.29489   0.30390   0.31431   0.31566   0.31781

 Mulliken charges:
               1
     1  C   -0.170487
     2  C   -0.219169
     3  C   -0.169921
     4  C    0.156413
     5  C   -0.178314
     6  C   -0.224727
     7  H    0.225427
     8  H    0.223142
     9  H    0.275403
    10  H    0.289833
    11  H    0.225975
    12  N    0.486739
    13  O   -0.461733
    14  O   -0.460469
    15  C   -0.300133
    16  C   -0.300084
    17  C   -0.483223
    18  H    0.143827
    19  H    0.146327
    20  H    0.155557
    21  H    0.153759
    22  H    0.152859
    23  H    0.160174
    24  H    0.169108
    25  C   -0.298033
    26  C   -0.300081
    27  C   -0.475822
    28  H    0.152397
    29  H    0.151930
    30  H    0.149854
    31  H    0.149741
    32  H    0.156523
    33  H    0.156931
    34  H    0.160277
 Sum of Mulliken charges =  -0.00000

 Dipole moment (field-independent basis, Debye):
    X=             -1.8539    Y=              4.6279    Z=              1.2154  Tot=              5.1314
 Quadrupole moment (field-independent basis, Debye-Ang):
   XX=           -101.3110   YY=            -93.1051   ZZ=            -95.0642
   XY=             16.9755   XZ=              3.0369   YZ=             -0.3185

 Normal termination of Gaussian 16 at Thu May  6 12:44:36 2021.
