 Gaussian 16, Revision A.03,
 Gaussian 16:  EM64L-G16RevA.03 25-Dec-2016

 -------------
 #p 6-31g* mp2
 -------------

 ------------------------------------------------------
 Input file generated by CHIRIPA (05-May-2021 14:55:21)
 ------------------------------------------------------
 Symbolic Z-matrix:
 Charge =  0 Multiplicity = 1

                         Standard orientation:
 ---------------------------------------------------------------------
 Center     Atomic      Atomic             Coordinates (Angstroms)
 Number     Number       Type             X           Y           Z
 ---------------------------------------------------------------------
      1          6           0       -3.913769    2.588741    0.011474
      2          6           0       -4.991164    1.706362   -0.119473
      3          6           0       -4.779869    0.324410   -0.129977
      4          6           0       -3.472240   -0.142744   -0.006838
      5          6           0       -2.378114    0.710929    0.125156
      6          6           0       -2.612976    2.089089    0.133156
      7          1           0       -4.087061    3.660801    0.018661
      8          1           0       -6.002452    2.091562   -0.214149
      9          1           0       -5.595697   -0.381166   -0.230004
     10          1           0       -1.381334    0.297061    0.217678
     11          1           0       -1.774342    2.772001    0.234992
     12          7           0       -3.236076   -1.603747   -0.016633
     13          8           0       -2.074495   -1.990081    0.093419
     14          8           0       -4.217025   -2.334883   -0.134176
     15          6           0        5.241719   -0.273407   -0.047185
     16          6           0        6.111500    0.984030   -0.029375
     17          6           0        7.604325    0.671808   -0.137917
     18          1           0        5.541454   -0.930622    0.780566
     19          1           0        5.434212   -0.830848   -0.974332
     20          1           0        5.916403    1.539646    0.896825
     21          1           0        5.809530    1.638415   -0.857148
     22          1           0        7.819504    0.137836   -1.069138
     23          1           0        7.926986    0.038506    0.694800
     24          1           0        8.207555    1.584912   -0.123255
     25          6           0        3.746856    0.022406    0.060558
     26          6           0        2.877076   -1.235032    0.042747
     27          6           0        1.384249   -0.922809    0.151290
     28          1           0        3.554363    0.579847    0.987705
     29          1           0        3.447121    0.679621   -0.767193
     30          1           0        3.179045   -1.889416    0.870522
     31          1           0        3.072171   -1.790647   -0.883451
     32          1           0        1.061590   -0.289507   -0.681428
     33          1           0        1.169071   -0.388837    1.082511
     34          1           0        0.781020   -1.835913    0.136628
 ---------------------------------------------------------------------

 SCF Done:  E(RHF) =  -669.535763311     A.U. after   15 cycles
 E2 =    -0.2091520212D+01 EUMP2 =    -0.67162728352287D+03

 The electronic state is 1-A.
 Alpha  occ. eigenvalues --  -20.60771 -20.60761 -15.85819 -11.31133 -11.27720
 Alpha  occ. eigenvalues --  -11.27649 -11.27462 -11.26729 -11.26704 -11.21584
 Alpha  occ. eigenvalues --  -11.21371 -11.21319 -11.21263 -11.21047 -11.20727
 Alpha  occ. eigenvalues --   -1.59842  -1.39397  -1.19312  -1.08721  -1.08328
 Alpha  occ. eigenvalues --   -1.04708  -1.03395  -0.95860  -0.95548  -0.86877
 Alpha  occ. eigenvalues --   -0.86105  -0.82396  -0.79489  -0.78163  -0.77422
 Alpha  occ. eigenvalues --   -0.72049  -0.71161  -0.70426  -0.64970  -0.64963
 Alpha  occ. eigenvalues --   -0.64716  -0.62059  -0.60801  -0.59167  -0.57442
 Alpha  occ. eigenvalues --   -0.55228  -0.55155  -0.53046  -0.52894  -0.52425
 Alpha  occ. eigenvalues --   -0.52225  -0.49823  -0.48797  -0.48782  -0.47776
 Alpha  occ. eigenvalues --   -0.46521  -0.45693  -0.45624  -0.44811  -0.43597
 Alpha  occ. eigenvalues --   -0.37303  -0.36311
 Alpha virt. eigenvalues --    0.05083   0.11329   0.16580   0.21131   0.22967
 Alpha virt. eigenvalues --    0.24387   0.25881   0.26705   0.27685   0.27788
 Alpha virt. eigenvalues --    0.29444   0.30685   0.31368   0.31615   0.32474

 Mulliken charges:
               1
     1  C   -0.170158
     2  C   -0.219361
     3  C   -0.169807
     4  C    0.154588
     5  C   -0.179226
     6  C   -0.223187
     7  H    0.225365
     8  H    0.223163
     9  H    0.275334
    10  H    0.295748
    11  H    0.223954
    12  N    0.491768
    13  O   -0.466223
    14  O   -0.460331
    15  C   -0.298123
    16  C   -0.299324
    17  C   -0.475633
    18  H    0.150390
    19  H    0.150251
    20  H    0.150879
    21  H    0.150796
    22  H    0.155561
    23  H    0.155584
    24  H    0.159575
    25  C   -0.298020
    26  C   -0.300439
    27  C   -0.485957
    28  H    0.146903
    29  H    0.146806
    30  H    0.153659
    31  H    0.153803
    32  H    0.145070
    33  H    0.146024
    34  H    0.190571
 Sum of Mulliken charges =  -0.00000

 Dipole moment (field-independent basis, Debye):
    X=             -0.8664    Y=              4.9839    Z=              0.0325  Tot=              5.0588
 Quadrupole moment (field-independent basis, Debye-Ang):
   XX=            -85.7458   YY=            -96.4639   ZZ=            -94.6468
   XY=            -17.2870   XZ=              0.6133   YZ=             -0.0189

 Normal termination of Gaussian 16 at Thu May  6 17:31:18 2021.
