 Gaussian 16, Revision A.03,
 Gaussian 16:  EM64L-G16RevA.03 25-Dec-2016

 -------------
 #p 6-31g* mp2
 -------------

 ------------------------------------------------------
 Input file generated by CHIRIPA (05-May-2021 14:51:09)
 ------------------------------------------------------
 Symbolic Z-matrix:
 Charge =  0 Multiplicity = 1

                         Standard orientation:
 ---------------------------------------------------------------------
 Center     Atomic      Atomic             Coordinates (Angstroms)
 Number     Number       Type             X           Y           Z
 ---------------------------------------------------------------------
      1          6           0        5.437207    0.097282   -0.155423
      2          6           0        6.507820   -0.988440   -0.041496
      3          6           0        7.850266   -0.559427   -0.634437
      4          1           0        5.304403    0.362794   -1.213162
      5          1           0        5.790188    1.005289    0.352831
      6          1           0        6.152346   -1.894573   -0.548622
      7          1           0        6.637954   -1.251535    1.016078
      8          1           0        8.230588    0.330611   -0.122783
      9          1           0        7.742221   -0.316081   -1.696374
     10          1           0        8.601001   -1.350485   -0.542331
     11          6           0        4.089556   -0.316695    0.432954
     12          6           0        3.018942    0.769027    0.319026
     13          6           0        1.676496    0.340014    0.911967
     14          1           0        3.736575   -1.224702   -0.075301
     15          1           0        4.222360   -0.582208    1.490692
     16          1           0        2.888808    1.032122   -0.738548
     17          1           0        3.374417    1.675160    0.826152
     18          1           0        1.784541    0.096668    1.973904
     19          1           0        1.296174   -0.550024    0.400314
     20          1           0        0.925761    1.131072    0.819862
     21          6           0       -5.365584   -0.223592   -0.469968
     22          6           0       -6.442794   -0.655969    0.525348
     23          6           0       -7.641133   -1.321135   -0.152392
     24          1           0       -5.806624    0.468772   -1.200077
     25          1           0       -5.026532   -1.101578   -1.037047
     26          1           0       -6.778727    0.222334    1.091344
     27          1           0       -5.999092   -1.347234    1.253288
     28          1           0       -7.326098   -2.213777   -0.702430
     29          1           0       -8.110162   -0.635291   -0.865294
     30          1           0       -8.399024   -1.622283    0.577521
     31          6           0       -4.161178    0.443006    0.192438
     32          6           0       -3.083968    0.875382   -0.802879
     33          6           0       -1.885630    1.540548   -0.125139
     34          1           0       -4.500230    1.320992    0.759517
     35          1           0       -3.720138   -0.249359    0.922548
     36          1           0       -3.527669    1.566648   -1.530818
     37          1           0       -2.748035   -0.002920   -1.368874
     38          1           0       -1.416600    0.854705    0.587765
     39          1           0       -2.200664    2.433191    0.424900
     40          1           0       -1.127738    1.841696   -0.855051
 ---------------------------------------------------------------------

 SCF Done:  E(RHF) =  -470.732714430     A.U. after   11 cycles
 E2 =    -0.1582420729D+01 EUMP2 =    -0.47231513515907D+03

 The electronic state is 1-A.
 Alpha  occ. eigenvalues --  -11.21590 -11.21582 -11.21575 -11.21547 -11.21389
 Alpha  occ. eigenvalues --  -11.21372 -11.21329 -11.21311 -11.21063 -11.21056
 Alpha  occ. eigenvalues --  -11.21007 -11.20936  -1.08415  -1.08391  -1.03532
 Alpha  occ. eigenvalues --   -1.03468  -0.96025  -0.95880  -0.87092  -0.86855
 Alpha  occ. eigenvalues --   -0.79656  -0.79482  -0.78230  -0.78204  -0.65051
 Alpha  occ. eigenvalues --   -0.65020  -0.60963  -0.60859  -0.59445  -0.59215
 Alpha  occ. eigenvalues --   -0.57580  -0.57548  -0.55328  -0.55163  -0.52941
 Alpha  occ. eigenvalues --   -0.52529  -0.52365  -0.52205  -0.49956  -0.49786
 Alpha  occ. eigenvalues --   -0.47917  -0.47840  -0.46639  -0.46549  -0.45769
 Alpha  occ. eigenvalues --   -0.45750  -0.45695  -0.45672  -0.43861  -0.43585
 Alpha virt. eigenvalues --    0.22584   0.22971   0.23738   0.24750   0.26535
 Alpha virt. eigenvalues --    0.26705   0.27036   0.27427   0.27606   0.29001
 Alpha virt. eigenvalues --    0.30508   0.30746   0.31486   0.31697   0.32243

 Mulliken charges:
               1
     1  C   -0.298210
     2  C   -0.299580
     3  C   -0.475673
     4  H    0.149520
     5  H    0.149464
     6  H    0.151829
     7  H    0.151884
     8  H    0.155160
     9  H    0.155130
    10  H    0.160166
    11  C   -0.298398
    12  C   -0.299567
    13  C   -0.481777
    14  H    0.149260
    15  H    0.149503
    16  H    0.151471
    17  H    0.151700
    18  H    0.153951
    19  H    0.153827
    20  H    0.170155
    21  C   -0.298277
    22  C   -0.299638
    23  C   -0.475693
    24  H    0.149599
    25  H    0.149465
    26  H    0.151905
    27  H    0.151976
    28  H    0.155154
    29  H    0.155147
    30  H    0.160226
    31  C   -0.298626
    32  C   -0.299765
    33  C   -0.479781
    34  H    0.149449
    35  H    0.149988
    36  H    0.151570
    37  H    0.151833
    38  H    0.161143
    39  H    0.154501
    40  H    0.160007
 Sum of Mulliken charges =  -0.00000

 Dipole moment (field-independent basis, Debye):
    X=             -0.0225    Y=              0.0122    Z=              0.0100  Tot=              0.0274
 Quadrupole moment (field-independent basis, Debye-Ang):
   XX=            -86.6730   YY=            -84.1012   ZZ=            -84.2311
   XY=             -0.9056   XZ=              0.3509   YZ=              0.1779

 Normal termination of Gaussian 16 at Wed May  5 22:57:15 2021.
