 Gaussian 16, Revision A.03,
 Gaussian 16:  EM64L-G16RevA.03 25-Dec-2016

 -------------
 #p 6-31g* mp2
 -------------

 ------------------------------------------------------
 Input file generated by CHIRIPA (05-May-2021 14:57:24)
 ------------------------------------------------------
 Symbolic Z-matrix:
 Charge =  0 Multiplicity = 1

                         Standard orientation:
 ---------------------------------------------------------------------
 Center     Atomic      Atomic             Coordinates (Angstroms)
 Number     Number       Type             X           Y           Z
 ---------------------------------------------------------------------
      1          6           0       -1.768238    1.323617   -0.434519
      2          6           0       -2.923088    2.105939   -0.538515
      3          6           0       -4.185435    1.538043   -0.342245
      4          6           0       -4.256441    0.178581   -0.042063
      5          6           0       -3.124262   -0.627192    0.068345
      6          6           0       -1.872327   -0.038051   -0.131955
      7          1           0       -0.791661    1.773025   -0.588552
      8          1           0       -2.845275    3.163688   -0.773374
      9          1           0       -5.095739    2.120461   -0.416761
     10          1           0       -3.233698   -1.678881    0.303701
     11          1           0       -0.977160   -0.648047   -0.050562
     12          7           0       -5.587320   -0.433871    0.167853
     13          8           0       -5.622972   -1.633862    0.431268
     14          8           0       -6.569611    0.297677    0.064994
     15          6           0        5.950748    1.364063    0.126668
     16          6           0        5.827837    0.464981   -0.937787
     17          6           0        4.771554   -0.450095   -0.975907
     18          6           0        3.852092   -0.438416    0.071824
     19          6           0        3.947446    0.444863    1.146077
     20          6           0        5.011816    1.351157    1.163375
     21          1           0        6.774434    2.071504    0.148193
     22          1           0        6.555542    0.472734   -1.744280
     23          1           0        4.652486   -1.157162   -1.787878
     24          1           0        3.206423    0.413221    1.935571
     25          1           0        5.104762    2.048239    1.991313
     26          7           0        2.729573   -1.402517    0.042490
     27          8           0        1.932705   -1.372038    0.977750
     28          8           0        2.667865   -2.170401   -0.915206
 ---------------------------------------------------------------------

 SCF Done:  E(RHF) =  -868.339761343     A.U. after   16 cycles
 E2 =    -0.2598483975D+01 EUMP2 =    -0.87093824531786D+03

 The electronic state is 1-A.
 Alpha  occ. eigenvalues --  -20.61866 -20.61838 -20.60165 -20.60151 -15.86869
 Alpha  occ. eigenvalues --  -15.85206 -11.32020 -11.30465 -11.28564 -11.28542
 Alpha  occ. eigenvalues --  -11.28244 -11.27515 -11.27497 -11.27051 -11.26905
 Alpha  occ. eigenvalues --  -11.26730 -11.26097 -11.25789  -1.60920  -1.59238
 Alpha  occ. eigenvalues --   -1.40474  -1.38794  -1.20169  -1.18608  -1.09602
 Alpha  occ. eigenvalues --   -1.08032  -1.05532  -1.03968  -0.96470  -0.94891
 Alpha  occ. eigenvalues --   -0.86938  -0.85375  -0.83303  -0.81706  -0.78382
 Alpha  occ. eigenvalues --   -0.76762  -0.73081  -0.72234  -0.71428  -0.71260
 Alpha  occ. eigenvalues --   -0.70558  -0.69746  -0.65816  -0.65522  -0.64252
 Alpha  occ. eigenvalues --   -0.63931  -0.62876  -0.61293  -0.56029  -0.54516
 Alpha  occ. eigenvalues --   -0.53882  -0.53612  -0.52339  -0.52030  -0.49858
 Alpha  occ. eigenvalues --   -0.49827  -0.48189  -0.48174  -0.45914  -0.44223
 Alpha  occ. eigenvalues --   -0.38136  -0.37129  -0.36613  -0.35567
 Alpha virt. eigenvalues --    0.04094   0.05728   0.10528   0.12077   0.15629
 Alpha virt. eigenvalues --    0.17256   0.20725   0.22269   0.26661   0.27553
 Alpha virt. eigenvalues --    0.28354   0.28961   0.30343   0.31766   0.31928

 Mulliken charges:
               1
     1  C   -0.172757
     2  C   -0.218593
     3  C   -0.173123
     4  C    0.158449
     5  C   -0.172804
     6  C   -0.225080
     7  H    0.221137
     8  H    0.219087
     9  H    0.272648
    10  H    0.277571
    11  H    0.245223
    12  N    0.488002
    13  O   -0.460232
    14  O   -0.463231
    15  C   -0.170005
    16  C   -0.218604
    17  C   -0.170750
    18  C    0.156472
    19  C   -0.172589
    20  C   -0.218751
    21  H    0.228316
    22  H    0.226101
    23  H    0.277141
    24  H    0.275791
    25  H    0.225683
    26  N    0.487079
    27  O   -0.465864
    28  O   -0.456318
 Sum of Mulliken charges =  -0.00000

 Dipole moment (field-independent basis, Debye):
    X=              9.1384    Y=              5.4292    Z=             -0.6427  Tot=             10.6489
 Quadrupole moment (field-independent basis, Debye-Ang):
   XX=           -113.5743   YY=           -103.3035   ZZ=           -101.8308
   XY=              0.9020   XZ=              2.1399   YZ=              1.1300

 Normal termination of Gaussian 16 at Thu May  6 06:40:25 2021.
