 Gaussian 16, Revision A.03,
 Gaussian 16:  EM64L-G16RevA.03 25-Dec-2016

 -------------
 #p 6-31g* mp2
 -------------

 ------------------------------------------------------
 Input file generated by CHIRIPA (05-May-2021 14:55:19)
 ------------------------------------------------------
 Symbolic Z-matrix:
 Charge =  0 Multiplicity = 1

                         Standard orientation:
 ---------------------------------------------------------------------
 Center     Atomic      Atomic             Coordinates (Angstroms)
 Number     Number       Type             X           Y           Z
 ---------------------------------------------------------------------
      1          6           0        1.084031    0.474349    0.973751
      2          6           0        2.193868    1.184471    1.443336
      3          6           0        3.483351    0.846164    1.022232
      4          6           0        3.627099   -0.212584    0.126866
      5          6           0        2.541131   -0.939160   -0.358984
      6          6           0        1.260893   -0.583335    0.075673
      7          1           0        0.085920    0.743959    1.306139
      8          1           0        2.059517    2.006341    2.140850
      9          1           0        4.360011    1.379094    1.369895
     10          1           0        2.706696   -1.753617   -1.053726
     11          1           0        0.400809   -1.136589   -0.290676
     12          7           0        4.987324   -0.580007   -0.326113
     13          8           0        5.087255   -1.516838   -1.115416
     14          8           0        5.927780    0.075794    0.116723
     15          6           0       -4.659096   -0.435892    0.048466
     16          6           0       -6.185725   -0.398363    0.125809
     17          6           0       -6.777820   -1.666690    0.741086
     18          1           0       -4.349533   -1.309956   -0.540708
     19          1           0       -4.251156   -0.579440    1.058601
     20          1           0       -6.590620   -0.253542   -0.883994
     21          1           0       -6.491695    0.475821    0.714706
     22          1           0       -6.401768   -1.812934    1.758828
     23          1           0       -6.501255   -2.546441    0.151044
     24          1           0       -7.870276   -1.618533    0.786715
     25          6           0       -4.052373    0.825083   -0.564362
     26          6           0       -2.525744    0.787554   -0.641705
     27          6           0       -1.933649    2.055881   -1.256982
     28          1           0       -4.460313    0.968632   -1.574497
     29          1           0       -4.361937    1.699148    0.024812
     30          1           0       -2.219774   -0.086630   -1.230602
     31          1           0       -2.120850    0.642733    0.368098
     32          1           0       -2.210214    2.935633   -0.666941
     33          1           0       -2.309701    2.202125   -2.274724
     34          1           0       -0.841193    2.007723   -1.302611
 ---------------------------------------------------------------------

 SCF Done:  E(RHF) =  -669.535493892     A.U. after   15 cycles
 E2 =    -0.2091950281D+01 EUMP2 =    -0.67162744417364D+03

 The electronic state is 1-A.
 Alpha  occ. eigenvalues --  -20.60737 -20.60732 -15.85790 -11.31153 -11.27720
 Alpha  occ. eigenvalues --  -11.27713 -11.27426 -11.26729 -11.26708 -11.22836
 Alpha  occ. eigenvalues --  -11.22298 -11.22248 -11.22166 -11.21989 -11.21616
 Alpha  occ. eigenvalues --   -1.59813  -1.39366  -1.19323  -1.09313  -1.08714
 Alpha  occ. eigenvalues --   -1.04724  -1.04382  -0.96786  -0.95550  -0.87798
 Alpha  occ. eigenvalues --   -0.86117  -0.82386  -0.80493  -0.79114  -0.77431
 Alpha  occ. eigenvalues --   -0.72008  -0.71136  -0.70450  -0.65942  -0.64971
 Alpha  occ. eigenvalues --   -0.64727  -0.62075  -0.61788  -0.60170  -0.58412
 Alpha  occ. eigenvalues --   -0.56079  -0.55183  -0.53500  -0.53261  -0.52958
 Alpha  occ. eigenvalues --   -0.52810  -0.50726  -0.48789  -0.48767  -0.48751
 Alpha  occ. eigenvalues --   -0.47526  -0.46641  -0.46553  -0.44773  -0.44620
 Alpha  occ. eigenvalues --   -0.37284  -0.36329
 Alpha virt. eigenvalues --    0.05081   0.11275   0.16534   0.19655   0.22447
 Alpha virt. eigenvalues --    0.23912   0.24804   0.25707   0.27136   0.27523
 Alpha virt. eigenvalues --    0.28866   0.29634   0.31063   0.31313   0.31626

 Mulliken charges:
               1
     1  C   -0.173535
     2  C   -0.219828
     3  C   -0.170907
     4  C    0.158456
     5  C   -0.171224
     6  C   -0.222249
     7  H    0.232025
     8  H    0.223580
     9  H    0.275429
    10  H    0.275497
    11  H    0.226429
    12  N    0.488047
    13  O   -0.460536
    14  O   -0.460513
    15  C   -0.298920
    16  C   -0.300260
    17  C   -0.476197
    18  H    0.149811
    19  H    0.147780
    20  H    0.153710
    21  H    0.152929
    22  H    0.155305
    23  H    0.155934
    24  H    0.162466
    25  C   -0.297798
    26  C   -0.304223
    27  C   -0.480435
    28  H    0.153654
    29  H    0.151640
    30  H    0.151334
    31  H    0.141481
    32  H    0.156110
    33  H    0.160626
    34  H    0.164381
 Sum of Mulliken charges =  -0.00000

 Dipole moment (field-independent basis, Debye):
    X=             -4.9975    Y=              1.3305    Z=              1.5280  Tot=              5.3926
 Quadrupole moment (field-independent basis, Debye-Ang):
   XX=           -128.8514   YY=            -93.4469   ZZ=            -92.5132
   XY=              6.8521   XZ=              6.9707   YZ=              2.9140

 Normal termination of Gaussian 16 at Wed May  5 23:45:17 2021.
