 Gaussian 16, Revision A.03,
 Gaussian 16:  EM64L-G16RevA.03 25-Dec-2016

 -------------
 #p 6-31g* mp2
 -------------

 ------------------------------------------------------
 Input file generated by CHIRIPA (05-May-2021 14:57:26)
 ------------------------------------------------------
 Symbolic Z-matrix:
 Charge =  0 Multiplicity = 1

                         Standard orientation:
 ---------------------------------------------------------------------
 Center     Atomic      Atomic             Coordinates (Angstroms)
 Number     Number       Type             X           Y           Z
 ---------------------------------------------------------------------
      1          6           0        1.092702   -1.879340   -0.199941
      2          6           0        2.049539   -1.763916   -1.213678
      3          6           0        3.162633   -0.934329   -1.048279
      4          6           0        3.287925   -0.231463    0.149040
      5          6           0        2.351704   -0.325438    1.177606
      6          6           0        1.246567   -1.160999    0.990367
      7          1           0        0.231115   -2.526104   -0.336910
      8          1           0        1.932636   -2.320602   -2.139139
      9          1           0        3.918471   -0.826420   -1.816706
     10          1           0        2.495533    0.242003    2.089056
     11          1           0        0.505057   -1.248694    1.779364
     12          7           0        4.462095    0.649946    0.335701
     13          8           0        4.549434    1.258612    1.399907
     14          8           0        5.272838    0.715439   -0.585735
     15          6           0       -4.321744   -1.743243    0.486109
     16          6           0       -3.082053   -1.811510   -0.158116
     17          6           0       -2.393094   -0.643369   -0.497719
     18          6           0       -2.975754    0.581681   -0.176705
     19          6           0       -4.209275    0.682499    0.464817
     20          6           0       -4.880413   -0.498651    0.794975
     21          1           0       -4.850022   -2.655736    0.746253
     22          1           0       -2.645774   -2.776693   -0.399215
     23          1           0       -1.431943   -0.667275   -0.996754
     24          1           0       -4.618798    1.659230    0.692210
     25          1           0       -5.843024   -0.442600    1.295258
     26          7           0       -2.255815    1.825225   -0.531229
     27          8           0       -2.790567    2.892181   -0.237485
     28          8           0       -1.170409    1.709415   -1.096134
 ---------------------------------------------------------------------

 SCF Done:  E(RHF) =  -868.335933007     A.U. after   16 cycles
 E2 =    -0.2601885730D+01 EUMP2 =    -0.87093781873727D+03

 The electronic state is 1-A.
 Alpha  occ. eigenvalues --  -20.61218 -20.61208 -20.60577 -20.60570 -15.86277
 Alpha  occ. eigenvalues --  -15.85631 -11.31833 -11.31130 -11.28445 -11.28412
 Alpha  occ. eigenvalues --  -11.28229 -11.27695 -11.27680 -11.27638 -11.27591
 Alpha  occ. eigenvalues --  -11.27434 -11.26849 -11.26822  -1.60291  -1.59643
 Alpha  occ. eigenvalues --   -1.39836  -1.39194  -1.20047  -1.19323  -1.09396
 Alpha  occ. eigenvalues --   -1.08753  -1.05497  -1.04739  -0.96199  -0.95556
 Alpha  occ. eigenvalues --   -0.86868  -0.86163  -0.83049  -0.82371  -0.78058
 Alpha  occ. eigenvalues --   -0.77352  -0.72491  -0.71859  -0.71626  -0.71213
 Alpha  occ. eigenvalues --   -0.70954  -0.70508  -0.65695  -0.65508  -0.65009
 Alpha  occ. eigenvalues --   -0.64782  -0.62837  -0.62082  -0.55987  -0.55371
 Alpha  occ. eigenvalues --   -0.53808  -0.53662  -0.52947  -0.52863  -0.49265
 Alpha  occ. eigenvalues --   -0.49230  -0.48626  -0.48598  -0.45200  -0.44570
 Alpha  occ. eigenvalues --   -0.38035  -0.37483  -0.36994  -0.36269
 Alpha virt. eigenvalues --    0.04458   0.05138   0.10414   0.11451   0.15836
 Alpha virt. eigenvalues --    0.16436   0.19226   0.21966   0.25078   0.27247
 Alpha virt. eigenvalues --    0.27673   0.29300   0.30018   0.31818   0.32569

 Mulliken charges:
               1
     1  C   -0.179529
     2  C   -0.215981
     3  C   -0.167705
     4  C    0.162402
     5  C   -0.166443
     6  C   -0.214383
     7  H    0.215455
     8  H    0.222449
     9  H    0.276845
    10  H    0.277207
    11  H    0.223082
    12  N    0.488223
    13  O   -0.458962
    14  O   -0.459669
    15  C   -0.170092
    16  C   -0.225160
    17  C   -0.176464
    18  C    0.156970
    19  C   -0.169571
    20  C   -0.218879
    21  H    0.227209
    22  H    0.217134
    23  H    0.279773
    24  H    0.278305
    25  H    0.226075
    26  N    0.487315
    27  O   -0.458313
    28  O   -0.457293
 Sum of Mulliken charges =  -0.00000

 Dipole moment (field-independent basis, Debye):
    X=             -6.5793    Y=             -7.1895    Z=              0.6432  Tot=              9.7668
 Quadrupole moment (field-independent basis, Debye-Ang):
   XX=           -113.3052   YY=           -108.2781   ZZ=           -101.2965
   XY=             -0.5035   XZ=             -9.7274   YZ=              3.6859

 Normal termination of Gaussian 16 at Fri May  7 00:27:42 2021.
