 Gaussian 16, Revision A.03,
 Gaussian 16:  EM64L-G16RevA.03 25-Dec-2016

 -------------
 #p 6-31g* mp2
 -------------

 ------------------------------------------------------
 Input file generated by CHIRIPA (05-May-2021 14:53:12)
 ------------------------------------------------------
 Symbolic Z-matrix:
 Charge =  0 Multiplicity = 1

                         Standard orientation:
 ---------------------------------------------------------------------
 Center     Atomic      Atomic             Coordinates (Angstroms)
 Number     Number       Type             X           Y           Z
 ---------------------------------------------------------------------
      1          6           0        3.338491    0.740041   -0.168153
      2          6           0        4.105762    1.901749    0.464076
      3          6           0        3.396796    3.244737    0.286465
      4          1           0        3.196072    0.942367   -1.238539
      5          1           0        2.334929    0.687533    0.276259
      6          1           0        5.108063    1.951191    0.019592
      7          1           0        4.246538    1.696545    1.533042
      8          1           0        2.403382    3.219664    0.745922
      9          1           0        3.269801    3.475757   -0.776128
     10          1           0        3.962569    4.061237    0.745909
     11          6           0        4.034619   -0.609213    0.001095
     12          6           0        3.267348   -1.770921   -0.631134
     13          6           0        3.976314   -3.113909   -0.453523
     14          1           0        5.038181   -0.556704   -0.443317
     15          1           0        4.177038   -0.811539    1.071481
     16          1           0        3.126572   -1.565717   -1.700100
     17          1           0        2.265048   -1.820363   -0.186650
     18          1           0        4.103309   -3.344929    0.609070
     19          1           0        4.969728   -3.088836   -0.912980
     20          1           0        3.410542   -3.930409   -0.912967
     21          6           0       -5.349260    0.206582   -0.385157
     22          6           0       -4.912666   -0.526273    0.723369
     23          6           0       -3.547014   -0.675606    0.982683
     24          6           0       -2.641414   -0.076017    0.108802
     25          6           0       -3.045209    0.660225   -1.003937
     26          6           0       -4.415785    0.796452   -1.243758
     27          1           0       -6.412044    0.317497   -0.579027
     28          1           0       -5.635355   -0.985473    1.391876
     29          1           0       -3.181492   -1.237592    1.833556
     30          1           0       -2.300974    1.106393   -1.652371
     31          1           0       -4.751965    1.366159   -2.105421
     32          7           0       -1.193053   -0.227172    0.373007
     33          8           0       -0.415331    0.310848   -0.412053
     34          8           0       -0.862976   -0.880806    1.360149
 ---------------------------------------------------------------------

 SCF Done:  E(RHF) =  -669.536696535     A.U. after   15 cycles
 E2 =    -0.2091610024D+01 EUMP2 =    -0.67162830655888D+03

 The electronic state is 1-A.
 Alpha  occ. eigenvalues --  -20.61121 -20.61099 -15.86111 -11.31383 -11.27936
 Alpha  occ. eigenvalues --  -11.27931 -11.27664 -11.26929 -11.26919 -11.20295
 Alpha  occ. eigenvalues --  -11.20046 -11.19966 -11.19899 -11.19884 -11.19540
 Alpha  occ. eigenvalues --   -1.60155  -1.39711  -1.19543  -1.08959  -1.06915
 Alpha  occ. eigenvalues --   -1.04929  -1.02186  -0.95808  -0.94646  -0.86333
 Alpha  occ. eigenvalues --   -0.85675  -0.82642  -0.78226  -0.77703  -0.76676
 Alpha  occ. eigenvalues --   -0.72317  -0.71459  -0.70651  -0.65198  -0.64933
 Alpha  occ. eigenvalues --   -0.63546  -0.62276  -0.59591  -0.58023  -0.56253
 Alpha  occ. eigenvalues --   -0.55438  -0.53942  -0.53265  -0.53020  -0.51413
 Alpha  occ. eigenvalues --   -0.51083  -0.49159  -0.49092  -0.48581  -0.46558
 Alpha  occ. eigenvalues --   -0.45255  -0.45113  -0.44272  -0.43972  -0.42379
 Alpha  occ. eigenvalues --   -0.37519  -0.36527
 Alpha virt. eigenvalues --    0.04811   0.11129   0.16323   0.21268   0.24334
 Alpha virt. eigenvalues --    0.25543   0.27194   0.28057   0.28227   0.28984
 Alpha virt. eigenvalues --    0.29422   0.30885   0.32389   0.32621   0.33032

 Mulliken charges:
               1
     1  C   -0.306745
     2  C   -0.298616
     3  C   -0.474031
     4  H    0.144307
     5  H    0.179211
     6  H    0.145811
     7  H    0.149043
     8  H    0.157371
     9  H    0.152169
    10  H    0.154102
    11  C   -0.296932
    12  C   -0.302146
    13  C   -0.474772
    14  H    0.141721
    15  H    0.147026
    16  H    0.147330
    17  H    0.168928
    18  H    0.153551
    19  H    0.150198
    20  H    0.155729
    21  C   -0.170350
    22  C   -0.218625
    23  C   -0.170539
    24  C    0.157847
    25  C   -0.170636
    26  C   -0.218585
    27  H    0.226342
    28  H    0.224114
    29  H    0.275957
    30  H    0.276291
    31  H    0.224208
    32  N    0.488881
    33  O   -0.458036
    34  O   -0.460122
 Sum of Mulliken charges =  -0.00000

 Dipole moment (field-independent basis, Debye):
    X=             -5.6265    Y=              0.5170    Z=             -0.8813  Tot=              5.7185
 Quadrupole moment (field-independent basis, Debye-Ang):
   XX=            -69.9150   YY=            -95.9944   ZZ=            -91.2823
   XY=              0.0114   XZ=              0.7649   YZ=             -2.7958

 Normal termination of Gaussian 16 at Thu May  6 04:07:59 2021.
