 Gaussian 16, Revision A.03,
 Gaussian 16:  EM64L-G16RevA.03 25-Dec-2016

 -------------
 #p 6-31g* mp2
 -------------

 ------------------------------------------------------
 Input file generated by CHIRIPA (05-May-2021 14:53:15)
 ------------------------------------------------------
 Symbolic Z-matrix:
 Charge =  0 Multiplicity = 1

                         Standard orientation:
 ---------------------------------------------------------------------
 Center     Atomic      Atomic             Coordinates (Angstroms)
 Number     Number       Type             X           Y           Z
 ---------------------------------------------------------------------
      1          6           0        3.054058   -0.542491    0.031463
      2          6           0        3.862425   -1.326699   -1.002726
      3          6           0        3.588558   -2.830061   -0.950836
      4          1           0        3.285942   -0.924454    1.035096
      5          1           0        1.983492   -0.727018   -0.133564
      6          1           0        4.931094   -1.139654   -0.836666
      7          1           0        3.628734   -0.942695   -2.003998
      8          1           0        2.529682   -3.035443   -1.138454
      9          1           0        3.839442   -3.233521    0.035510
     10          1           0        4.176778   -3.371328   -1.698423
     11          6           0        3.316978    0.961849   -0.008049
     12          6           0        2.508612    1.746057    1.026140
     13          6           0        2.782479    3.249419    0.974250
     14          1           0        4.387544    1.146376    0.156978
     15          1           0        3.085095    1.343813   -1.011682
     16          1           0        2.742303    1.362054    2.027412
     17          1           0        1.439942    1.559013    0.860080
     18          1           0        2.531594    3.652880   -0.012096
     19          1           0        3.841355    3.454802    1.161868
     20          1           0        2.194259    3.790687    1.721837
     21          6           0       -1.980548   -2.396751    1.049957
     22          6           0       -0.937719   -1.524465    0.721101
     23          6           0       -1.207541   -0.284722    0.133920
     24          6           0       -2.537811    0.052060   -0.111536
     25          6           0       -3.598614   -0.795295    0.204655
     26          6           0       -3.305331   -2.030030    0.791141
     27          1           0       -1.761832   -3.357869    1.505823
     28          1           0        0.092082   -1.806623    0.920953
     29          1           0       -0.419459    0.409741   -0.130779
     30          1           0       -4.615077   -0.486162   -0.006661
     31          1           0       -4.117222   -2.705449    1.045475
     32          7           0       -2.835877    1.361870   -0.732791
     33          8           0       -4.016368    1.635050   -0.938828
     34          8           0       -1.883367    2.090516   -1.001928
 ---------------------------------------------------------------------

 SCF Done:  E(RHF) =  -669.535028793     A.U. after   15 cycles
 E2 =    -0.2092975440D+01 EUMP2 =    -0.67162800423271D+03

 The electronic state is 1-A.
 Alpha  occ. eigenvalues --  -20.60761 -20.60756 -15.85811 -11.31157 -11.27725
 Alpha  occ. eigenvalues --  -11.27696 -11.27450 -11.26740 -11.26678 -11.22231
 Alpha  occ. eigenvalues --  -11.22171 -11.21981 -11.21822 -11.21728 -11.21104
 Alpha  occ. eigenvalues --   -1.59835  -1.39390  -1.19324  -1.09002  -1.08721
 Alpha  occ. eigenvalues --   -1.04726  -1.03978  -0.96432  -0.95563  -0.87443
 Alpha  occ. eigenvalues --   -0.86123  -0.82407  -0.80075  -0.78874  -0.77424
 Alpha  occ. eigenvalues --   -0.72032  -0.71157  -0.70451  -0.65671  -0.64965
 Alpha  occ. eigenvalues --   -0.64742  -0.62075  -0.61352  -0.59812  -0.58045
 Alpha  occ. eigenvalues --   -0.55724  -0.55228  -0.53084  -0.53052  -0.52961
 Alpha  occ. eigenvalues --   -0.52719  -0.50358  -0.48789  -0.48789  -0.48366
 Alpha  occ. eigenvalues --   -0.47112  -0.46331  -0.46247  -0.44799  -0.44266
 Alpha  occ. eigenvalues --   -0.37303  -0.36320
 Alpha virt. eigenvalues --    0.05054   0.11292   0.16527   0.19518   0.22871
 Alpha virt. eigenvalues --    0.23331   0.24891   0.26409   0.27253   0.28173
 Alpha virt. eigenvalues --    0.29405   0.30824   0.31448   0.31487   0.32020

 Mulliken charges:
               1
     1  C   -0.305506
     2  C   -0.299191
     3  C   -0.477579
     4  H    0.149148
     5  H    0.142547
     6  H    0.155410
     7  H    0.156240
     8  H    0.152232
     9  H    0.153967
    10  H    0.164336
    11  C   -0.299466
    12  C   -0.304918
    13  C   -0.475467
    14  H    0.152613
    15  H    0.155223
    16  H    0.151077
    17  H    0.150685
    18  H    0.161922
    19  H    0.154413
    20  H    0.163687
    21  C   -0.170896
    22  C   -0.225329
    23  C   -0.180660
    24  C    0.159573
    25  C   -0.170633
    26  C   -0.218624
    27  H    0.225826
    28  H    0.229697
    29  H    0.284835
    30  H    0.275445
    31  H    0.223352
    32  N    0.487684
    33  O   -0.460301
    34  O   -0.461345
 Sum of Mulliken charges =  -0.00000

 Dipole moment (field-independent basis, Debye):
    X=              1.2199    Y=             -4.4990    Z=              2.1364  Tot=              5.1277
 Quadrupole moment (field-independent basis, Debye-Ang):
   XX=            -94.0376   YY=            -96.4139   ZZ=            -95.5613
   XY=             13.1327   XZ=             -5.6676   YZ=              0.4115

 Normal termination of Gaussian 16 at Thu May  6 01:07:40 2021.
