 Gaussian 16, Revision A.03,
 Gaussian 16:  EM64L-G16RevA.03 25-Dec-2016

 -------------
 #p 6-31g* mp2
 -------------

 ------------------------------------------------------
 Input file generated by CHIRIPA (05-May-2021 14:53:15)
 ------------------------------------------------------
 Symbolic Z-matrix:
 Charge =  0 Multiplicity = 1

                         Standard orientation:
 ---------------------------------------------------------------------
 Center     Atomic      Atomic             Coordinates (Angstroms)
 Number     Number       Type             X           Y           Z
 ---------------------------------------------------------------------
      1          6           0       -3.234391    0.827188   -0.384741
      2          6           0       -3.523704    2.024358    0.521386
      3          6           0       -3.746667    3.318385   -0.261924
      4          1           0       -2.348248    1.044335   -0.996740
      5          1           0       -4.071914    0.694233   -1.083507
      6          1           0       -2.686514    2.154167    1.219152
      7          1           0       -4.409148    1.804259    1.131436
      8          1           0       -4.594634    3.213145   -0.946378
      9          1           0       -2.862212    3.565041   -0.858164
     10          1           0       -3.951860    4.161304    0.405342
     11          6           0       -3.009260   -0.473789    0.383702
     12          6           0       -2.719947   -1.670959   -0.522424
     13          6           0       -2.496985   -2.964986    0.260886
     14          1           0       -2.171738   -0.340834    1.082468
     15          1           0       -3.895403   -0.690936    0.995702
     16          1           0       -1.834503   -1.450860   -1.132475
     17          1           0       -3.557138   -1.800768   -1.220190
     18          1           0       -3.381440   -3.211642    0.857125
     19          1           0       -1.649017   -2.859746    0.945339
     20          1           0       -2.291791   -3.807905   -0.406380
     21          6           0        3.885267    1.928586    0.055626
     22          6           0        3.433128    1.358492    1.250232
     23          6           0        2.631229    0.213435    1.231625
     24          6           0        2.299100   -0.337841   -0.004933
     25          6           0        2.733972    0.206828   -1.212207
     26          6           0        3.534864    1.351951   -1.169621
     27          1           0        4.507811    2.818120    0.079394
     28          1           0        3.703685    1.804166    2.203238
     29          1           0        2.267428   -0.248497    2.141398
     30          1           0        2.447713   -0.260090   -2.146798
     31          1           0        3.884557    1.792536   -2.098945
     32          7           0        1.450697   -1.550097   -0.037324
     33          8           0        1.172068   -2.016650   -1.139745
     34          8           0        1.080414   -2.010756    1.040322
 ---------------------------------------------------------------------

 SCF Done:  E(RHF) =  -669.536714354     A.U. after   15 cycles
 E2 =    -0.2092296690D+01 EUMP2 =    -0.67162901104357D+03

 The electronic state is 1-A.
 Alpha  occ. eigenvalues --  -20.61122 -20.61116 -15.86120 -11.31392 -11.27944
 Alpha  occ. eigenvalues --  -11.27940 -11.27670 -11.26937 -11.26927 -11.21199
 Alpha  occ. eigenvalues --  -11.20817 -11.20767 -11.20431 -11.20206 -11.19266
 Alpha  occ. eigenvalues --   -1.60155  -1.39715  -1.19551  -1.08965  -1.07621
 Alpha  occ. eigenvalues --   -1.04938  -1.02592  -0.95816  -0.95042  -0.86341
 Alpha  occ. eigenvalues --   -0.86069  -0.82650  -0.78749  -0.77711  -0.77337
 Alpha  occ. eigenvalues --   -0.72334  -0.71471  -0.70657  -0.65206  -0.64940
 Alpha  occ. eigenvalues --   -0.64260  -0.62284  -0.59978  -0.58530  -0.56627
 Alpha  occ. eigenvalues --   -0.55447  -0.54339  -0.53267  -0.53027  -0.51735
 Alpha  occ. eigenvalues --   -0.51477  -0.49308  -0.49095  -0.48776  -0.47012
 Alpha  occ. eigenvalues --   -0.45859  -0.45297  -0.44870  -0.44486  -0.42870
 Alpha  occ. eigenvalues --   -0.37525  -0.36536
 Alpha virt. eigenvalues --    0.04769   0.11119   0.16250   0.21249   0.23513
 Alpha virt. eigenvalues --    0.25316   0.27186   0.27338   0.28215   0.28240
 Alpha virt. eigenvalues --    0.29061   0.30842   0.32225   0.32408   0.32517

 Mulliken charges:
               1
     1  C   -0.296895
     2  C   -0.298409
     3  C   -0.474891
     4  H    0.146117
     5  H    0.148538
     6  H    0.149024
     7  H    0.151796
     8  H    0.155229
     9  H    0.152594
    10  H    0.157860
    11  C   -0.299017
    12  C   -0.302558
    13  C   -0.480986
    14  H    0.149447
    15  H    0.146734
    16  H    0.160681
    17  H    0.144750
    18  H    0.143318
    19  H    0.178233
    20  H    0.160153
    21  C   -0.170330
    22  C   -0.218539
    23  C   -0.170820
    24  C    0.158288
    25  C   -0.170766
    26  C   -0.218580
    27  H    0.226463
    28  H    0.224262
    29  H    0.275969
    30  H    0.276109
    31  H    0.224272
    32  N    0.488711
    33  O   -0.457805
    34  O   -0.458950
 Sum of Mulliken charges =  -0.00000

 Dipole moment (field-independent basis, Debye):
    X=              3.3575    Y=              4.1654    Z=              0.1230  Tot=              5.3515
 Quadrupole moment (field-independent basis, Debye-Ang):
   XX=            -81.6151   YY=            -99.5268   ZZ=            -89.9181
   XY=              9.4567   XZ=             -0.0294   YZ=              0.3821

 Normal termination of Gaussian 16 at Thu May  6 15:32:09 2021.
