 Gaussian 16, Revision A.03,
 Gaussian 16:  EM64L-G16RevA.03 25-Dec-2016

 -------------
 #p 6-31g* mp2
 -------------

 ------------------------------------------------------
 Input file generated by CHIRIPA (05-May-2021 14:51:11)
 ------------------------------------------------------
 Symbolic Z-matrix:
 Charge =  0 Multiplicity = 1

                         Standard orientation:
 ---------------------------------------------------------------------
 Center     Atomic      Atomic             Coordinates (Angstroms)
 Number     Number       Type             X           Y           Z
 ---------------------------------------------------------------------
      1          6           0        4.010240   -0.333246    0.054211
      2          6           0        5.072996   -0.973043   -0.839766
      3          6           0        5.461145   -2.379574   -0.382816
      4          1           0        4.383460   -0.294930    1.086773
      5          1           0        3.118111   -0.974583    0.067907
      6          1           0        5.962342   -0.329998   -0.852874
      7          1           0        4.697279   -1.009665   -1.870354
      8          1           0        4.588401   -3.040558   -0.387016
      9          1           0        5.860652   -2.357030    0.636246
     10          1           0        6.222052   -2.818179   -1.035890
     11          6           0        3.611777    1.073102   -0.389794
     12          6           0        2.549021    1.712899    0.504184
     13          6           0        2.160872    3.119430    0.047233
     14          1           0        4.503905    1.714440   -0.403490
     15          1           0        3.238557    1.034787   -1.422356
     16          1           0        2.924738    1.749521    1.534772
     17          1           0        1.659674    1.069854    0.517291
     18          1           0        1.761365    3.096886   -0.971829
     19          1           0        3.033616    3.780414    0.051433
     20          1           0        1.399964    3.558035    0.700308
     21          6           0       -3.053422   -0.286932    0.116741
     22          6           0       -2.298223   -0.862794    1.315092
     23          6           0       -0.783627   -0.689120    1.198339
     24          1           0       -2.696839   -0.773374   -0.801501
     25          1           0       -2.812302    0.780619    0.018803
     26          1           0       -2.541774   -1.928622    1.411572
     27          1           0       -2.656782   -0.375060    2.230607
     28          1           0       -0.521985    0.371440    1.125139
     29          1           0       -0.406324   -1.190949    0.301450
     30          1           0       -0.263493   -1.107798    2.065534
     31          6           0       -4.568595   -0.452924    0.218841
     32          6           0       -5.323794    0.122938   -0.979508
     33          6           0       -6.838390   -0.050737   -0.862756
     34          1           0       -4.809715   -1.520475    0.316780
     35          1           0       -4.925179    0.033518    1.137083
     36          1           0       -4.965236   -0.364796   -1.895024
     37          1           0       -5.080244    1.188766   -1.075989
     38          1           0       -7.215693    0.451093    0.034132
     39          1           0       -7.100032   -1.111296   -0.789556
     40          1           0       -7.358525    0.367942   -1.729952
 ---------------------------------------------------------------------

 SCF Done:  E(RHF) =  -470.733167626     A.U. after   11 cycles
 E2 =    -0.1582640335D+01 EUMP2 =    -0.47231580796091D+03

 The electronic state is 1-A.
 Alpha  occ. eigenvalues --  -11.21640 -11.21621 -11.21556 -11.21463 -11.21435
 Alpha  occ. eigenvalues --  -11.21374 -11.21333 -11.21274 -11.21122 -11.21086
 Alpha  occ. eigenvalues --  -11.21038 -11.21026  -1.08462  -1.08360  -1.03569
 Alpha  occ. eigenvalues --   -1.03464  -0.96020  -0.95923  -0.87047  -0.86932
 Alpha  occ. eigenvalues --   -0.79685  -0.79485  -0.78288  -0.78152  -0.65099
 Alpha  occ. eigenvalues --   -0.64990  -0.61019  -0.60828  -0.59379  -0.59298
 Alpha  occ. eigenvalues --   -0.57649  -0.57515  -0.55342  -0.55179  -0.52725
 Alpha  occ. eigenvalues --   -0.52619  -0.52468  -0.52335  -0.50023  -0.49820
 Alpha  occ. eigenvalues --   -0.48078  -0.47760  -0.46743  -0.46451  -0.45895
 Alpha  occ. eigenvalues --   -0.45747  -0.45693  -0.45466  -0.43812  -0.43719
 Alpha virt. eigenvalues --    0.22025   0.22950   0.23787   0.24634   0.25635
 Alpha virt. eigenvalues --    0.26493   0.27110   0.27516   0.27812   0.29187
 Alpha virt. eigenvalues --    0.30534   0.31474   0.31742   0.31794   0.32200

 Mulliken charges:
               1
     1  C   -0.298895
     2  C   -0.299592
     3  C   -0.475632
     4  H    0.149427
     5  H    0.150535
     6  H    0.151809
     7  H    0.151715
     8  H    0.155079
     9  H    0.155108
    10  H    0.160042
    11  C   -0.297470
    12  C   -0.309295
    13  C   -0.475585
    14  H    0.149011
    15  H    0.149153
    16  H    0.151184
    17  H    0.163578
    18  H    0.154889
    19  H    0.155114
    20  H    0.159163
    21  C   -0.298450
    22  C   -0.300050
    23  C   -0.479013
    24  H    0.149469
    25  H    0.149692
    26  H    0.152016
    27  H    0.152241
    28  H    0.158656
    29  H    0.154385
    30  H    0.161389
    31  C   -0.298300
    32  C   -0.299681
    33  C   -0.475727
    34  H    0.149589
    35  H    0.149757
    36  H    0.151905
    37  H    0.152025
    38  H    0.155235
    39  H    0.155202
    40  H    0.160325
 Sum of Mulliken charges =  -0.00000

 Dipole moment (field-independent basis, Debye):
    X=             -0.0418    Y=             -0.0175    Z=              0.0165  Tot=              0.0482
 Quadrupole moment (field-independent basis, Debye-Ang):
   XX=            -85.7666   YY=            -84.9674   ZZ=            -84.2450
   XY=              0.5190   XZ=              0.2742   YZ=              0.8782

 Normal termination of Gaussian 16 at Thu May  6 07:00:56 2021.
