 Gaussian 16, Revision A.03,
 Gaussian 16:  EM64L-G16RevA.03 25-Dec-2016

 -------------
 #p 6-31g* mp2
 -------------

 ------------------------------------------------------
 Input file generated by CHIRIPA (05-May-2021 14:57:23)
 ------------------------------------------------------
 Symbolic Z-matrix:
 Charge =  0 Multiplicity = 1

                         Standard orientation:
 ---------------------------------------------------------------------
 Center     Atomic      Atomic             Coordinates (Angstroms)
 Number     Number       Type             X           Y           Z
 ---------------------------------------------------------------------
      1          6           0        2.466421    2.049477    0.193249
      2          6           0        2.013430    0.836129   -0.335057
      3          6           0        2.896205   -0.232493   -0.517547
      4          6           0        4.231300   -0.052231   -0.159333
      5          6           0        4.712977    1.144325    0.369374
      6          6           0        3.812376    2.199438    0.543161
      7          1           0        1.773736    2.874361    0.331631
      8          1           0        0.968691    0.716814   -0.607690
      9          1           0        2.572295   -1.182708   -0.924477
     10          1           0        5.760187    1.233196    0.631805
     11          1           0        4.166982    3.140599    0.953667
     12          7           0        5.175290   -1.176383   -0.347921
     13          8           0        6.346645   -0.992187   -0.024446
     14          8           0        4.725960   -2.220403   -0.815640
     15          6           0       -1.738622   -0.310206    1.062339
     16          6           0       -2.677008   -1.312547    1.329298
     17          6           0       -3.974831   -1.224804    0.816947
     18          6           0       -4.301661   -0.115915    0.037947
     19          6           0       -3.389117    0.899023   -0.245701
     20          6           0       -2.097041    0.790440    0.277076
     21          1           0       -0.732675   -0.386462    1.464395
     22          1           0       -2.401455   -2.168460    1.938829
     23          1           0       -4.721056   -1.986418    1.008024
     24          1           0       -3.693303    1.740263   -0.856604
     25          1           0       -1.370350    1.570376    0.068119
     26          7           0       -5.672566   -0.011994   -0.509974
     27          8           0       -5.935597    0.975048   -1.193494
     28          8           0       -6.458094   -0.919550   -0.245540
 ---------------------------------------------------------------------

 SCF Done:  E(RHF) =  -868.336846999     A.U. after   16 cycles
 E2 =    -0.2600251259D+01 EUMP2 =    -0.87093709825761D+03

 The electronic state is 1-A.
 Alpha  occ. eigenvalues --  -20.61405 -20.61397 -20.61286 -20.61277 -15.86464
 Alpha  occ. eigenvalues --  -15.86346 -11.31978 -11.31856 -11.28612 -11.28549
 Alpha  occ. eigenvalues --  -11.28510 -11.28417 -11.28408 -11.28252 -11.27698
 Alpha  occ. eigenvalues --  -11.27636 -11.27580 -11.27428  -1.60476  -1.60357
 Alpha  occ. eigenvalues --   -1.40025  -1.39906  -1.20186  -1.20062  -1.09567
 Alpha  occ. eigenvalues --   -1.09434  -1.05616  -1.05491  -0.96364  -0.96237
 Alpha  occ. eigenvalues --   -0.87061  -0.86855  -0.83192  -0.83067  -0.78225
 Alpha  occ. eigenvalues --   -0.78070  -0.72679  -0.72561  -0.71803  -0.71682
 Alpha  occ. eigenvalues --   -0.71312  -0.71166  -0.65931  -0.65829  -0.65689
 Alpha  occ. eigenvalues --   -0.65308  -0.63025  -0.62739  -0.56143  -0.55993
 Alpha  occ. eigenvalues --   -0.53932  -0.53888  -0.53705  -0.53504  -0.49451
 Alpha  occ. eigenvalues --   -0.49423  -0.49331  -0.49305  -0.45397  -0.45279
 Alpha  occ. eigenvalues --   -0.38194  -0.38059  -0.37216  -0.37093
 Alpha virt. eigenvalues --    0.04329   0.04470   0.10315   0.10417   0.15706
 Alpha virt. eigenvalues --    0.15936   0.18337   0.21961   0.24892   0.26541
 Alpha virt. eigenvalues --    0.27758   0.28675   0.30187   0.30539   0.31497

 Mulliken charges:
               1
     1  C   -0.171980
     2  C   -0.228642
     3  C   -0.171992
     4  C    0.159299
     5  C   -0.169587
     6  C   -0.218104
     7  H    0.223477
     8  H    0.222997
     9  H    0.277955
    10  H    0.278443
    11  H    0.226415
    12  N    0.487896
    13  O   -0.458040
    14  O   -0.459052
    15  C   -0.173937
    16  C   -0.218274
    17  C   -0.169142
    18  C    0.158832
    19  C   -0.169448
    20  C   -0.222889
    21  H    0.228093
    22  H    0.227512
    23  H    0.278612
    24  H    0.276884
    25  H    0.213970
    26  N    0.488061
    27  O   -0.459420
    28  O   -0.457941
 Sum of Mulliken charges =  -0.00000

 Dipole moment (field-independent basis, Debye):
    X=              1.5176    Y=              3.4721    Z=              2.6415  Tot=              4.6191
 Quadrupole moment (field-independent basis, Debye-Ang):
   XX=           -170.2339   YY=           -100.2013   ZZ=           -104.6110
   XY=             22.0435   XZ=             -3.9123   YZ=             -1.9862

 Normal termination of Gaussian 16 at Fri May  7 06:27:41 2021.
