 Gaussian 16, Revision A.03,
 Gaussian 16:  EM64L-G16RevA.03 25-Dec-2016

 -------------
 #p 6-31g* mp2
 -------------

 ------------------------------------------------------
 Input file generated by CHIRIPA (05-May-2021 14:57:27)
 ------------------------------------------------------
 Symbolic Z-matrix:
 Charge =  0 Multiplicity = 1

                         Standard orientation:
 ---------------------------------------------------------------------
 Center     Atomic      Atomic             Coordinates (Angstroms)
 Number     Number       Type             X           Y           Z
 ---------------------------------------------------------------------
      1          6           0        1.534041    2.127860   -0.440803
      2          6           0        2.711565    1.997892   -1.184488
      3          6           0        3.567353    0.912368   -0.975175
      4          6           0        3.213103   -0.028821   -0.009794
      5          6           0        2.046931    0.072867    0.747169
      6          6           0        1.206061    1.166628    0.520957
      7          1           0        0.875039    2.974321   -0.609966
      8          1           0        2.968820    2.742871   -1.932065
      9          1           0        4.485151    0.787218   -1.536783
     10          1           0        1.817264   -0.685856    1.485417
     11          1           0        0.292230    1.264991    1.099993
     12          7           0        4.111191   -1.182377    0.220741
     13          8           0        3.776489   -1.997980    1.077130
     14          8           0        5.132810   -1.249087   -0.459319
     15          6           0       -2.687016    2.168026    0.940669
     16          6           0       -2.414099    1.057010    1.745456
     17          6           0       -2.619839   -0.238239    1.261154
     18          6           0       -3.101637   -0.386490   -0.038531
     19          6           0       -3.382943    0.700512   -0.864718
     20          6           0       -3.169716    1.986550   -0.359558
     21          1           0       -2.524285    3.170629    1.324989
     22          1           0       -2.039148    1.194935    2.755621
     23          1           0       -2.416843   -1.115936    1.862701
     24          1           0       -3.755863    0.531292   -1.867571
     25          1           0       -3.382536    2.847536   -0.986819
     26          7           0       -3.323408   -1.752836   -0.562280
     27          8           0       -3.748590   -1.856656   -1.710792
     28          8           0       -3.067849   -2.694087    0.185632
 ---------------------------------------------------------------------

 SCF Done:  E(RHF) =  -868.336440845     A.U. after   16 cycles
 E2 =    -0.2601870946D+01 EUMP2 =    -0.87093831179162D+03

 The electronic state is 1-A.
 Alpha  occ. eigenvalues --  -20.61392 -20.61385 -20.60774 -20.60767 -15.86455
 Alpha  occ. eigenvalues --  -15.85827 -11.32117 -11.31261 -11.28739 -11.28706
 Alpha  occ. eigenvalues --  -11.28569 -11.27824 -11.27824 -11.27817 -11.27788
 Alpha  occ. eigenvalues --  -11.27616 -11.26887 -11.26757  -1.60460  -1.59846
 Alpha  occ. eigenvalues --   -1.40005  -1.39398  -1.20345  -1.19432  -1.09694
 Alpha  occ. eigenvalues --   -1.08824  -1.05790  -1.04841  -0.96460  -0.95652
 Alpha  occ. eigenvalues --   -0.87170  -0.86241  -0.83284  -0.82481  -0.78268
 Alpha  occ. eigenvalues --   -0.77514  -0.72667  -0.72046  -0.71786  -0.71432
 Alpha  occ. eigenvalues --   -0.71168  -0.70579  -0.65985  -0.65785  -0.65087
 Alpha  occ. eigenvalues --   -0.64881  -0.63098  -0.62221  -0.56279  -0.55402
 Alpha  occ. eigenvalues --   -0.54225  -0.53856  -0.53164  -0.52781  -0.49450
 Alpha  occ. eigenvalues --   -0.49404  -0.48808  -0.48797  -0.45344  -0.44788
 Alpha  occ. eigenvalues --   -0.38355  -0.37433  -0.37389  -0.36425
 Alpha virt. eigenvalues --    0.04246   0.05022   0.10118   0.11201   0.15619
 Alpha virt. eigenvalues --    0.16494   0.20061   0.21716   0.25915   0.27047
 Alpha virt. eigenvalues --    0.27968   0.28406   0.29867   0.31064   0.31842

 Mulliken charges:
               1
     1  C   -0.173906
     2  C   -0.217915
     3  C   -0.171215
     4  C    0.159852
     5  C   -0.173927
     6  C   -0.220935
     7  H    0.219686
     8  H    0.222537
     9  H    0.276027
    10  H    0.274561
    11  H    0.228277
    12  N    0.488136
    13  O   -0.459444
    14  O   -0.460072
    15  C   -0.175446
    16  C   -0.234086
    17  C   -0.169264
    18  C    0.161462
    19  C   -0.168049
    20  C   -0.219074
    21  H    0.227102
    22  H    0.226626
    23  H    0.279968
    24  H    0.279395
    25  H    0.225534
    26  N    0.488021
    27  O   -0.457449
    28  O   -0.456403
 Sum of Mulliken charges =  -0.00000

 Dipole moment (field-independent basis, Debye):
    X=             -2.6534    Y=              8.6759    Z=              0.9290  Tot=              9.1200
 Quadrupole moment (field-independent basis, Debye-Ang):
   XX=           -127.9317   YY=           -108.6788   ZZ=            -99.1860
   XY=             -1.5181   XZ=             -9.2007   YZ=             -4.3646

 Normal termination of Gaussian 16 at Thu May  6 19:49:51 2021.
