 Gaussian 16, Revision A.03,
 Gaussian 16:  EM64L-G16RevA.03 25-Dec-2016

 -------------
 #p 6-31g* mp2
 -------------

 ------------------------------------------------------
 Input file generated by CHIRIPA (05-May-2021 14:51:07)
 ------------------------------------------------------
 Symbolic Z-matrix:
 Charge =  0 Multiplicity = 1

                         Standard orientation:
 ---------------------------------------------------------------------
 Center     Atomic      Atomic             Coordinates (Angstroms)
 Number     Number       Type             X           Y           Z
 ---------------------------------------------------------------------
      1          6           0       -3.534547   -0.405018   -0.247912
      2          6           0       -3.801660   -1.904542   -0.113512
      3          6           0       -2.567343   -2.754391   -0.416848
      4          1           0       -3.181967   -0.191677   -1.266301
      5          1           0       -2.718026   -0.122803    0.431090
      6          1           0       -4.618365   -2.183587   -0.791554
      7          1           0       -4.153828   -2.114310    0.904620
      8          1           0       -1.750022   -2.504637    0.267411
      9          1           0       -2.217199   -2.574308   -1.438401
     10          1           0       -2.780704   -3.822996   -0.314769
     11          6           0       -4.759013    0.457737    0.052200
     12          6           0       -4.491900    1.957261   -0.082200
     13          6           0       -5.726216    2.807110    0.221136
     14          1           0       -5.575534    0.175522   -0.626802
     15          1           0       -5.111593    0.244396    1.070590
     16          1           0       -4.139732    2.167029   -1.100331
     17          1           0       -3.675194    2.236306    0.595842
     18          1           0       -6.076361    2.627027    1.242689
     19          1           0       -6.543538    2.557357   -0.463123
     20          1           0       -5.512856    3.875715    0.119057
     21          6           0        4.659580    0.299539   -0.365025
     22          6           0        5.861400    0.884435    0.377613
     23          6           0        6.878487    1.532928   -0.561953
     24          1           0        5.012777   -0.442657   -1.093956
     25          1           0        4.170747    1.096533   -0.942293
     26          1           0        6.347001    0.086865    0.954405
     27          1           0        5.505285    1.625187    1.104996
     28          1           0        6.415230    2.347410   -1.128180
     29          1           0        7.261730    0.800347   -1.279625
     30          1           0        7.729361    1.944478   -0.010139
     31          6           0        3.633980   -0.352259    0.560736
     32          6           0        2.432160   -0.937155   -0.181901
     33          6           0        1.415072   -1.585647    0.757665
     34          1           0        4.122813   -1.149252    1.138005
     35          1           0        3.280783    0.389938    1.289667
     36          1           0        2.788275   -1.677907   -0.909283
     37          1           0        1.946558   -0.139584   -0.758693
     38          1           0        1.031830   -0.853067    1.475337
     39          1           0        1.878329   -2.400130    1.323891
     40          1           0        0.564199   -1.997197    0.205850
 ---------------------------------------------------------------------

 SCF Done:  E(RHF) =  -470.733284158     A.U. after   11 cycles
 E2 =    -0.1582253360D+01 EUMP2 =    -0.47231553751892D+03

 The electronic state is 1-A.
 Alpha  occ. eigenvalues --  -11.21603 -11.21593 -11.21592 -11.21577 -11.21398
 Alpha  occ. eigenvalues --  -11.21389 -11.21338 -11.21330 -11.21073 -11.21063
 Alpha  occ. eigenvalues --  -11.21047 -11.21025  -1.08426  -1.08412  -1.03537
 Alpha  occ. eigenvalues --   -1.03501  -0.96006  -0.95935  -0.87046  -0.86933
 Alpha  occ. eigenvalues --   -0.79634  -0.79535  -0.78240  -0.78222  -0.65059
 Alpha  occ. eigenvalues --   -0.65040  -0.60945  -0.60901  -0.59418  -0.59285
 Alpha  occ. eigenvalues --   -0.57700  -0.57466  -0.55278  -0.55242  -0.52825
 Alpha  occ. eigenvalues --   -0.52664  -0.52434  -0.52207  -0.49919  -0.49889
 Alpha  occ. eigenvalues --   -0.47996  -0.47792  -0.46634  -0.46593  -0.45780
 Alpha  occ. eigenvalues --   -0.45768  -0.45708  -0.45687  -0.43780  -0.43725
 Alpha virt. eigenvalues --    0.22269   0.23029   0.23570   0.24814   0.26330
 Alpha virt. eigenvalues --    0.26671   0.26895   0.27478   0.27731   0.28826
 Alpha virt. eigenvalues --    0.30550   0.31389   0.31614   0.31841   0.32056

 Mulliken charges:
               1
     1  C   -0.298515
     2  C   -0.299283
     3  C   -0.482305
     4  H    0.149448
     5  H    0.149968
     6  H    0.151833
     7  H    0.152010
     8  H    0.162086
     9  H    0.154673
    10  H    0.160436
    11  C   -0.298294
    12  C   -0.299621
    13  C   -0.475700
    14  H    0.149527
    15  H    0.149683
    16  H    0.151878
    17  H    0.151822
    18  H    0.155202
    19  H    0.155206
    20  H    0.160190
    21  C   -0.298227
    22  C   -0.299608
    23  C   -0.475691
    24  H    0.149642
    25  H    0.149512
    26  H    0.151907
    27  H    0.151885
    28  H    0.155167
    29  H    0.155174
    30  H    0.160209
    31  C   -0.298513
    32  C   -0.299046
    33  C   -0.483001
    34  H    0.149466
    35  H    0.149466
    36  H    0.151995
    37  H    0.152102
    38  H    0.154021
    39  H    0.155089
    40  H    0.168209
 Sum of Mulliken charges =  -0.00000

 Dipole moment (field-independent basis, Debye):
    X=             -0.0080    Y=             -0.0114    Z=             -0.0022  Tot=              0.0141
 Quadrupole moment (field-independent basis, Debye-Ang):
   XX=            -85.8817   YY=            -84.7875   ZZ=            -84.1532
   XY=             -0.2600   XZ=              0.7861   YZ=              0.2487

 Normal termination of Gaussian 16 at Thu May  6 08:25:09 2021.
