 Gaussian 16, Revision A.03,
 Gaussian 16:  EM64L-G16RevA.03 25-Dec-2016

 -------------
 #p 6-31g* mp2
 -------------

 ------------------------------------------------------
 Input file generated by CHIRIPA (05-May-2021 14:55:24)
 ------------------------------------------------------
 Symbolic Z-matrix:
 Charge =  0 Multiplicity = 1

                         Standard orientation:
 ---------------------------------------------------------------------
 Center     Atomic      Atomic             Coordinates (Angstroms)
 Number     Number       Type             X           Y           Z
 ---------------------------------------------------------------------
      1          6           0       -3.204212    2.033073    0.799516
      2          6           0       -4.155393    1.010407    0.876517
      3          6           0       -3.851588   -0.277296    0.424774
      4          6           0       -2.581157   -0.508172   -0.100575
      5          6           0       -1.612008    0.489787   -0.190679
      6          6           0       -1.937788    1.769963    0.267102
      7          1           0       -3.448751    3.030468    1.152786
      8          1           0       -5.139716    1.211850    1.289524
      9          1           0       -4.569022   -1.087495    0.472574
     10          1           0       -0.639228    0.258507   -0.607363
     11          1           0       -1.197104    2.562242    0.206064
     12          7           0       -2.247900   -1.867421   -0.582011
     13          8           0       -1.121523   -2.045097   -1.040641
     14          8           0       -3.119381   -2.729388   -0.491615
     15          6           0        3.035962    1.024310    0.207866
     16          6           0        2.766110    1.918425   -1.002803
     17          6           0        2.089129    3.236342   -0.625199
     18          1           0        2.087090    0.816849    0.721236
     19          1           0        3.666253    1.569297    0.924188
     20          1           0        2.137658    1.371410   -1.717254
     21          1           0        3.715709    2.123624   -1.513461
     22          1           0        2.715036    3.805740    0.069516
     23          1           0        1.128020    3.049252   -0.135436
     24          1           0        1.905526    3.860047   -1.505620
     25          6           0        3.712409   -0.296882   -0.153522
     26          6           0        3.982260   -1.190998    1.057148
     27          6           0        4.659240   -2.508914    0.679543
     28          1           0        3.082116   -0.841869   -0.869843
     29          1           0        4.661280   -0.089422   -0.666891
     30          1           0        3.032661   -1.396196    1.567805
     31          1           0        4.610711   -0.643982    1.771599
     32          1           0        5.620349   -2.321824    0.189780
     33          1           0        4.033333   -3.078312   -0.015172
     34          1           0        4.842843   -3.132619    1.559965
 ---------------------------------------------------------------------

 SCF Done:  E(RHF) =  -669.535589456     A.U. after   15 cycles
 E2 =    -0.2091688251D+01 EUMP2 =    -0.67162727770710D+03

 The electronic state is 1-A.
 Alpha  occ. eigenvalues --  -20.60804 -20.60797 -15.85856 -11.31205 -11.27771
 Alpha  occ. eigenvalues --  -11.27768 -11.27504 -11.26784 -11.26757 -11.22114
 Alpha  occ. eigenvalues --  -11.21900 -11.21711 -11.21476 -11.21359 -11.20807
 Alpha  occ. eigenvalues --   -1.59878  -1.39432  -1.19374  -1.08771  -1.08637
 Alpha  occ. eigenvalues --   -1.04777  -1.03748  -0.96213  -0.95609  -0.87235
 Alpha  occ. eigenvalues --   -0.86173  -0.82446  -0.79842  -0.78374  -0.77496
 Alpha  occ. eigenvalues --   -0.72075  -0.71200  -0.70484  -0.65297  -0.65020
 Alpha  occ. eigenvalues --   -0.64798  -0.62181  -0.61093  -0.59616  -0.57791
 Alpha  occ. eigenvalues --   -0.55550  -0.55257  -0.53104  -0.52975  -0.52881
 Alpha  occ. eigenvalues --   -0.52560  -0.50144  -0.48831  -0.48830  -0.48138
 Alpha  occ. eigenvalues --   -0.46879  -0.45933  -0.45798  -0.44841  -0.43978
 Alpha  occ. eigenvalues --   -0.37352  -0.36376
 Alpha virt. eigenvalues --    0.05029   0.11267   0.16507   0.18446   0.22753
 Alpha virt. eigenvalues --    0.23934   0.25544   0.25813   0.27502   0.28481
 Alpha virt. eigenvalues --    0.29279   0.30662   0.31375   0.31668   0.32566

 Mulliken charges:
               1
     1  C   -0.171529
     2  C   -0.218510
     3  C   -0.170762
     4  C    0.158783
     5  C   -0.176187
     6  C   -0.225234
     7  H    0.226427
     8  H    0.223503
     9  H    0.275600
    10  H    0.277794
    11  H    0.232693
    12  N    0.488084
    13  O   -0.461243
    14  O   -0.460187
    15  C   -0.299446
    16  C   -0.302428
    17  C   -0.479405
    18  H    0.145722
    19  H    0.150430
    20  H    0.153114
    21  H    0.156609
    22  H    0.159668
    23  H    0.144137
    24  H    0.163080
    25  C   -0.300502
    26  C   -0.299712
    27  C   -0.476876
    28  H    0.157389
    29  H    0.149591
    30  H    0.154449
    31  H    0.149702
    32  H    0.153676
    33  H    0.161222
    34  H    0.160350
 Sum of Mulliken charges =  -0.00000

 Dipole moment (field-independent basis, Debye):
    X=             -1.0587    Y=              4.7130    Z=              1.6573  Tot=              5.1068
 Quadrupole moment (field-independent basis, Debye-Ang):
   XX=            -83.4208   YY=           -100.4049   ZZ=            -95.5929
   XY=             -9.4308   XZ=             -5.7604   YZ=             -1.8516

 Normal termination of Gaussian 16 at Thu May  6 20:55:23 2021.
