 Gaussian 16, Revision A.03,
 Gaussian 16:  EM64L-G16RevA.03 25-Dec-2016

 -------------
 #p 6-31g* mp2
 -------------

 ------------------------------------------------------
 Input file generated by CHIRIPA (05-May-2021 14:51:09)
 ------------------------------------------------------
 Symbolic Z-matrix:
 Charge =  0 Multiplicity = 1

                         Standard orientation:
 ---------------------------------------------------------------------
 Center     Atomic      Atomic             Coordinates (Angstroms)
 Number     Number       Type             X           Y           Z
 ---------------------------------------------------------------------
      1          6           0        4.641324    0.075480    0.191710
      2          6           0        5.532362   -0.896885   -0.581946
      3          6           0        7.019873   -0.569087   -0.449080
      4          1           0        4.826556    1.097230   -0.166984
      5          1           0        4.927876    0.059810    1.252388
      6          1           0        5.243294   -0.880411   -1.640617
      7          1           0        5.344849   -1.916460   -0.221501
      8          1           0        7.329977   -0.604741    0.600284
      9          1           0        7.227846    0.437195   -0.826895
     10          1           0        7.638540   -1.276616   -1.009897
     11          6           0        3.151499   -0.239158    0.068617
     12          6           0        2.260461    0.733207    0.842272
     13          6           0        0.772949    0.405409    0.709407
     14          1           0        2.864947   -0.223488   -0.992061
     15          1           0        2.966267   -1.260908    0.427311
     16          1           0        2.447974    1.752782    0.481828
     17          1           0        2.549528    0.716733    1.900943
     18          1           0        0.564977   -0.600873    1.087222
     19          1           0        0.462846    0.441063   -0.339957
     20          1           0        0.154283    1.112938    1.270223
     21          6           0       -3.926671    0.783722   -0.429957
     22          6           0       -2.887333    1.739215    0.157238
     23          6           0       -2.960406    3.139439   -0.452538
     24          1           0       -3.783509    0.719604   -1.517311
     25          1           0       -4.930246    1.201989   -0.270947
     26          1           0       -1.886099    1.318605   -0.001605
     27          1           0       -3.032864    1.800917    1.243347
     28          1           0       -3.946633    3.583029   -0.281705
     29          1           0       -2.793352    3.097975   -1.533730
     30          1           0       -2.208749    3.806093   -0.018435
     31          6           0       -3.866152   -0.620044    0.169630
     32          6           0       -4.905489   -1.575537   -0.417565
     33          6           0       -4.832417   -2.975761    0.192212
     34          1           0       -2.862577   -1.038311    0.010621
     35          1           0       -4.009313   -0.555927    1.256983
     36          1           0       -4.759959   -1.637239   -1.503673
     37          1           0       -5.906724   -1.154926   -0.258722
     38          1           0       -4.999471   -2.934297    1.273403
     39          1           0       -3.846190   -3.419350    0.021378
     40          1           0       -5.584074   -3.642414   -0.241892
 ---------------------------------------------------------------------

 SCF Done:  E(RHF) =  -470.732694251     A.U. after   11 cycles
 E2 =    -0.1582927210D+01 EUMP2 =    -0.47231562146111D+03

 The electronic state is 1-A.
 Alpha  occ. eigenvalues --  -11.21630 -11.21620 -11.21547 -11.21431 -11.21411
 Alpha  occ. eigenvalues --  -11.21371 -11.21318 -11.21257 -11.21104 -11.21086
 Alpha  occ. eigenvalues --  -11.21031 -11.20997  -1.08459  -1.08343  -1.03571
 Alpha  occ. eigenvalues --   -1.03442  -0.96022  -0.95904  -0.87061  -0.86907
 Alpha  occ. eigenvalues --   -0.79714  -0.79446  -0.78285  -0.78133  -0.65101
 Alpha  occ. eigenvalues --   -0.64972  -0.61023  -0.60812  -0.59477  -0.59190
 Alpha  occ. eigenvalues --   -0.57652  -0.57485  -0.55330  -0.55175  -0.52791
 Alpha  occ. eigenvalues --   -0.52575  -0.52439  -0.52316  -0.50023  -0.49800
 Alpha  occ. eigenvalues --   -0.47949  -0.47817  -0.46751  -0.46449  -0.45864
 Alpha  occ. eigenvalues --   -0.45748  -0.45690  -0.45537  -0.43769  -0.43654
 Alpha virt. eigenvalues --    0.22173   0.22983   0.23826   0.24792   0.25820
 Alpha virt. eigenvalues --    0.26622   0.26934   0.27428   0.27947   0.29222
 Alpha virt. eigenvalues --    0.30556   0.30902   0.31601   0.31801   0.32310

 Mulliken charges:
               1
     1  C   -0.298314
     2  C   -0.299646
     3  C   -0.475720
     4  H    0.149709
     5  H    0.149624
     6  H    0.151896
     7  H    0.151961
     8  H    0.155227
     9  H    0.155213
    10  H    0.160306
    11  C   -0.298670
    12  C   -0.299785
    13  C   -0.479422
    14  H    0.149452
    15  H    0.149656
    16  H    0.152149
    17  H    0.152124
    18  H    0.155706
    19  H    0.154471
    20  H    0.164995
    21  C   -0.297471
    22  C   -0.310314
    23  C   -0.475175
    24  H    0.148797
    25  H    0.148832
    26  H    0.166262
    27  H    0.150151
    28  H    0.154776
    29  H    0.154427
    30  H    0.159363
    31  C   -0.298853
    32  C   -0.299532
    33  C   -0.475629
    34  H    0.150465
    35  H    0.149328
    36  H    0.151708
    37  H    0.151794
    38  H    0.155040
    39  H    0.155075
    40  H    0.160025
 Sum of Mulliken charges =  -0.00000

 Dipole moment (field-independent basis, Debye):
    X=              0.0606    Y=             -0.0126    Z=              0.0168  Tot=              0.0641
 Quadrupole moment (field-independent basis, Debye-Ang):
   XX=            -85.8664   YY=            -85.6050   ZZ=            -83.6857
   XY=             -0.3365   XZ=             -0.4232   YZ=              0.0750

 Normal termination of Gaussian 16 at Thu May  6 05:19:47 2021.
