 Gaussian 16, Revision A.03,
 Gaussian 16:  EM64L-G16RevA.03 25-Dec-2016

 -------------
 #p 6-31g* mp2
 -------------

 ------------------------------------------------------
 Input file generated by CHIRIPA (05-May-2021 14:55:20)
 ------------------------------------------------------
 Symbolic Z-matrix:
 Charge =  0 Multiplicity = 1

                         Standard orientation:
 ---------------------------------------------------------------------
 Center     Atomic      Atomic             Coordinates (Angstroms)
 Number     Number       Type             X           Y           Z
 ---------------------------------------------------------------------
      1          6           0        4.079253    1.167697    0.221248
      2          6           0        4.222101   -0.148054    0.673925
      3          6           0        3.196085   -1.078918    0.485960
      4          6           0        2.035562   -0.657974   -0.161560
      5          6           0        1.863278    0.645783   -0.623971
      6          6           0        2.902372    1.559725   -0.425116
      7          1           0        4.881366    1.884241    0.371494
      8          1           0        5.134970   -0.455315    1.176227
      9          1           0        3.280238   -2.103842    0.826351
     10          1           0        0.941559    0.922493   -1.121248
     11          1           0        2.788663    2.580892   -0.777725
     12          7           0        0.942442   -1.634481   -0.366315
     13          8           0       -0.070080   -1.238652   -0.939687
     14          8           0        1.118875   -2.777204    0.050448
     15          6           0       -2.452201    1.206087    0.497172
     16          6           0       -2.342995    2.456428   -0.376159
     17          6           0       -1.572227    3.587738    0.304906
     18          1           0       -2.944486    1.469335    1.443375
     19          1           0       -1.442367    0.858928    0.756232
     20          1           0       -3.352718    2.800323   -0.634640
     21          1           0       -1.851085    2.190133   -1.320472
     22          1           0       -0.553764    3.268084    0.548124
     23          1           0       -2.063929    3.881741    1.237854
     24          1           0       -1.506175    4.471749   -0.336983
     25          6           0       -3.220046    0.066320   -0.169968
     26          6           0       -3.329251   -1.184020    0.703364
     27          6           0       -4.100019   -2.315330    0.022299
     28          1           0       -4.229878    0.413480   -0.429029
     29          1           0       -2.727760   -0.196927   -1.116171
     30          1           0       -3.821161   -0.917725    1.647677
     31          1           0       -2.319528   -1.527915    0.961845
     32          1           0       -3.608317   -2.609334   -0.910650
     33          1           0       -5.118483   -1.995676   -0.220921
     34          1           0       -4.166073   -3.199341    0.664187
 ---------------------------------------------------------------------

 SCF Done:  E(RHF) =  -669.536508830     A.U. after   15 cycles
 E2 =    -0.2093579947D+01 EUMP2 =    -0.67163008877621D+03

 The electronic state is 1-A.
 Alpha  occ. eigenvalues --  -20.61123 -20.61115 -15.86128 -11.31387 -11.27938
 Alpha  occ. eigenvalues --  -11.27934 -11.27658 -11.26931 -11.26920 -11.21320
 Alpha  occ. eigenvalues --  -11.21106 -11.20653 -11.20235 -11.20137 -11.19762
 Alpha  occ. eigenvalues --   -1.60168  -1.39728  -1.19546  -1.08963  -1.07572
 Alpha  occ. eigenvalues --   -1.04930  -1.02729  -0.95817  -0.95205  -0.86339
 Alpha  occ. eigenvalues --   -0.86231  -0.82654  -0.78886  -0.77719  -0.77265
 Alpha  occ. eigenvalues --   -0.72380  -0.71483  -0.70652  -0.65220  -0.64937
 Alpha  occ. eigenvalues --   -0.64144  -0.62272  -0.60096  -0.58680  -0.56787
 Alpha  occ. eigenvalues --   -0.55435  -0.54494  -0.53260  -0.53016  -0.51980
 Alpha  occ. eigenvalues --   -0.51631  -0.49307  -0.49110  -0.48973  -0.47179
 Alpha  occ. eigenvalues --   -0.45914  -0.45324  -0.44744  -0.44494  -0.42943
 Alpha  occ. eigenvalues --   -0.37515  -0.36520
 Alpha virt. eigenvalues --    0.04751   0.11065   0.16221   0.19937   0.23073
 Alpha virt. eigenvalues --    0.25073   0.26709   0.27297   0.28064   0.28534
 Alpha virt. eigenvalues --    0.29179   0.31161   0.31753   0.32135   0.32606

 Mulliken charges:
               1
     1  C   -0.170171
     2  C   -0.218525
     3  C   -0.170241
     4  C    0.157390
     5  C   -0.173229
     6  C   -0.219743
     7  H    0.226581
     8  H    0.224250
     9  H    0.276052
    10  H    0.279539
    11  H    0.225372
    12  N    0.491797
    13  O   -0.463514
    14  O   -0.457590
    15  C   -0.297497
    16  C   -0.301086
    17  C   -0.475824
    18  H    0.145624
    19  H    0.148521
    20  H    0.153085
    21  H    0.148334
    22  H    0.146814
    23  H    0.157436
    24  H    0.157023
    25  C   -0.297812
    26  C   -0.298766
    27  C   -0.476214
    28  H    0.141509
    29  H    0.165947
    30  H    0.142379
    31  H    0.163885
    32  H    0.163795
    33  H    0.147784
    34  H    0.157096
 Sum of Mulliken charges =  -0.00000

 Dipole moment (field-independent basis, Debye):
    X=              4.1214    Y=              3.2031    Z=              0.6220  Tot=              5.2566
 Quadrupole moment (field-independent basis, Debye-Ang):
   XX=            -78.1815   YY=            -98.2001   ZZ=            -94.7335
   XY=              1.7476   XZ=              2.1774   YZ=             -2.9943

 Normal termination of Gaussian 16 at Thu May  6 14:08:03 2021.
