 Gaussian 16, Revision A.03,
 Gaussian 16:  EM64L-G16RevA.03 25-Dec-2016

 -------------
 #p 6-31g* mp2
 -------------

 ------------------------------------------------------
 Input file generated by CHIRIPA (05-May-2021 14:57:22)
 ------------------------------------------------------
 Symbolic Z-matrix:
 Charge =  0 Multiplicity = 1

                         Standard orientation:
 ---------------------------------------------------------------------
 Center     Atomic      Atomic             Coordinates (Angstroms)
 Number     Number       Type             X           Y           Z
 ---------------------------------------------------------------------
      1          6           0       -6.029049    0.505978   -0.269381
      2          6           0       -5.585038   -0.732895   -0.743270
      3          6           0       -4.271954   -1.152829   -0.510858
      4          6           0       -3.425913   -0.304905    0.202255
      5          6           0       -3.838635    0.935126    0.687306
      6          6           0       -5.155970    1.334573    0.443138
      7          1           0       -7.050736    0.824235   -0.454491
      8          1           0       -6.260878   -1.378462   -1.296919
      9          1           0       -3.902045   -2.106882   -0.866341
     10          1           0       -3.141700    1.556855    1.236079
     11          1           0       -5.498053    2.297226    0.812359
     12          7           0       -2.033560   -0.738626    0.454522
     13          8           0       -1.307804    0.026804    1.085419
     14          8           0       -1.694354   -1.835794    0.016574
     15          6           0        2.267851    2.300963   -0.568026
     16          6           0        3.578655    2.419714   -0.094517
     17          6           0        4.356645    1.280981    0.134759
     18          6           0        3.789532    0.033540   -0.121297
     19          6           0        2.486601   -0.117474   -0.593373
     20          6           0        1.726961    1.034980   -0.815506
     21          1           0        1.670616    3.190888   -0.743359
     22          1           0        4.001326    3.401608    0.098557
     23          1           0        5.374123    1.344060    0.501062
     24          1           0        2.092754   -1.109811   -0.776594
     25          1           0        0.709255    0.939733   -1.183267
     26          7           0        4.603442   -1.179248    0.117646
     27          8           0        4.080604   -2.266817   -0.115746
     28          8           0        5.748812   -1.019299    0.533798
 ---------------------------------------------------------------------

 SCF Done:  E(RHF) =  -868.338660314     A.U. after   16 cycles
 E2 =    -0.2599063122D+01 EUMP2 =    -0.87093772343607D+03

 The electronic state is 1-A.
 Alpha  occ. eigenvalues --  -20.61562 -20.61550 -20.59791 -20.59766 -15.86583
 Alpha  occ. eigenvalues --  -15.84828 -11.31807 -11.30068 -11.28371 -11.28334
 Alpha  occ. eigenvalues --  -11.28056 -11.27337 -11.27309 -11.26695 -11.26508
 Alpha  occ. eigenvalues --  -11.26421 -11.25741 -11.25559  -1.60638  -1.58859
 Alpha  occ. eigenvalues --   -1.40188  -1.38414  -1.19965  -1.18239  -1.09385
 Alpha  occ. eigenvalues --   -1.07682  -1.05340  -1.03609  -0.96240  -0.94530
 Alpha  occ. eigenvalues --   -0.86744  -0.85037  -0.83070  -0.81354  -0.78143
 Alpha  occ. eigenvalues --   -0.76402  -0.72788  -0.71968  -0.71061  -0.71055
 Alpha  occ. eigenvalues --   -0.70176  -0.69392  -0.65612  -0.65334  -0.63902
 Alpha  occ. eigenvalues --   -0.63636  -0.62686  -0.60957  -0.55836  -0.54197
 Alpha  occ. eigenvalues --   -0.53684  -0.53424  -0.51963  -0.51721  -0.49566
 Alpha  occ. eigenvalues --   -0.49543  -0.47816  -0.47800  -0.45611  -0.43846
 Alpha  occ. eigenvalues --   -0.37936  -0.36939  -0.36254  -0.35166
 Alpha virt. eigenvalues --    0.04352   0.06118   0.10717   0.12456   0.15883
 Alpha virt. eigenvalues --    0.17629   0.20898   0.22427   0.26821   0.27718
 Alpha virt. eigenvalues --    0.28330   0.29326   0.30502   0.31819   0.32045

 Mulliken charges:
               1
     1  C   -0.170153
     2  C   -0.218456
     3  C   -0.170826
     4  C    0.156744
     5  C   -0.172198
     6  C   -0.218488
     7  H    0.227653
     8  H    0.225778
     9  H    0.277378
    10  H    0.274662
    11  H    0.224634
    12  N    0.485539
    13  O   -0.461809
    14  O   -0.458463
    15  C   -0.172312
    16  C   -0.219074
    17  C   -0.172653
    18  C    0.156833
    19  C   -0.167095
    20  C   -0.206372
    21  H    0.219439
    22  H    0.218285
    23  H    0.271778
    24  H    0.282685
    25  H    0.222393
    26  N    0.488061
    27  O   -0.458957
    28  O   -0.465006
 Sum of Mulliken charges =  -0.00000

 Dipole moment (field-independent basis, Debye):
    X=             -8.2403    Y=              5.6184    Z=             -1.7331  Tot=             10.1228
 Quadrupole moment (field-independent basis, Debye-Ang):
   XX=            -91.1224   YY=           -101.1063   ZZ=           -104.8228
   XY=             15.3331   XZ=              1.1735   YZ=              3.5842

 Normal termination of Gaussian 16 at Thu May  6 17:54:38 2021.
