 Gaussian 16, Revision A.03,
 Gaussian 16:  EM64L-G16RevA.03 25-Dec-2016

 -------------
 #p 6-31g* mp2
 -------------

 ------------------------------------------------------
 Input file generated by CHIRIPA (05-May-2021 14:53:18)
 ------------------------------------------------------
 Symbolic Z-matrix:
 Charge =  0 Multiplicity = 1

                         Standard orientation:
 ---------------------------------------------------------------------
 Center     Atomic      Atomic             Coordinates (Angstroms)
 Number     Number       Type             X           Y           Z
 ---------------------------------------------------------------------
      1          6           0       -5.028768    0.103118    0.285601
      2          6           0       -6.284510   -0.706658   -0.038990
      3          6           0       -7.560041   -0.063308    0.505911
      4          1           0       -4.946242    0.218864    1.374975
      5          1           0       -5.136128    1.115034   -0.129001
      6          1           0       -6.174227   -1.717175    0.374907
      7          1           0       -6.363952   -0.820654   -1.127709
      8          1           0       -7.697408    0.937449    0.083755
      9          1           0       -7.506604    0.035835    1.594909
     10          1           0       -8.445558   -0.658681    0.262496
     11          6           0       -3.745503   -0.527255   -0.252534
     12          6           0       -2.489760    0.282521    0.072056
     13          6           0       -1.214230   -0.360829   -0.472845
     14          1           0       -3.638143   -1.539171    0.162068
     15          1           0       -3.828028   -0.643002   -1.341909
     16          1           0       -2.410318    0.396516    1.160775
     17          1           0       -2.600043    1.293037   -0.341841
     18          1           0       -1.267666   -0.459972   -1.561843
     19          1           0       -1.076863   -1.361587   -0.050689
     20          1           0       -0.328713    0.234544   -0.229430
     21          6           0        4.782849   -1.926849    0.374566
     22          6           0        4.053228   -1.774598   -0.809070
     23          6           0        3.298718   -0.619404   -1.034432
     24          6           0        3.296415    0.367977   -0.050377
     25          6           0        4.012885    0.245680    1.139162
     26          6           0        4.760388   -0.918003    1.343196
     27          1           0        5.366249   -2.827529    0.541348
     28          1           0        4.068814   -2.556439   -1.563078
     29          1           0        2.724633   -0.475599   -1.941716
     30          1           0        3.977784    1.042363    1.872293
     31          1           0        5.326053   -1.033525    2.263373
     32          7           0        2.501357    1.595423   -0.277668
     33          8           0        2.515845    2.450694    0.604906
     34          8           0        1.878759    1.678980   -1.334089
 ---------------------------------------------------------------------

 SCF Done:  E(RHF) =  -669.535900957     A.U. after   15 cycles
 E2 =    -0.2091177820D+01 EUMP2 =    -0.67162707877750D+03

 The electronic state is 1-A.
 Alpha  occ. eigenvalues --  -20.60890 -20.60876 -15.85905 -11.31223 -11.27792
 Alpha  occ. eigenvalues --  -11.27781 -11.27531 -11.26798 -11.26785 -11.21286
 Alpha  occ. eigenvalues --  -11.20987 -11.20960 -11.20886 -11.20793 -11.20375
 Alpha  occ. eigenvalues --   -1.59951  -1.39504  -1.19394  -1.08803  -1.07976
 Alpha  occ. eigenvalues --   -1.04789  -1.03051  -0.95647  -0.95506  -0.86532
 Alpha  occ. eigenvalues --   -0.86190  -0.82477  -0.79127  -0.77785  -0.77529
 Alpha  occ. eigenvalues --   -0.72133  -0.71282  -0.70505  -0.65050  -0.64794
 Alpha  occ. eigenvalues --   -0.64609  -0.62137  -0.60449  -0.58874  -0.57106
 Alpha  occ. eigenvalues --   -0.55299  -0.54804  -0.53120  -0.52883  -0.52198
 Alpha  occ. eigenvalues --   -0.51940  -0.49466  -0.48899  -0.48889  -0.47447
 Alpha  occ. eigenvalues --   -0.46164  -0.45330  -0.45251  -0.44912  -0.43254
 Alpha  occ. eigenvalues --   -0.37375  -0.36387
 Alpha virt. eigenvalues --    0.04990   0.11249   0.16466   0.21378   0.23299
 Alpha virt. eigenvalues --    0.24743   0.27064   0.27271   0.27935   0.27964
 Alpha virt. eigenvalues --    0.28637   0.30772   0.31815   0.32091   0.32251

 Mulliken charges:
               1
     1  C   -0.298069
     2  C   -0.299230
     3  C   -0.475486
     4  H    0.149074
     5  H    0.150758
     6  H    0.150485
     7  H    0.151462
     8  H    0.155587
     9  H    0.154766
    10  H    0.158991
    11  C   -0.298079
    12  C   -0.299207
    13  C   -0.477573
    14  H    0.146482
    15  H    0.148814
    16  H    0.150407
    17  H    0.157708
    18  H    0.154426
    19  H    0.146769
    20  H    0.167826
    21  C   -0.170552
    22  C   -0.218648
    23  C   -0.170081
    24  C    0.157453
    25  C   -0.170846
    26  C   -0.218668
    27  H    0.225729
    28  H    0.223715
    29  H    0.276441
    30  H    0.275591
    31  H    0.223516
    32  N    0.486833
    33  O   -0.459035
    34  O   -0.457360
 Sum of Mulliken charges =  -0.00000

 Dipole moment (field-independent basis, Debye):
    X=              2.9525    Y=             -4.2280    Z=              0.7697  Tot=              5.2140
 Quadrupole moment (field-independent basis, Debye-Ang):
   XX=            -77.9546   YY=            -97.8035   ZZ=            -90.3780
   XY=            -12.9100   XZ=              4.5641   YZ=              1.7466

 Normal termination of Gaussian 16 at Thu May  6 12:19:35 2021.
