 Gaussian 16, Revision A.03,
 Gaussian 16:  EM64L-G16RevA.03 25-Dec-2016

 -------------
 #p 6-31g* mp2
 -------------

 ------------------------------------------------------
 Input file generated by CHIRIPA (05-May-2021 14:55:23)
 ------------------------------------------------------
 Symbolic Z-matrix:
 Charge =  0 Multiplicity = 1

                         Standard orientation:
 ---------------------------------------------------------------------
 Center     Atomic      Atomic             Coordinates (Angstroms)
 Number     Number       Type             X           Y           Z
 ---------------------------------------------------------------------
      1          6           0        2.221453   -2.019431    1.620996
      2          6           0        3.465883   -1.416508    1.410286
      3          6           0        3.600422   -0.365907    0.497770
      4          6           0        2.464540    0.058462   -0.189959
      5          6           0        1.211111   -0.521947   -0.001990
      6          6           0        1.100016   -1.571017    0.915429
      7          1           0        2.126045   -2.834969    2.331764
      8          1           0        4.338523   -1.762681    1.956828
      9          1           0        4.551842    0.118766    0.315264
     10          1           0        0.359315   -0.155037   -0.561667
     11          1           0        0.132320   -2.037378    1.077037
     12          7           0        2.594561    1.169876   -1.158594
     13          8           0        1.578570    1.525318   -1.751942
     14          8           0        3.710000    1.664516   -1.306121
     15          6           0       -3.500910   -0.499693   -0.056326
     16          6           0       -2.889331   -1.393036   -1.136092
     17          6           0       -3.648075   -2.708407   -1.314699
     18          1           0       -3.518771   -1.046609    0.896307
     19          1           0       -4.547684   -0.288057   -0.314915
     20          1           0       -1.843616   -1.601789   -0.876251
     21          1           0       -2.872747   -0.843861   -2.086222
     22          1           0       -4.688316   -2.517724   -1.597789
     23          1           0       -3.653338   -3.279959   -0.380942
     24          1           0       -3.193893   -3.331595   -2.091368
     25          6           0       -2.753453    0.818957    0.133936
     26          6           0       -3.365032    1.712299    1.213701
     27          6           0       -2.606287    3.027670    1.392308
     28          1           0       -1.706679    0.607320    0.392525
     29          1           0       -2.735591    1.365873   -0.818697
     30          1           0       -3.381616    1.163124    2.163832
     31          1           0       -4.410747    1.921053    0.953860
     32          1           0       -2.601025    3.599223    0.458552
     33          1           0       -1.566046    2.836987    1.675398
     34          1           0       -3.060470    3.650859    2.168977
 ---------------------------------------------------------------------

 SCF Done:  E(RHF) =  -669.535180030     A.U. after   15 cycles
 E2 =    -0.2092676883D+01 EUMP2 =    -0.67162785691303D+03

 The electronic state is 1-A.
 Alpha  occ. eigenvalues --  -20.60740 -20.60734 -15.85792 -11.31165 -11.27753
 Alpha  occ. eigenvalues --  -11.27693 -11.27500 -11.26773 -11.26761 -11.22240
 Alpha  occ. eigenvalues --  -11.21874 -11.21812 -11.21724 -11.21589 -11.21056
 Alpha  occ. eigenvalues --   -1.59815  -1.39367  -1.19350  -1.08858  -1.08743
 Alpha  occ. eigenvalues --   -1.04758  -1.03883  -0.96311  -0.95574  -0.87324
 Alpha  occ. eigenvalues --   -0.86152  -0.82413  -0.79971  -0.78688  -0.77431
 Alpha  occ. eigenvalues --   -0.72012  -0.71138  -0.70467  -0.65542  -0.64988
 Alpha  occ. eigenvalues --   -0.64763  -0.62101  -0.61282  -0.59690  -0.57919
 Alpha  occ. eigenvalues --   -0.55605  -0.55256  -0.53092  -0.53006  -0.52880
 Alpha  occ. eigenvalues --   -0.52673  -0.50255  -0.48773  -0.48765  -0.48267
 Alpha  occ. eigenvalues --   -0.47030  -0.46155  -0.46092  -0.44769  -0.44150
 Alpha  occ. eigenvalues --   -0.37334  -0.36349
 Alpha virt. eigenvalues --    0.05039   0.11266   0.16498   0.19171   0.22923
 Alpha virt. eigenvalues --    0.23936   0.24812   0.26389   0.27657   0.28054
 Alpha virt. eigenvalues --    0.29895   0.30781   0.31406   0.31553   0.32067

 Mulliken charges:
               1
     1  C   -0.170622
     2  C   -0.218718
     3  C   -0.170530
     4  C    0.159363
     5  C   -0.178247
     6  C   -0.222500
     7  H    0.225591
     8  H    0.223507
     9  H    0.275609
    10  H    0.284415
    11  H    0.224764
    12  N    0.487862
    13  O   -0.459877
    14  O   -0.460683
    15  C   -0.298714
    16  C   -0.303869
    17  C   -0.475658
    18  H    0.145961
    19  H    0.153575
    20  H    0.141786
    21  H    0.160042
    22  H    0.158875
    23  H    0.152482
    24  H    0.162577
    25  C   -0.303112
    26  C   -0.299669
    27  C   -0.476057
    28  H    0.143610
    29  H    0.158468
    30  H    0.149588
    31  H    0.153302
    32  H    0.160283
    33  H    0.156468
    34  H    0.160129
 Sum of Mulliken charges =  -0.00000

 Dipole moment (field-independent basis, Debye):
    X=             -0.5842    Y=             -3.8017    Z=              3.3215  Tot=              5.0820
 Quadrupole moment (field-independent basis, Debye-Ang):
   XX=            -91.4737   YY=            -96.4800   ZZ=            -96.0484
   XY=            -10.3376   XZ=             10.4752   YZ=              0.3987

 Normal termination of Gaussian 16 at Thu May  6 12:35:34 2021.
