 Gaussian 16, Revision A.03,
 Gaussian 16:  EM64L-G16RevA.03 25-Dec-2016

 -------------
 #p 6-31g* mp2
 -------------

 ------------------------------------------------------
 Input file generated by CHIRIPA (05-May-2021 14:57:26)
 ------------------------------------------------------
 Symbolic Z-matrix:
 Charge =  0 Multiplicity = 1

                         Standard orientation:
 ---------------------------------------------------------------------
 Center     Atomic      Atomic             Coordinates (Angstroms)
 Number     Number       Type             X           Y           Z
 ---------------------------------------------------------------------
      1          6           0        4.569839   -1.650958   -0.666303
      2          6           0        3.219285   -1.847441   -0.359843
      3          6           0        2.398138   -0.761584   -0.041755
      4          6           0        2.963095    0.512821   -0.039625
      5          6           0        4.305004    0.740917   -0.340530
      6          6           0        5.107440   -0.359682   -0.655687
      7          1           0        5.200458   -2.500204   -0.912264
      8          1           0        2.799063   -2.849142   -0.367307
      9          1           0        1.349334   -0.885164    0.199404
     10          1           0        4.695315    1.751278   -0.324857
     11          1           0        6.155958   -0.204100   -0.893278
     12          7           0        2.103688    1.670173    0.295570
     13          8           0        2.625550    2.782949    0.290495
     14          8           0        0.924494    1.442614    0.557023
     15          6           0       -4.616429    0.813640   -1.575717
     16          6           0       -3.929905   -0.351797   -1.932037
     17          6           0       -3.089651   -0.989505   -1.014513
     18          6           0       -2.958591   -0.431872    0.256376
     19          6           0       -3.629188    0.728037    0.641344
     20          6           0       -4.464148    1.348893   -0.292426
     21          1           0       -5.267102    1.302482   -2.294782
     22          1           0       -4.046257   -0.769733   -2.927947
     23          1           0       -2.546341   -1.892846   -1.263929
     24          1           0       -3.493067    1.120929    1.641607
     25          1           0       -4.996071    2.253872   -0.012933
     26          7           0       -2.071855   -1.098065    1.236317
     27          8           0       -1.973390   -0.586757    2.349647
     28          8           0       -1.492086   -2.118923    0.872509
 ---------------------------------------------------------------------

 SCF Done:  E(RHF) =  -868.339893656     A.U. after   16 cycles
 E2 =    -0.2599094978D+01 EUMP2 =    -0.87093898863317D+03

 The electronic state is 1-A.
 Alpha  occ. eigenvalues --  -20.60665 -20.60555 -20.60305 -20.60282 -15.85633
 Alpha  occ. eigenvalues --  -15.85342 -11.30801 -11.30570 -11.27423 -11.27308
 Alpha  occ. eigenvalues --  -11.27202 -11.27111 -11.27011 -11.26918 -11.26401
 Alpha  occ. eigenvalues --  -11.26321 -11.26206 -11.26073  -1.59654  -1.59368
 Alpha  occ. eigenvalues --   -1.39220  -1.38925  -1.18963  -1.18752  -1.08403
 Alpha  occ. eigenvalues --   -1.08186  -1.04356  -1.04122  -0.95272  -0.95032
 Alpha  occ. eigenvalues --   -0.85768  -0.85537  -0.82123  -0.81861  -0.77184
 Alpha  occ. eigenvalues --   -0.76911  -0.71874  -0.71592  -0.70905  -0.70683
 Alpha  occ. eigenvalues --   -0.70109  -0.69864  -0.64642  -0.64406  -0.64384
 Alpha  occ. eigenvalues --   -0.64126  -0.61719  -0.61446  -0.54893  -0.54671
 Alpha  occ. eigenvalues --   -0.52671  -0.52486  -0.52467  -0.52204  -0.48646
 Alpha  occ. eigenvalues --   -0.48597  -0.48325  -0.48316  -0.44662  -0.44351
 Alpha  occ. eigenvalues --   -0.36930  -0.36765  -0.35937  -0.35726
 Alpha virt. eigenvalues --    0.05346   0.05607   0.11716   0.11920   0.16841
 Alpha virt. eigenvalues --    0.17104   0.21729   0.22098   0.27655   0.27940
 Alpha virt. eigenvalues --    0.28538   0.29013   0.31158   0.31661   0.32776

 Mulliken charges:
               1
     1  C   -0.171009
     2  C   -0.221288
     3  C   -0.173695
     4  C    0.157354
     5  C   -0.171537
     6  C   -0.219473
     7  H    0.223621
     8  H    0.227430
     9  H    0.286695
    10  H    0.273129
    11  H    0.220819
    12  N    0.488473
    13  O   -0.463687
    14  O   -0.460920
    15  C   -0.169973
    16  C   -0.218429
    17  C   -0.171351
    18  C    0.162971
    19  C   -0.164398
    20  C   -0.218063
    21  H    0.224602
    22  H    0.221023
    23  H    0.270351
    24  H    0.278320
    25  H    0.223907
    26  N    0.490817
    27  O   -0.451074
    28  O   -0.474616
 Sum of Mulliken charges =  -0.00000

 Dipole moment (field-independent basis, Debye):
    X=             -0.3256    Y=             -1.6393    Z=             -4.4606  Tot=              4.7634
 Quadrupole moment (field-independent basis, Debye-Ang):
   XX=            -66.5720   YY=           -107.8113   ZZ=           -105.2270
   XY=            -15.2829   XZ=              4.3003   YZ=              4.0251

 Normal termination of Gaussian 16 at Thu May  6 02:01:50 2021.
