 Gaussian 16, Revision A.03,
 Gaussian 16:  EM64L-G16RevA.03 25-Dec-2016

 -------------
 #p 6-31g* mp2
 -------------

 ------------------------------------------------------
 Input file generated by CHIRIPA (05-May-2021 14:57:22)
 ------------------------------------------------------
 Symbolic Z-matrix:
 Charge =  0 Multiplicity = 1

                         Standard orientation:
 ---------------------------------------------------------------------
 Center     Atomic      Atomic             Coordinates (Angstroms)
 Number     Number       Type             X           Y           Z
 ---------------------------------------------------------------------
      1          6           0       -0.441279    1.710635    1.189483
      2          6           0       -0.992004    2.135153   -0.024192
      3          6           0       -2.115219    1.495265   -0.556619
      4          6           0       -2.664640    0.429450    0.154342
      5          6           0       -2.138941   -0.016840    1.365852
      6          6           0       -1.015493    0.637885    1.879416
      7          1           0        0.431353    2.213478    1.595758
      8          1           0       -0.548159    2.967988   -0.562182
      9          1           0       -2.561868    1.803324   -1.494180
     10          1           0       -2.603493   -0.849968    1.879182
     11          1           0       -0.589920    0.306041    2.822184
     12          7           0       -3.853861   -0.255825   -0.399329
     13          8           0       -4.319239   -1.192346    0.246417
     14          8           0       -4.298077    0.156555   -1.468559
     15          6           0        0.369437   -1.941321   -0.293128
     16          6           0        0.742486   -1.200339   -1.419317
     17          6           0        1.903549   -0.421717   -1.404269
     18          6           0        2.671585   -0.407148   -0.240999
     19          6           0        2.326403   -1.134438    0.897065
     20          6           0        1.161191   -1.906068    0.859437
     21          1           0       -0.534117   -2.543457   -0.313587
     22          1           0        0.129525   -1.225817   -2.315795
     23          1           0        2.215731    0.161604   -2.261998
     24          1           0        2.957712   -1.089008    1.776157
     25          1           0        0.873927   -2.480509    1.735532
     26          7           0        3.902948    0.413443   -0.213116
     27          8           0        4.562467    0.409366    0.824021
     28          8           0        4.185253    1.045162   -1.228928
 ---------------------------------------------------------------------

 SCF Done:  E(RHF) =  -868.336501600     A.U. after   16 cycles
 E2 =    -0.2605557483D+01 EUMP2 =    -0.87094205908339D+03

 The electronic state is 1-A.
 Alpha  occ. eigenvalues --  -20.61446 -20.61432 -20.61325 -20.61318 -15.86486
 Alpha  occ. eigenvalues --  -15.86375 -11.31718 -11.31633 -11.28257 -11.28219
 Alpha  occ. eigenvalues --  -11.28198 -11.28184 -11.27877 -11.27837 -11.27249
 Alpha  occ. eigenvalues --  -11.27207 -11.27177 -11.27116  -1.60527  -1.60410
 Alpha  occ. eigenvalues --   -1.40082  -1.39964  -1.19927  -1.19732  -1.09275
 Alpha  occ. eigenvalues --   -1.09192  -1.05315  -1.05132  -0.96158  -0.96024
 Alpha  occ. eigenvalues --   -0.86658  -0.86590  -0.82981  -0.82885  -0.78074
 Alpha  occ. eigenvalues --   -0.77955  -0.72698  -0.72587  -0.71877  -0.71751
 Alpha  occ. eigenvalues --   -0.70975  -0.70834  -0.65519  -0.65443  -0.65267
 Alpha  occ. eigenvalues --   -0.65181  -0.62654  -0.62514  -0.55710  -0.55636
 Alpha  occ. eigenvalues --   -0.54693  -0.53358  -0.53272  -0.52412  -0.49470
 Alpha  occ. eigenvalues --   -0.49444  -0.49354  -0.49337  -0.45513  -0.45393
 Alpha  occ. eigenvalues --   -0.38290  -0.37937  -0.37101  -0.35745
 Alpha virt. eigenvalues --    0.04323   0.04658   0.10652   0.10842   0.15744
 Alpha virt. eigenvalues --    0.16461   0.20328   0.21539   0.25979   0.27306
 Alpha virt. eigenvalues --    0.27760   0.28284   0.29986   0.31089   0.32046

 Mulliken charges:
               1
     1  C   -0.168793
     2  C   -0.216550
     3  C   -0.174861
     4  C    0.157601
     5  C   -0.178230
     6  C   -0.208864
     7  H    0.230926
     8  H    0.227421
     9  H    0.275092
    10  H    0.271377
    11  H    0.220849
    12  N    0.486436
    13  O   -0.462732
    14  O   -0.459363
    15  C   -0.166143
    16  C   -0.216047
    17  C   -0.171995
    18  C    0.156611
    19  C   -0.177050
    20  C   -0.217658
    21  H    0.231311
    22  H    0.227376
    23  H    0.274883
    24  H    0.273130
    25  H    0.220544
    26  N    0.486845
    27  O   -0.461724
    28  O   -0.460390
 Sum of Mulliken charges =  -0.00000

 Dipole moment (field-independent basis, Debye):
    X=             -0.1552    Y=             -0.4051    Z=              1.7818  Tot=              1.8339
 Quadrupole moment (field-independent basis, Debye-Ang):
   XX=           -152.7249   YY=            -98.8307   ZZ=            -96.9841
   XY=            -10.9077   XZ=             -2.9021   YZ=             -2.2007

 Normal termination of Gaussian 16 at Thu May  6 09:42:41 2021.
