 Gaussian 16, Revision A.03,
 Gaussian 16:  EM64L-G16RevA.03 25-Dec-2016

 -------------
 #p 6-31g* mp2
 -------------

 ------------------------------------------------------
 Input file generated by CHIRIPA (05-May-2021 14:55:22)
 ------------------------------------------------------
 Symbolic Z-matrix:
 Charge =  0 Multiplicity = 1

                         Standard orientation:
 ---------------------------------------------------------------------
 Center     Atomic      Atomic             Coordinates (Angstroms)
 Number     Number       Type             X           Y           Z
 ---------------------------------------------------------------------
      1          6           0        3.848578    2.213352    0.430904
      2          6           0        2.795428    1.784312    1.245348
      3          6           0        2.184534    0.546638    1.022813
      4          6           0        2.654193   -0.240079   -0.027799
      5          6           0        3.701404    0.159575   -0.856603
      6          6           0        4.297414    1.401046   -0.615627
      7          1           0        4.317354    3.176281    0.610937
      8          1           0        2.444777    2.413068    2.058831
      9          1           0        1.367395    0.189952    1.638017
     10          1           0        4.029049   -0.489228   -1.659797
     11          1           0        5.115113    1.731673   -1.249740
     12          7           0        2.015346   -1.552359   -0.273148
     13          8           0        2.447606   -2.226861   -1.205262
     14          8           0        1.094454   -1.881574    0.471306
     15          6           0       -4.049666    0.541476   -0.249551
     16          6           0       -3.559155    1.986764   -0.157218
     17          6           0       -4.605651    2.997392   -0.627612
     18          1           0       -4.332008    0.322456   -1.288425
     19          1           0       -4.962609    0.432308    0.352123
     20          1           0       -2.646633    2.092837   -0.757774
     21          1           0       -3.277767    2.202309    0.881520
     22          1           0       -5.514668    2.920680   -0.022300
     23          1           0       -4.879948    2.810586   -1.670908
     24          1           0       -4.234107    4.024167   -0.553134
     25          6           0       -3.014610   -0.480548    0.217199
     26          6           0       -3.505121   -1.925836    0.124867
     27          6           0       -2.458625   -2.936465    0.595260
     28          1           0       -2.101666   -0.371381   -0.384475
     29          1           0       -2.732268   -0.261528    1.256073
     30          1           0       -3.786509   -2.141381   -0.913872
     31          1           0       -4.417644   -2.031909    0.725422
     32          1           0       -2.184328   -2.749660    1.638557
     33          1           0       -1.549607   -2.859753   -0.010052
     34          1           0       -2.830170   -3.963239    0.520782
 ---------------------------------------------------------------------

 SCF Done:  E(RHF) =  -669.536080585     A.U. after   15 cycles
 E2 =    -0.2091183265D+01 EUMP2 =    -0.67162726384916D+03

 The electronic state is 1-A.
 Alpha  occ. eigenvalues --  -20.60938 -20.60922 -15.85957 -11.31273 -11.27839
 Alpha  occ. eigenvalues --  -11.27829 -11.27576 -11.26844 -11.26832 -11.21393
 Alpha  occ. eigenvalues --  -11.20948 -11.20928 -11.20723 -11.20658 -11.19597
 Alpha  occ. eigenvalues --   -1.59994  -1.39549  -1.19443  -1.08850  -1.07866
 Alpha  occ. eigenvalues --   -1.04837  -1.02874  -0.95694  -0.95289  -0.86305
 Alpha  occ. eigenvalues --   -0.86235  -0.82524  -0.78992  -0.77656  -0.77541
 Alpha  occ. eigenvalues --   -0.72178  -0.71308  -0.70550  -0.65098  -0.64840
 Alpha  occ. eigenvalues --   -0.64507  -0.62183  -0.60275  -0.58754  -0.56892
 Alpha  occ. eigenvalues --   -0.55344  -0.54566  -0.53171  -0.52929  -0.52000
 Alpha  occ. eigenvalues --   -0.51697  -0.49300  -0.48940  -0.48870  -0.47252
 Alpha  occ. eigenvalues --   -0.46046  -0.45261  -0.45129  -0.44745  -0.43148
 Alpha  occ. eigenvalues --   -0.37423  -0.36437
 Alpha virt. eigenvalues --    0.04929   0.11214   0.16412   0.21312   0.23339
 Alpha virt. eigenvalues --    0.24988   0.27074   0.27262   0.27715   0.28487
 Alpha virt. eigenvalues --    0.28863   0.30943   0.32085   0.32185   0.32522

 Mulliken charges:
               1
     1  C   -0.170584
     2  C   -0.218508
     3  C   -0.170677
     4  C    0.157595
     5  C   -0.170757
     6  C   -0.218639
     7  H    0.225952
     8  H    0.223936
     9  H    0.276490
    10  H    0.275714
    11  H    0.223709
    12  N    0.489108
    13  O   -0.459483
    14  O   -0.459979
    15  C   -0.297719
    16  C   -0.298708
    17  C   -0.475106
    18  H    0.149510
    19  H    0.148294
    20  H    0.150242
    21  H    0.148401
    22  H    0.155130
    23  H    0.155588
    24  H    0.157450
    25  C   -0.296281
    26  C   -0.300183
    27  C   -0.480292
    28  H    0.152058
    29  H    0.145236
    30  H    0.149488
    31  H    0.146719
    32  H    0.151707
    33  H    0.180598
    34  H    0.153988
 Sum of Mulliken charges =  -0.00000

 Dipole moment (field-independent basis, Debye):
    X=              2.5132    Y=              4.5394    Z=              0.8266  Tot=              5.2541
 Quadrupole moment (field-independent basis, Debye-Ang):
   XX=            -82.5021   YY=            -98.3801   ZZ=            -91.4482
   XY=             11.9406   XZ=             -0.9370   YZ=              0.8730

 Normal termination of Gaussian 16 at Thu May  6 07:49:15 2021.
