 Gaussian 16, Revision A.03,
 Gaussian 16:  EM64L-G16RevA.03 25-Dec-2016

 -------------
 #p 6-31g* mp2
 -------------

 ------------------------------------------------------
 Input file generated by CHIRIPA (05-May-2021 14:57:22)
 ------------------------------------------------------
 Symbolic Z-matrix:
 Charge =  0 Multiplicity = 1

                         Standard orientation:
 ---------------------------------------------------------------------
 Center     Atomic      Atomic             Coordinates (Angstroms)
 Number     Number       Type             X           Y           Z
 ---------------------------------------------------------------------
      1          6           0       -2.861834    2.511561    0.900452
      2          6           0       -2.781120    1.412351    1.761697
      3          6           0       -2.625424    0.120224    1.251093
      4          6           0       -2.553727   -0.036974   -0.132177
      5          6           0       -2.631017    1.038188   -1.016114
      6          6           0       -2.786658    2.321307   -0.483265
      7          1           0       -2.982761    3.511818    1.305742
      8          1           0       -2.839207    1.557112    2.836739
      9          1           0       -2.560178   -0.748404    1.895024
     10          1           0       -2.569991    0.862349   -2.083247
     11          1           0       -2.849052    3.173118   -1.154510
     12          7           0       -2.388927   -1.400123   -0.684506
     13          8           0       -2.328397   -1.511992   -1.906986
     14          8           0       -2.323408   -2.330879    0.115518
     15          6           0        1.426535   -2.285026    0.837745
     16          6           0        2.203510   -1.533428    1.725400
     17          6           0        2.847645   -0.369643    1.295002
     18          6           0        2.692486    0.015074   -0.035865
     19          6           0        1.925168   -0.712437   -0.944293
     20          6           0        1.290084   -1.872859   -0.491923
     21          1           0        0.929671   -3.187776    1.180623
     22          1           0        2.311255   -1.851124    2.758602
     23          1           0        3.455155    0.231036    1.960986
     24          1           0        1.836483   -0.370466   -1.968309
     25          1           0        0.687304   -2.454588   -1.183510
     26          7           0        3.369612    1.245340   -0.503138
     27          8           0        3.217110    1.562936   -1.680641
     28          8           0        4.040024    1.868732    0.316964
 ---------------------------------------------------------------------

 SCF Done:  E(RHF) =  -868.340765595     A.U. after   16 cycles
 E2 =    -0.2600095655D+01 EUMP2 =    -0.87094086125003D+03

 The electronic state is 1-A.
 Alpha  occ. eigenvalues --  -20.61584 -20.61563 -20.60554 -20.60548 -15.86583
 Alpha  occ. eigenvalues --  -15.85599 -11.31591 -11.30780 -11.28144 -11.28101
 Alpha  occ. eigenvalues --  -11.27784 -11.27380 -11.27272 -11.27071 -11.27022
 Alpha  occ. eigenvalues --  -11.26912 -11.26323 -11.26075  -1.60640  -1.59635
 Alpha  occ. eigenvalues --   -1.40203  -1.39193  -1.19728  -1.18923  -1.09189
 Alpha  occ. eigenvalues --   -1.08322  -1.05082  -1.04289  -0.96087  -0.95193
 Alpha  occ. eigenvalues --   -0.86497  -0.85672  -0.82939  -0.82030  -0.78028
 Alpha  occ. eigenvalues --   -0.77127  -0.72825  -0.71962  -0.71810  -0.70958
 Alpha  occ. eigenvalues --   -0.70837  -0.69952  -0.65388  -0.65085  -0.64547
 Alpha  occ. eigenvalues --   -0.64221  -0.62442  -0.61615  -0.55591  -0.54697
 Alpha  occ. eigenvalues --   -0.53425  -0.53173  -0.52644  -0.52327  -0.49596
 Alpha  occ. eigenvalues --   -0.49550  -0.48587  -0.48556  -0.45698  -0.44641
 Alpha  occ. eigenvalues --   -0.37679  -0.36866  -0.36651  -0.35914
 Alpha virt. eigenvalues --    0.04430   0.05403   0.10988   0.11732   0.16014
 Alpha virt. eigenvalues --    0.16948   0.21131   0.22152   0.27065   0.27833
 Alpha virt. eigenvalues --    0.28189   0.28963   0.30772   0.31683   0.32254

 Mulliken charges:
               1
     1  C   -0.169005
     2  C   -0.218408
     3  C   -0.169228
     4  C    0.159333
     5  C   -0.170570
     6  C   -0.217462
     7  H    0.228484
     8  H    0.224025
     9  H    0.272391
    10  H    0.275879
    11  H    0.227075
    12  N    0.489085
    13  O   -0.462838
    14  O   -0.466661
    15  C   -0.168829
    16  C   -0.221439
    17  C   -0.172699
    18  C    0.157765
    19  C   -0.174271
    20  C   -0.230345
    21  H    0.234059
    22  H    0.220498
    23  H    0.272422
    24  H    0.275510
    25  H    0.242494
    26  N    0.488073
    27  O   -0.462149
    28  O   -0.463190
 Sum of Mulliken charges =  -0.00000

 Dipole moment (field-independent basis, Debye):
    X=             -3.2156    Y=              0.4698    Z=              3.5461  Tot=              4.8099
 Quadrupole moment (field-independent basis, Debye-Ang):
   XX=           -116.0707   YY=           -105.0081   ZZ=            -97.1693
   XY=            -24.5690   XZ=              1.4397   YZ=             -1.6885

 Normal termination of Gaussian 16 at Thu May  6 08:07:07 2021.
