 Gaussian 16, Revision A.03,
 Gaussian 16:  EM64L-G16RevA.03 25-Dec-2016

 -------------
 #p 6-31g* mp2
 -------------

 ------------------------------------------------------
 Input file generated by CHIRIPA (05-May-2021 14:57:23)
 ------------------------------------------------------
 Symbolic Z-matrix:
 Charge =  0 Multiplicity = 1

                         Standard orientation:
 ---------------------------------------------------------------------
 Center     Atomic      Atomic             Coordinates (Angstroms)
 Number     Number       Type             X           Y           Z
 ---------------------------------------------------------------------
      1          6           0       -4.388041    1.654688    0.454321
      2          6           0       -4.362838    0.607879    1.381724
      3          6           0       -3.595589   -0.535743    1.140880
      4          6           0       -2.862384   -0.599487   -0.043028
      5          6           0       -2.866920    0.426790   -0.986439
      6          6           0       -3.641318    1.560968   -0.724722
      7          1           0       -4.986836    2.539413    0.649521
      8          1           0       -4.941757    0.677923    2.298234
      9          1           0       -3.557923   -1.360870    1.841711
     10          1           0       -2.279326    0.328088   -1.891099
     11          1           0       -3.658988    2.372390   -1.446752
     12          7           0       -2.046348   -1.805189   -0.309047
     13          8           0       -1.409257   -1.836966   -1.359639
     14          8           0       -2.059281   -2.695612    0.538076
     15          6           0        1.557746    2.441090   -0.364035
     16          6           0        2.790581    2.560728    0.285831
     17          6           0        3.596241    1.437013    0.492527
     18          6           0        3.136007    0.203522    0.034299
     19          6           0        1.912594    0.052021   -0.616546
     20          6           0        1.123453    1.189326   -0.812360
     21          1           0        0.938307    3.319298   -0.520376
     22          1           0        3.130405    3.531601    0.635075
     23          1           0        4.554976    1.501129    0.992662
     24          1           0        1.600677   -0.929118   -0.953431
     25          1           0        0.166471    1.093426   -1.317367
     26          7           0        3.980179   -0.993298    0.247359
     27          8           0        3.552053   -2.068755   -0.165846
     28          8           0        5.053982   -0.833247    0.823524
 ---------------------------------------------------------------------

 SCF Done:  E(RHF) =  -868.337859852     A.U. after   16 cycles
 E2 =    -0.2600928873D+01 EUMP2 =    -0.87093878872462D+03

 The electronic state is 1-A.
 Alpha  occ. eigenvalues --  -20.61604 -20.61528 -20.60200 -20.60159 -15.86595
 Alpha  occ. eigenvalues --  -15.85237 -11.31990 -11.30674 -11.28626 -11.28475
 Alpha  occ. eigenvalues --  -11.28246 -11.27608 -11.27498 -11.27343 -11.27160
 Alpha  occ. eigenvalues --  -11.27132 -11.26397 -11.26316  -1.60616  -1.59260
 Alpha  occ. eigenvalues --   -1.40176  -1.38806  -1.20148  -1.18894  -1.09526
 Alpha  occ. eigenvalues --   -1.08302  -1.05562  -1.04297  -0.96364  -0.95102
 Alpha  occ. eigenvalues --   -0.86956  -0.85710  -0.83199  -0.81924  -0.78264
 Alpha  occ. eigenvalues --   -0.76929  -0.72804  -0.71934  -0.71454  -0.71251
 Alpha  occ. eigenvalues --   -0.70587  -0.70019  -0.65799  -0.65569  -0.64547
 Alpha  occ. eigenvalues --   -0.64342  -0.62911  -0.61596  -0.56029  -0.54877
 Alpha  occ. eigenvalues --   -0.53888  -0.53653  -0.52652  -0.52361  -0.49577
 Alpha  occ. eigenvalues --   -0.49547  -0.48234  -0.48193  -0.45563  -0.44194
 Alpha  occ. eigenvalues --   -0.38104  -0.37180  -0.36919  -0.35901
 Alpha virt. eigenvalues --    0.04215   0.05584   0.10358   0.11752   0.15742
 Alpha virt. eigenvalues --    0.17023   0.20002   0.22010   0.25443   0.27065
 Alpha virt. eigenvalues --    0.28644   0.28789   0.30315   0.31000   0.32725

 Mulliken charges:
               1
     1  C   -0.170568
     2  C   -0.217342
     3  C   -0.169592
     4  C    0.162031
     5  C   -0.178225
     6  C   -0.219470
     7  H    0.227818
     8  H    0.226857
     9  H    0.279194
    10  H    0.271082
    11  H    0.223273
    12  N    0.488721
    13  O   -0.467482
    14  O   -0.450429
    15  C   -0.171840
    16  C   -0.219410
    17  C   -0.171023
    18  C    0.158402
    19  C   -0.176510
    20  C   -0.222648
    21  H    0.219614
    22  H    0.220434
    23  H    0.274246
    24  H    0.293520
    25  H    0.220219
    26  N    0.487492
    27  O   -0.454361
    28  O   -0.464002
 Sum of Mulliken charges =  -0.00000

 Dipole moment (field-independent basis, Debye):
    X=             -6.1514    Y=              8.1383    Z=              0.3456  Tot=             10.2074
 Quadrupole moment (field-independent basis, Debye-Ang):
   XX=           -104.6710   YY=           -106.7934   ZZ=           -101.0204
   XY=              4.6802   XZ=             -5.4836   YZ=             -1.2433

 Normal termination of Gaussian 16 at Fri May  7 07:57:51 2021.
