 Gaussian 16, Revision A.03,
 Gaussian 16:  EM64L-G16RevA.03 25-Dec-2016

 -------------
 #p 6-31g* mp2
 -------------

 ------------------------------------------------------
 Input file generated by CHIRIPA (05-May-2021 14:53:18)
 ------------------------------------------------------
 Symbolic Z-matrix:
 Charge =  0 Multiplicity = 1

                         Standard orientation:
 ---------------------------------------------------------------------
 Center     Atomic      Atomic             Coordinates (Angstroms)
 Number     Number       Type             X           Y           Z
 ---------------------------------------------------------------------
      1          6           0       -3.531214    0.930842   -0.199285
      2          6           0       -2.869368    1.812184    0.860518
      3          6           0       -2.124250    3.003375    0.257480
      4          1           0       -2.764109    0.569775   -0.897945
      5          1           0       -4.229315    1.540605   -0.789402
      6          1           0       -2.173749    1.200630    1.449357
      7          1           0       -3.638110    2.171038    1.556848
      8          1           0       -2.809799    3.637288   -0.314165
      9          1           0       -1.337118    2.661366   -0.422266
     10          1           0       -1.658743    3.619961    1.032713
     11          6           0       -4.280012   -0.264165    0.388072
     12          6           0       -4.941857   -1.145507   -0.671731
     13          6           0       -5.686975   -2.336699   -0.068693
     14          1           0       -3.581910   -0.873929    0.978189
     15          1           0       -5.047117    0.096901    1.086732
     16          1           0       -4.173115   -1.504362   -1.368061
     17          1           0       -5.637476   -0.533954   -1.260570
     18          1           0       -6.474107   -1.994690    0.611053
     19          1           0       -5.001426   -2.970612    0.502952
     20          1           0       -6.152482   -2.953284   -0.843926
     21          6           0        3.014633    2.241896   -0.394669
     22          6           0        4.202293    1.600532   -0.027740
     23          6           0        4.234256    0.214559    0.152833
     24          6           0        3.054800   -0.502335   -0.042719
     25          6           0        1.855923    0.107760   -0.408458
     26          6           0        1.847297    1.494781   -0.583524
     27          1           0        2.998868    3.318961   -0.532803
     28          1           0        5.110378    2.178210    0.119610
     29          1           0        5.139952   -0.307475    0.436756
     30          1           0        0.966689   -0.494873   -0.548142
     31          1           0        0.923504    1.990200   -0.868501
     32          7           0        3.076286   -1.970156    0.145530
     33          8           0        2.023684   -2.579135   -0.032832
     34          8           0        4.145320   -2.483864    0.467878
 ---------------------------------------------------------------------

 SCF Done:  E(RHF) =  -669.535479738     A.U. after   15 cycles
 E2 =    -0.2090991843D+01 EUMP2 =    -0.67162647158057D+03

 The electronic state is 1-A.
 Alpha  occ. eigenvalues --  -20.60771 -20.60766 -15.85824 -11.31182 -11.27750
 Alpha  occ. eigenvalues --  -11.27747 -11.27482 -11.26763 -11.26735 -11.22195
 Alpha  occ. eigenvalues --  -11.21971 -11.21862 -11.21740 -11.21616 -11.21096
 Alpha  occ. eigenvalues --   -1.59846  -1.39400  -1.19352  -1.08817  -1.08746
 Alpha  occ. eigenvalues --   -1.04756  -1.03929  -0.96398  -0.95584  -0.87419
 Alpha  occ. eigenvalues --   -0.86152  -0.82419  -0.80005  -0.78585  -0.77469
 Alpha  occ. eigenvalues --   -0.72043  -0.71169  -0.70459  -0.65470  -0.65003
 Alpha  occ. eigenvalues --   -0.64769  -0.62154  -0.61291  -0.59782  -0.57982
 Alpha  occ. eigenvalues --   -0.55731  -0.55238  -0.53113  -0.53077  -0.52956
 Alpha  occ. eigenvalues --   -0.52698  -0.50328  -0.48801  -0.48798  -0.48310
 Alpha  occ. eigenvalues --   -0.47032  -0.46139  -0.46029  -0.44808  -0.44169
 Alpha  occ. eigenvalues --   -0.37330  -0.36356
 Alpha virt. eigenvalues --    0.05066   0.11285   0.16539   0.19414   0.22836
 Alpha virt. eigenvalues --    0.23842   0.25479   0.26435   0.27221   0.28525
 Alpha virt. eigenvalues --    0.28817   0.30043   0.31213   0.31719   0.32217

 Mulliken charges:
               1
     1  C   -0.297665
     2  C   -0.300926
     3  C   -0.478353
     4  H    0.144999
     5  H    0.150705
     6  H    0.154028
     7  H    0.155664
     8  H    0.159204
     9  H    0.144524
    10  H    0.162163
    11  C   -0.299345
    12  C   -0.300075
    13  C   -0.476333
    14  H    0.152739
    15  H    0.150505
    16  H    0.153190
    17  H    0.151340
    18  H    0.154835
    19  H    0.158100
    20  H    0.161329
    21  C   -0.172588
    22  C   -0.218484
    23  C   -0.171115
    24  C    0.158743
    25  C   -0.173604
    26  C   -0.223515
    27  H    0.226365
    28  H    0.223389
    29  H    0.275543
    30  H    0.274911
    31  H    0.232796
    32  N    0.488155
    33  O   -0.460810
    34  O   -0.460416
 Sum of Mulliken charges =  -0.00000

 Dipole moment (field-independent basis, Debye):
    X=             -0.2193    Y=              5.1542    Z=             -0.5964  Tot=              5.1932
 Quadrupole moment (field-independent basis, Debye-Ang):
   XX=            -89.4344   YY=           -100.9754   ZZ=            -95.3649
   XY=             15.3316   XZ=             -0.7924   YZ=              0.5381

 Normal termination of Gaussian 16 at Thu May  6 02:49:26 2021.
