 Gaussian 16, Revision A.03,
 Gaussian 16:  EM64L-G16RevA.03 25-Dec-2016

 -------------
 #p 6-31g* mp2
 -------------

 ------------------------------------------------------
 Input file generated by CHIRIPA (05-May-2021 14:51:11)
 ------------------------------------------------------
 Symbolic Z-matrix:
 Charge =  0 Multiplicity = 1

                         Standard orientation:
 ---------------------------------------------------------------------
 Center     Atomic      Atomic             Coordinates (Angstroms)
 Number     Number       Type             X           Y           Z
 ---------------------------------------------------------------------
      1          6           0        3.008000   -0.553905   -0.271601
      2          6           0        2.753404   -1.659852    0.753117
      3          6           0        2.328095   -2.978447    0.106422
      4          1           0        2.097059   -0.395862   -0.865027
      5          1           0        3.784892   -0.886235   -0.974019
      6          1           0        1.978206   -1.324990    1.454224
      7          1           0        3.664997   -1.815148    1.344301
      8          1           0        3.102156   -3.338722   -0.578876
      9          1           0        1.405782   -2.845778   -0.468328
     10          1           0        2.151329   -3.755091    0.857047
     11          6           0        3.433968    0.770438    0.359585
     12          6           0        3.688564    1.876386   -0.665132
     13          6           0        4.113873    3.194980   -0.018437
     14          1           0        2.657077    1.102768    1.062003
     15          1           0        4.344909    0.612395    0.953012
     16          1           0        2.776971    2.031681   -1.256316
     17          1           0        4.463762    1.541523   -1.366239
     18          1           0        5.036186    3.062312    0.556313
     19          1           0        3.339812    3.555255    0.666861
     20          1           0        4.290639    3.971624   -0.769062
     21          6           0       -3.233835   -0.865134   -0.146057
     22          6           0       -1.843741   -1.501949   -0.136630
     23          6           0       -1.885931   -3.016493   -0.341990
     24          1           0       -3.846781   -1.326301    0.640434
     25          1           0       -3.727428   -1.093004   -1.100959
     26          1           0       -1.352380   -1.271782    0.817416
     27          1           0       -1.233972   -1.039079   -0.923109
     28          1           0       -2.352343   -3.262309   -1.301486
     29          1           0       -2.471424   -3.496334    0.448929
     30          1           0       -0.881526   -3.451150   -0.331772
     31          6           0       -3.208133    0.648601    0.058073
     32          6           0       -4.598227    1.285416    0.048645
     33          6           0       -4.556037    2.799960    0.254005
     34          1           0       -2.714540    0.876471    1.012975
     35          1           0       -2.595187    1.109768   -0.728419
     36          1           0       -5.207996    0.822545    0.835125
     37          1           0       -5.089588    1.055249   -0.905401
     38          1           0       -3.970545    3.279801   -0.536913
     39          1           0       -4.089625    3.045776    1.213502
     40          1           0       -5.560442    3.234617    0.243788
 ---------------------------------------------------------------------

 SCF Done:  E(RHF) =  -470.733285835     A.U. after   11 cycles
 E2 =    -0.1582853573D+01 EUMP2 =    -0.47231613940799D+03

 The electronic state is 1-A.
 Alpha  occ. eigenvalues --  -11.21660 -11.21633 -11.21593 -11.21592 -11.21447
 Alpha  occ. eigenvalues --  -11.21391 -11.21388 -11.21331 -11.21099 -11.21062
 Alpha  occ. eigenvalues --  -11.21058 -11.21050  -1.08472  -1.08415  -1.03580
 Alpha  occ. eigenvalues --   -1.03504  -0.96040  -0.95941  -0.87063  -0.86951
 Alpha  occ. eigenvalues --   -0.79635  -0.79576  -0.78286  -0.78229  -0.65099
 Alpha  occ. eigenvalues --   -0.65052  -0.60976  -0.60957  -0.59374  -0.59338
 Alpha  occ. eigenvalues --   -0.57700  -0.57527  -0.55289  -0.55248  -0.52792
 Alpha  occ. eigenvalues --   -0.52625  -0.52497  -0.52286  -0.49945  -0.49885
 Alpha  occ. eigenvalues --   -0.47950  -0.47882  -0.46696  -0.46571  -0.45856
 Alpha  occ. eigenvalues --   -0.45777  -0.45743  -0.45654  -0.43829  -0.43749
 Alpha virt. eigenvalues --    0.20655   0.23150   0.23511   0.25197   0.25863
 Alpha virt. eigenvalues --    0.26291   0.26764   0.27598   0.28221   0.28986
 Alpha virt. eigenvalues --    0.30707   0.30852   0.31271   0.31785   0.32180

 Mulliken charges:
               1
     1  C   -0.299121
     2  C   -0.299333
     3  C   -0.481983
     4  H    0.150552
     5  H    0.149347
     6  H    0.152421
     7  H    0.151820
     8  H    0.155251
     9  H    0.161513
    10  H    0.160040
    11  C   -0.298311
    12  C   -0.299622
    13  C   -0.475716
    14  H    0.149729
    15  H    0.149546
    16  H    0.151894
    17  H    0.151838
    18  H    0.155134
    19  H    0.155276
    20  H    0.160193
    21  C   -0.298260
    22  C   -0.300691
    23  C   -0.481899
    24  H    0.150018
    25  H    0.149826
    26  H    0.152234
    27  H    0.151345
    28  H    0.155092
    29  H    0.155353
    30  H    0.166625
    31  C   -0.298287
    32  C   -0.299690
    33  C   -0.475740
    34  H    0.149325
    35  H    0.149402
    36  H    0.152073
    37  H    0.152063
    38  H    0.155170
    39  H    0.155159
    40  H    0.160415
 Sum of Mulliken charges =  -0.00000

 Dipole moment (field-independent basis, Debye):
    X=             -0.0093    Y=             -0.0065    Z=              0.0015  Tot=              0.0114
 Quadrupole moment (field-independent basis, Debye-Ang):
   XX=            -83.9339   YY=            -86.9238   ZZ=            -83.8701
   XY=             -0.4527   XZ=             -0.2285   YZ=             -0.5919

 Normal termination of Gaussian 16 at Wed May  5 21:27:41 2021.
