 Gaussian 16, Revision A.03,
 Gaussian 16:  EM64L-G16RevA.03 25-Dec-2016

 -------------
 #p 6-31g* mp2
 -------------

 ------------------------------------------------------
 Input file generated by CHIRIPA (05-May-2021 14:57:22)
 ------------------------------------------------------
 Symbolic Z-matrix:
 Charge =  0 Multiplicity = 1

                         Standard orientation:
 ---------------------------------------------------------------------
 Center     Atomic      Atomic             Coordinates (Angstroms)
 Number     Number       Type             X           Y           Z
 ---------------------------------------------------------------------
      1          6           0       -1.864305   -1.481591    0.283084
      2          6           0       -2.385179   -0.836223    1.409455
      3          6           0       -3.535823   -0.048671    1.307828
      4          6           0       -4.142814    0.072228    0.058734
      5          6           0       -3.648017   -0.558232   -1.081874
      6          6           0       -2.496272   -1.340784   -0.956800
      7          1           0       -0.970029   -2.091438    0.371137
      8          1           0       -1.896480   -0.943783    2.373638
      9          1           0       -3.960387    0.462013    2.163611
     10          1           0       -4.157255   -0.432114   -2.029603
     11          1           0       -2.093989   -1.840825   -1.833254
     12          7           0       -5.361532    0.903327   -0.061265
     13          8           0       -5.877652    0.993885   -1.173046
     14          8           0       -5.777567    1.448448    0.958733
     15          6           0        6.061705    1.418382    0.122118
     16          6           0        4.856824    2.048957   -0.205233
     17          6           0        3.676190    1.308898   -0.319089
     18          6           0        3.737025   -0.066117   -0.097907
     19          6           0        4.921972   -0.723294    0.229669
     20          6           0        6.090384    0.036704    0.338143
     21          1           0        6.974103    2.001023    0.208473
     22          1           0        4.831569    3.121840   -0.373551
     23          1           0        2.729731    1.771552   -0.571251
     24          1           0        4.915708   -1.794339    0.391658
     25          1           0        7.024676   -0.455683    0.592499
     26          7           0        2.493610   -0.860139   -0.215593
     27          8           0        2.573750   -2.070226   -0.015835
     28          8           0        1.462427   -0.257371   -0.505366
 ---------------------------------------------------------------------

 SCF Done:  E(RHF) =  -868.340573580     A.U. after   15 cycles
 E2 =    -0.2598483154D+01 EUMP2 =    -0.87093905673468D+03

 The electronic state is 1-A.
 Alpha  occ. eigenvalues --  -20.61848 -20.61834 -20.59886 -20.59879 -15.86837
 Alpha  occ. eigenvalues --  -15.84933 -11.31895 -11.29994 -11.28431 -11.28410
 Alpha  occ. eigenvalues --  -11.28106 -11.27369 -11.27350 -11.26607 -11.26569
 Alpha  occ. eigenvalues --  -11.26025 -11.25450 -11.25380  -1.60908  -1.58970
 Alpha  occ. eigenvalues --   -1.40461  -1.38532  -1.20039  -1.18138  -1.09495
 Alpha  occ. eigenvalues --   -1.07528  -1.05390  -1.03523  -0.96380  -0.94420
 Alpha  occ. eigenvalues --   -0.86802  -0.84904  -0.83216  -0.81293  -0.78301
 Alpha  occ. eigenvalues --   -0.76427  -0.73068  -0.72201  -0.71158  -0.71137
 Alpha  occ. eigenvalues --   -0.70294  -0.69113  -0.65690  -0.65387  -0.63770
 Alpha  occ. eigenvalues --   -0.63511  -0.62737  -0.60904  -0.55906  -0.53853
 Alpha  occ. eigenvalues --   -0.53735  -0.53473  -0.51845  -0.51606  -0.49847
 Alpha  occ. eigenvalues --   -0.49799  -0.47929  -0.47883  -0.45928  -0.44009
 Alpha  occ. eigenvalues --   -0.38001  -0.36979  -0.35964  -0.35155
 Alpha virt. eigenvalues --    0.04199   0.06145   0.10681   0.12535   0.15763
 Alpha virt. eigenvalues --    0.17751   0.20872   0.22808   0.26803   0.27746
 Alpha virt. eigenvalues --    0.28488   0.29811   0.30495   0.31949   0.32504

 Mulliken charges:
               1
     1  C   -0.158594
     2  C   -0.222217
     3  C   -0.172517
     4  C    0.155866
     5  C   -0.172835
     6  C   -0.219150
     7  H    0.241835
     8  H    0.219379
     9  H    0.270531
    10  H    0.271172
    11  H    0.223721
    12  N    0.488394
    13  O   -0.463996
    14  O   -0.464622
    15  C   -0.169636
    16  C   -0.218645
    17  C   -0.170703
    18  C    0.157449
    19  C   -0.170677
    20  C   -0.218641
    21  H    0.228170
    22  H    0.226253
    23  H    0.277352
    24  H    0.275583
    25  H    0.225371
    26  N    0.488411
    27  O   -0.464970
    28  O   -0.462284
 Sum of Mulliken charges =  -0.00000

 Dipole moment (field-independent basis, Debye):
    X=              9.3360    Y=             -0.1840    Z=              0.7876  Tot=              9.3710
 Quadrupole moment (field-independent basis, Debye-Ang):
   XX=           -108.4436   YY=           -102.6191   ZZ=           -100.9490
   XY=             21.1865   XZ=              0.7339   YZ=             -0.3831

 Normal termination of Gaussian 16 at Fri May  7 03:19:17 2021.
