 Gaussian 16, Revision A.03,
 Gaussian 16:  EM64L-G16RevA.03 25-Dec-2016

 -------------
 #p 6-31g* mp2
 -------------

 ------------------------------------------------------
 Input file generated by CHIRIPA (05-May-2021 14:51:14)
 ------------------------------------------------------
 Symbolic Z-matrix:
 Charge =  0 Multiplicity = 1

                         Standard orientation:
 ---------------------------------------------------------------------
 Center     Atomic      Atomic             Coordinates (Angstroms)
 Number     Number       Type             X           Y           Z
 ---------------------------------------------------------------------
      1          6           0       -2.759421   -1.142328   -0.094837
      2          6           0       -1.542626   -1.798597    0.558389
      3          6           0       -1.458739   -3.299337    0.278144
      4          1           0       -3.672170   -1.635781    0.266186
      5          1           0       -2.720567   -1.312067   -1.179768
      6          1           0       -1.583040   -1.626485    1.641606
      7          1           0       -0.632678   -1.303397    0.195915
      8          1           0       -1.393685   -3.487142   -0.798470
      9          1           0       -2.349447   -3.812066    0.655436
     10          1           0       -0.581557   -3.748271    0.754453
     11          6           0       -2.857081    0.357908    0.176240
     12          6           0       -4.073876    1.014178   -0.476986
     13          6           0       -4.157763    2.514917   -0.196742
     14          1           0       -2.895935    0.527648    1.261171
     15          1           0       -1.944332    0.851362   -0.184783
     16          1           0       -4.983824    0.518978   -0.114512
     17          1           0       -4.033462    0.842065   -1.560204
     18          1           0       -3.267055    3.027646   -0.574034
     19          1           0       -4.222817    2.702723    0.879873
     20          1           0       -5.034945    2.963852   -0.673050
     21          6           0        2.526432   -0.302817    0.104030
     22          6           0        3.340253   -1.431268   -0.530225
     23          6           0        2.763956   -2.815671   -0.231718
     24          1           0        2.482888   -0.456868    1.190913
     25          1           0        1.491422   -0.356655   -0.261008
     26          1           0        4.373753   -1.374478   -0.165166
     27          1           0        3.382026   -1.274410   -1.615705
     28          1           0        1.740236   -2.896814   -0.611211
     29          1           0        2.737599   -2.997451    0.847569
     30          1           0        3.361136   -3.607471   -0.694633
     31          6           0        3.090071    1.087237   -0.185432
     32          6           0        2.276248    2.215688    0.448822
     33          6           0        2.852545    3.600090    0.150316
     34          1           0        4.125080    1.141074    0.179605
     35          1           0        3.133614    1.241287   -1.272317
     36          1           0        2.234476    2.058829    1.534301
     37          1           0        1.242749    2.158897    0.083762
     38          1           0        2.878904    3.781870   -0.928972
     39          1           0        3.876265    3.681233    0.529809
     40          1           0        2.255366    4.391891    0.613229
 ---------------------------------------------------------------------

 SCF Done:  E(RHF) =  -470.733109761     A.U. after   11 cycles
 E2 =    -0.1583761335D+01 EUMP2 =    -0.47231687109536D+03

 The electronic state is 1-A.
 Alpha  occ. eigenvalues --  -11.21621 -11.21617 -11.21608 -11.21539 -11.21423
 Alpha  occ. eigenvalues --  -11.21405 -11.21363 -11.21343 -11.21084 -11.21076
 Alpha  occ. eigenvalues --  -11.21061 -11.21029  -1.08465  -1.08412  -1.03564
 Alpha  occ. eigenvalues --   -1.03497  -0.96009  -0.95953  -0.87046  -0.86948
 Alpha  occ. eigenvalues --   -0.79631  -0.79564  -0.78368  -0.78137  -0.65204
 Alpha  occ. eigenvalues --   -0.64954  -0.61066  -0.60811  -0.59427  -0.59268
 Alpha  occ. eigenvalues --   -0.57664  -0.57517  -0.55336  -0.55214  -0.52707
 Alpha  occ. eigenvalues --   -0.52675  -0.52499  -0.52281  -0.50038  -0.49814
 Alpha  occ. eigenvalues --   -0.47969  -0.47865  -0.46798  -0.46560  -0.46135
 Alpha  occ. eigenvalues --   -0.45772  -0.45731  -0.45192  -0.43801  -0.43766
 Alpha virt. eigenvalues --    0.20540   0.22663   0.23449   0.24600   0.25174
 Alpha virt. eigenvalues --    0.26791   0.26891   0.27187   0.28920   0.29745
 Alpha virt. eigenvalues --    0.30451   0.31151   0.31607   0.31819   0.32170

 Mulliken charges:
               1
     1  C   -0.297628
     2  C   -0.309152
     3  C   -0.477029
     4  H    0.149733
     5  H    0.148839
     6  H    0.152003
     7  H    0.160666
     8  H    0.153954
     9  H    0.155004
    10  H    0.163067
    11  C   -0.298694
    12  C   -0.299656
    13  C   -0.475652
    14  H    0.149945
    15  H    0.149011
    16  H    0.152127
    17  H    0.151775
    18  H    0.155015
    19  H    0.155304
    20  H    0.160267
    21  C   -0.304813
    22  C   -0.299465
    23  C   -0.480030
    24  H    0.150073
    25  H    0.155378
    26  H    0.152055
    27  H    0.151531
    28  H    0.160618
    29  H    0.154890
    30  H    0.160257
    31  C   -0.297621
    32  C   -0.300065
    33  C   -0.475768
    34  H    0.149759
    35  H    0.149323
    36  H    0.152390
    37  H    0.151750
    38  H    0.155046
    39  H    0.155303
    40  H    0.160493
 Sum of Mulliken charges =  -0.00000

 Dipole moment (field-independent basis, Debye):
    X=              0.0191    Y=             -0.0042    Z=              0.0178  Tot=              0.0264
 Quadrupole moment (field-independent basis, Debye-Ang):
   XX=            -84.3091   YY=            -87.0852   ZZ=            -83.3636
   XY=             -0.0469   XZ=              0.0722   YZ=             -0.1983

 Normal termination of Gaussian 16 at Thu May  6 05:35:53 2021.
