 Gaussian 16, Revision A.03,
 Gaussian 16:  EM64L-G16RevA.03 25-Dec-2016

 -------------
 #p 6-31g* mp2
 -------------

 ------------------------------------------------------
 Input file generated by CHIRIPA (05-May-2021 14:53:12)
 ------------------------------------------------------
 Symbolic Z-matrix:
 Charge =  0 Multiplicity = 1

                         Standard orientation:
 ---------------------------------------------------------------------
 Center     Atomic      Atomic             Coordinates (Angstroms)
 Number     Number       Type             X           Y           Z
 ---------------------------------------------------------------------
      1          6           0        3.571557    0.887628   -0.171989
      2          6           0        2.226440    1.377067   -0.709664
      3          6           0        2.013681    2.875777   -0.494268
      4          1           0        3.636517    1.118283    0.900170
      5          1           0        4.380076    1.447814   -0.661768
      6          1           0        1.420753    0.815160   -0.220027
      7          1           0        2.164597    1.145048   -1.780626
      8          1           0        2.796833    3.452255   -0.997206
      9          1           0        2.048764    3.120492    0.572261
     10          1           0        1.045985    3.204286   -0.886068
     11          6           0        3.798889   -0.608638   -0.379923
     12          6           0        5.144006   -1.098076    0.157753
     13          6           0        5.356765   -2.596786   -0.057643
     14          1           0        2.990370   -1.168824    0.109857
     15          1           0        3.733930   -0.839293   -1.452081
     16          1           0        5.205849   -0.866057    1.228715
     17          1           0        5.949693   -0.536169   -0.331885
     18          1           0        5.321683   -2.841502   -1.124172
     19          1           0        4.573613   -3.173264    0.445295
     20          1           0        6.324461   -2.925295    0.334157
     21          6           0       -4.504265   -1.118414   -1.429323
     22          6           0       -3.702474   -0.037686   -1.811001
     23          6           0       -2.798506    0.529560   -0.907884
     24          6           0       -2.721964   -0.011392    0.374614
     25          6           0       -3.507265   -1.087652    0.784808
     26          6           0       -4.404278   -1.639029   -0.134919
     27          1           0       -5.203789   -1.552900   -2.137338
     28          1           0       -3.777991    0.368689   -2.815592
     29          1           0       -2.165835    1.366661   -1.176968
     30          1           0       -3.409495   -1.471062    1.793200
     31          1           0       -5.025708   -2.478291    0.164264
     32          7           0       -1.768654    0.580725    1.339497
     33          8           0       -1.720208    0.085839    2.463497
     34          8           0       -1.087947    1.528503    0.953500
 ---------------------------------------------------------------------

 SCF Done:  E(RHF) =  -669.536145695     A.U. after   15 cycles
 E2 =    -0.2091421833D+01 EUMP2 =    -0.67162756752839D+03

 The electronic state is 1-A.
 Alpha  occ. eigenvalues --  -20.60981 -20.60966 -15.85992 -11.31295 -11.27858
 Alpha  occ. eigenvalues --  -11.27853 -11.27592 -11.26861 -11.26851 -11.21070
 Alpha  occ. eigenvalues --  -11.20745 -11.20658 -11.20555 -11.20495 -11.19922
 Alpha  occ. eigenvalues --   -1.60032  -1.39588  -1.19463  -1.08872  -1.07670
 Alpha  occ. eigenvalues --   -1.04856  -1.02730  -0.95720  -0.95192  -0.86258
 Alpha  occ. eigenvalues --   -0.86218  -0.82550  -0.78833  -0.77620  -0.77459
 Alpha  occ. eigenvalues --   -0.72221  -0.71345  -0.70573  -0.65122  -0.64860
 Alpha  occ. eigenvalues --   -0.64288  -0.62204  -0.60104  -0.58597  -0.56801
 Alpha  occ. eigenvalues --   -0.55363  -0.54474  -0.53188  -0.52948  -0.51895
 Alpha  occ. eigenvalues --   -0.51632  -0.49148  -0.48981  -0.48964  -0.47158
 Alpha  occ. eigenvalues --   -0.45915  -0.45241  -0.45005  -0.44582  -0.43002
 Alpha  occ. eigenvalues --   -0.37441  -0.36456
 Alpha virt. eigenvalues --    0.04892   0.11195   0.16364   0.21177   0.23590
 Alpha virt. eigenvalues --    0.24762   0.26999   0.27381   0.27729   0.28326
 Alpha virt. eigenvalues --    0.29031   0.30715   0.31758   0.32197   0.32505

 Mulliken charges:
               1
     1  C   -0.298179
     2  C   -0.303253
     3  C   -0.469134
     4  H    0.153029
     5  H    0.145624
     6  H    0.164191
     7  H    0.141433
     8  H    0.145984
     9  H    0.162724
    10  H    0.158281
    11  C   -0.297752
    12  C   -0.299177
    13  C   -0.475308
    14  H    0.150052
    15  H    0.145894
    16  H    0.153181
    17  H    0.150524
    18  H    0.153184
    19  H    0.154863
    20  H    0.158829
    21  C   -0.170497
    22  C   -0.218560
    23  C   -0.170532
    24  C    0.158032
    25  C   -0.170818
    26  C   -0.218580
    27  H    0.226040
    28  H    0.223970
    29  H    0.276175
    30  H    0.275729
    31  H    0.223815
    32  N    0.488831
    33  O   -0.459097
    34  O   -0.459499
 Sum of Mulliken charges =  -0.00000

 Dipole moment (field-independent basis, Debye):
    X=             -3.6205    Y=             -2.0660    Z=             -3.2416  Tot=              5.2806
 Quadrupole moment (field-independent basis, Debye-Ang):
   XX=            -77.3255   YY=            -94.3044   ZZ=            -94.5667
   XY=              7.4737   XZ=              7.1624   YZ=             -3.3931

 Normal termination of Gaussian 16 at Thu May  6 13:38:25 2021.
