 Gaussian 16, Revision A.03,
 Gaussian 16:  EM64L-G16RevA.03 25-Dec-2016

 -------------
 #p 6-31g* mp2
 -------------

 ------------------------------------------------------
 Input file generated by CHIRIPA (05-May-2021 14:53:14)
 ------------------------------------------------------
 Symbolic Z-matrix:
 Charge =  0 Multiplicity = 1

                         Standard orientation:
 ---------------------------------------------------------------------
 Center     Atomic      Atomic             Coordinates (Angstroms)
 Number     Number       Type             X           Y           Z
 ---------------------------------------------------------------------
      1          6           0       -4.912197    0.472960   -0.417807
      2          6           0       -6.237792    0.461045    0.344192
      3          6           0       -7.258214    1.444696   -0.229361
      4          1           0       -4.494863    1.489042   -0.398959
      5          1           0       -5.101715    0.232421   -1.473089
      6          1           0       -6.045656    0.700177    1.398002
      7          1           0       -6.651924   -0.555169    0.323690
      8          1           0       -7.479024    1.205014   -1.274538
      9          1           0       -6.869311    2.467493   -0.194123
     10          1           0       -8.198403    1.419760    0.330356
     11          6           0       -3.881833   -0.505191    0.143707
     12          6           0       -2.556239   -0.493275   -0.618292
     13          6           0       -1.535817   -1.476927   -0.044739
     14          1           0       -3.692315   -0.264651    1.198988
     15          1           0       -4.299167   -1.521273    0.124858
     16          1           0       -2.142107    0.522939   -0.597790
     17          1           0       -2.748375   -0.732408   -1.672102
     18          1           0       -1.924720   -2.499724   -0.079977
     19          1           0       -1.315007   -1.237245    1.000438
     20          1           0       -0.595628   -1.451990   -0.604456
     21          6           0        5.179982    1.765025   -0.393450
     22          6           0        5.068244    0.635124   -1.210371
     23          6           0        4.105158   -0.342253   -0.942510
     24          6           0        3.266486   -0.156829    0.155459
     25          6           0        3.353096    0.957920    0.988000
     26          6           0        4.323562    1.922539    0.701198
     27          1           0        5.930996    2.519319   -0.608888
     28          1           0        5.732001    0.510161   -2.061168
     29          1           0        3.996845   -1.226691   -1.558510
     30          1           0        2.677202    1.054723    1.828959
     31          1           0        4.408053    2.799018    1.337352
     32          7           0        2.243004   -1.184781    0.449057
     33          8           0        1.516146   -0.997982    1.422412
     34          8           0        2.187037   -2.157825   -0.299735
 ---------------------------------------------------------------------

 SCF Done:  E(RHF) =  -669.535503957     A.U. after   15 cycles
 E2 =    -0.2091999709D+01 EUMP2 =    -0.67162750366627D+03

 The electronic state is 1-A.
 Alpha  occ. eigenvalues --  -20.60950 -20.60942 -15.85949 -11.31298 -11.27859
 Alpha  occ. eigenvalues --  -11.27856 -11.27597 -11.26867 -11.26857 -11.21068
 Alpha  occ. eigenvalues --  -11.20721 -11.20655 -11.20495 -11.20421 -11.19218
 Alpha  occ. eigenvalues --   -1.59995  -1.39552  -1.19464  -1.08866  -1.07617
 Alpha  occ. eigenvalues --   -1.04861  -1.02602  -0.95713  -0.94999  -0.86262
 Alpha  occ. eigenvalues --   -0.86007  -0.82543  -0.78702  -0.77596  -0.77394
 Alpha  occ. eigenvalues --   -0.72185  -0.71327  -0.70573  -0.65120  -0.64864
 Alpha  occ. eigenvalues --   -0.64262  -0.62208  -0.60008  -0.58464  -0.56622
 Alpha  occ. eigenvalues --   -0.55367  -0.54304  -0.53198  -0.52953  -0.51683
 Alpha  occ. eigenvalues --   -0.51434  -0.49173  -0.48932  -0.48681  -0.46994
 Alpha  occ. eigenvalues --   -0.45791  -0.45037  -0.44918  -0.44684  -0.42815
 Alpha  occ. eigenvalues --   -0.37438  -0.36462
 Alpha virt. eigenvalues --    0.04902   0.11193   0.16389   0.21326   0.23604
 Alpha virt. eigenvalues --    0.25316   0.27246   0.27406   0.28178   0.28236
 Alpha virt. eigenvalues --    0.29171   0.30895   0.32266   0.32432   0.32545

 Mulliken charges:
               1
     1  C   -0.297085
     2  C   -0.298981
     3  C   -0.475147
     4  H    0.147044
     5  H    0.147911
     6  H    0.151205
     7  H    0.151654
     8  H    0.154360
     9  H    0.153744
    10  H    0.158688
    11  C   -0.297259
    12  C   -0.301086
    13  C   -0.474321
    14  H    0.148968
    15  H    0.148840
    16  H    0.145133
    17  H    0.146558
    18  H    0.149908
    19  H    0.167888
    20  H    0.165687
    21  C   -0.170578
    22  C   -0.218553
    23  C   -0.170853
    24  C    0.159620
    25  C   -0.170868
    26  C   -0.218560
    27  H    0.226013
    28  H    0.223865
    29  H    0.275895
    30  H    0.275600
    31  H    0.223802
    32  N    0.486715
    33  O   -0.456624
    34  O   -0.459181
 Sum of Mulliken charges =  -0.00000

 Dipole moment (field-independent basis, Debye):
    X=              3.9597    Y=              3.5433    Z=             -0.9252  Tot=              5.3935
 Quadrupole moment (field-independent basis, Debye-Ang):
   XX=            -73.0233   YY=            -94.8769   ZZ=            -92.0220
   XY=             11.6164   XZ=             -4.5925   YZ=              3.7783

 Normal termination of Gaussian 16 at Wed May  5 20:12:31 2021.
