 Gaussian 16, Revision A.03,
 Gaussian 16:  EM64L-G16RevA.03 25-Dec-2016

 -------------
 #p 6-31g* mp2
 -------------

 ------------------------------------------------------
 Input file generated by CHIRIPA (05-May-2021 14:53:17)
 ------------------------------------------------------
 Symbolic Z-matrix:
 Charge =  0 Multiplicity = 1

                         Standard orientation:
 ---------------------------------------------------------------------
 Center     Atomic      Atomic             Coordinates (Angstroms)
 Number     Number       Type             X           Y           Z
 ---------------------------------------------------------------------
      1          6           0        2.624270   -0.527412   -0.049364
      2          6           0        3.863239   -1.422831   -0.015231
      3          6           0        3.569655   -2.817412    0.538615
      4          1           0        2.213832   -0.441307    0.966053
      5          1           0        1.848587   -1.009714   -0.660179
      6          1           0        4.636850   -0.938338    0.594202
      7          1           0        4.270886   -1.506658   -1.030816
      8          1           0        2.816100   -3.324040   -0.073009
      9          1           0        3.184143   -2.752491    1.561242
     10          1           0        4.469115   -3.440785    0.554064
     11          6           0        2.901763    0.870041   -0.600590
     12          6           0        1.662794    1.765461   -0.634723
     13          6           0        1.956377    3.160042   -1.188569
     14          1           0        3.677446    1.352344    0.010225
     15          1           0        3.312201    0.783937   -1.616007
     16          1           0        1.255147    1.849288    0.380862
     17          1           0        0.889183    1.280968   -1.244156
     18          1           0        2.341889    3.095121   -2.211196
     19          1           0        2.709933    3.666670   -0.576946
     20          1           0        1.056917    3.783415   -1.204018
     21          6           0       -3.040874   -1.987491   -1.212912
     22          6           0       -3.432474   -0.664837   -1.444769
     23          6           0       -2.949928    0.370253   -0.638367
     24          6           0       -2.073312    0.045365    0.395693
     25          6           0       -1.664566   -1.262524    0.651903
     26          6           0       -2.159723   -2.281595   -0.167159
     27          1           0       -3.420625   -2.785352   -1.844261
     28          1           0       -4.116667   -0.433486   -2.256189
     29          1           0       -3.236693    1.402947   -0.795624
     30          1           0       -0.981266   -1.462092    1.468415
     31          1           0       -1.853884   -3.307869    0.015235
     32          7           0       -1.555787    1.132689    1.256096
     33          8           0       -0.784553    0.820242    2.160647
     34          8           0       -1.931185    2.276791    1.009637
 ---------------------------------------------------------------------

 SCF Done:  E(RHF) =  -669.536667561     A.U. after   15 cycles
 E2 =    -0.2092900305D+01 EUMP2 =    -0.67162956786617D+03

 The electronic state is 1-A.
 Alpha  occ. eigenvalues --  -20.60913 -20.60898 -15.85917 -11.31240 -11.27807
 Alpha  occ. eigenvalues --  -11.27796 -11.27545 -11.26812 -11.26801 -11.21416
 Alpha  occ. eigenvalues --  -11.21077 -11.21033 -11.20917 -11.20857 -11.20379
 Alpha  occ. eigenvalues --   -1.59955  -1.39513  -1.19408  -1.08813  -1.08024
 Alpha  occ. eigenvalues --   -1.04803  -1.03128  -0.95657  -0.95594  -0.86621
 Alpha  occ. eigenvalues --   -0.86203  -0.82495  -0.79224  -0.77855  -0.77536
 Alpha  occ. eigenvalues --   -0.72151  -0.71252  -0.70517  -0.65066  -0.64807
 Alpha  occ. eigenvalues --   -0.64644  -0.62150  -0.60521  -0.58979  -0.57188
 Alpha  occ. eigenvalues --   -0.55313  -0.54893  -0.53136  -0.52896  -0.52285
 Alpha  occ. eigenvalues --   -0.52030  -0.49561  -0.48921  -0.48914  -0.47524
 Alpha  occ. eigenvalues --   -0.46240  -0.45474  -0.45348  -0.44690  -0.43370
 Alpha  occ. eigenvalues --   -0.37374  -0.36397
 Alpha virt. eigenvalues --    0.04933   0.11227   0.16409   0.21246   0.23232
 Alpha virt. eigenvalues --    0.24646   0.26651   0.27029   0.27604   0.28305
 Alpha virt. eigenvalues --    0.28766   0.30991   0.31732   0.31968   0.32174

 Mulliken charges:
               1
     1  C   -0.303488
     2  C   -0.298772
     3  C   -0.475577
     4  H    0.158816
     5  H    0.143802
     6  H    0.153713
     7  H    0.150609
     8  H    0.149725
     9  H    0.155195
    10  H    0.160215
    11  C   -0.296444
    12  C   -0.312197
    13  C   -0.475293
    14  H    0.150823
    15  H    0.146089
    16  H    0.173445
    17  H    0.143452
    18  H    0.149682
    19  H    0.155671
    20  H    0.165187
    21  C   -0.170610
    22  C   -0.218751
    23  C   -0.171399
    24  C    0.159781
    25  C   -0.169423
    26  C   -0.219458
    27  H    0.225802
    28  H    0.223603
    29  H    0.275708
    30  H    0.276509
    31  H    0.224015
    32  N    0.489612
    33  O   -0.460866
    34  O   -0.459176
 Sum of Mulliken charges =  -0.00000

 Dipole moment (field-independent basis, Debye):
    X=             -1.9379    Y=             -3.7233    Z=             -2.8825  Tot=              5.0919
 Quadrupole moment (field-independent basis, Debye-Ang):
   XX=            -86.4396   YY=            -94.2178   ZZ=            -95.7452
   XY=              6.1585   XZ=              7.8953   YZ=             -2.7417

 Normal termination of Gaussian 16 at Thu May  6 17:16:46 2021.
