 Gaussian 16, Revision A.03,
 Gaussian 16:  EM64L-G16RevA.03 25-Dec-2016

 -------------
 #p 6-31g* mp2
 -------------

 ------------------------------------------------------
 Input file generated by CHIRIPA (05-May-2021 14:55:19)
 ------------------------------------------------------
 Symbolic Z-matrix:
 Charge =  0 Multiplicity = 1

                         Standard orientation:
 ---------------------------------------------------------------------
 Center     Atomic      Atomic             Coordinates (Angstroms)
 Number     Number       Type             X           Y           Z
 ---------------------------------------------------------------------
      1          6           0       -4.009892    2.264145    0.654807
      2          6           0       -4.772716    1.111652    0.439444
      3          6           0       -4.170943   -0.061510   -0.025431
      4          6           0       -2.797856   -0.046705   -0.265642
      5          6           0       -2.010856    1.085525   -0.060764
      6          6           0       -2.633823    2.247433    0.404457
      7          1           0       -4.485596    3.171114    1.016068
      8          1           0       -5.841581    1.121721    0.633016
      9          1           0       -4.737689   -0.967873   -0.200712
     10          1           0       -0.947381    1.044832   -0.262712
     11          1           0       -2.038909    3.140992    0.570815
     12          7           0       -2.149567   -1.282722   -0.757968
     13          8           0       -0.938168   -1.243798   -0.962010
     14          8           0       -2.865114   -2.267032   -0.930490
     15          6           0        3.324310   -0.553325    0.787768
     16          6           0        2.561663   -1.784287    0.296760
     17          6           0        1.778900   -2.478392    1.411792
     18          1           0        4.012966   -0.852325    1.589825
     19          1           0        2.613528    0.155776    1.234263
     20          1           0        3.273497   -2.490249   -0.149922
     21          1           0        1.874881   -1.482355   -0.504354
     22          1           0        1.046944   -1.793762    1.852386
     23          1           0        2.453508   -2.807383    2.208830
     24          1           0        1.241236   -3.355670    1.038750
     25          6           0        4.111726    0.151392   -0.315445
     26          6           0        4.874373    1.382354    0.175563
     27          6           0        5.657136    2.076459   -0.939469
     28          1           0        4.822508   -0.557709   -0.761940
     29          1           0        3.423071    0.450392   -1.117502
     30          1           0        5.561155    1.080422    0.976677
     31          1           0        4.162538    2.088316    0.622246
     32          1           0        4.982528    2.405450   -1.736507
     33          1           0        6.389091    1.391829   -1.380062
     34          1           0        6.194800    2.953737   -0.566427
 ---------------------------------------------------------------------

 SCF Done:  E(RHF) =  -669.536065664     A.U. after   15 cycles
 E2 =    -0.2091294570D+01 EUMP2 =    -0.67162736023394D+03

 The electronic state is 1-A.
 Alpha  occ. eigenvalues --  -20.60942 -20.60937 -15.85981 -11.31303 -11.27872
 Alpha  occ. eigenvalues --  -11.27861 -11.27602 -11.26875 -11.26865 -11.21334
 Alpha  occ. eigenvalues --  -11.20918 -11.20870 -11.20747 -11.20445 -11.20013
 Alpha  occ. eigenvalues --   -1.60002  -1.39559  -1.19471  -1.08874  -1.07841
 Alpha  occ. eigenvalues --   -1.04869  -1.02864  -0.95719  -0.95348  -0.86378
 Alpha  occ. eigenvalues --   -0.86269  -0.82555  -0.78975  -0.77654  -0.77550
 Alpha  occ. eigenvalues --   -0.72213  -0.71315  -0.70581  -0.65134  -0.64872
 Alpha  occ. eigenvalues --   -0.64474  -0.62218  -0.60248  -0.58753  -0.56923
 Alpha  occ. eigenvalues --   -0.55371  -0.54656  -0.53198  -0.52961  -0.52031
 Alpha  occ. eigenvalues --   -0.51778  -0.49334  -0.48964  -0.48954  -0.47278
 Alpha  occ. eigenvalues --   -0.46019  -0.45171  -0.45050  -0.44903  -0.43141
 Alpha  occ. eigenvalues --   -0.37448  -0.36470
 Alpha virt. eigenvalues --    0.04918   0.11181   0.16404   0.21040   0.23153
 Alpha virt. eigenvalues --    0.24723   0.26679   0.27434   0.28027   0.28528
 Alpha virt. eigenvalues --    0.28732   0.30872   0.31760   0.32260   0.32703

 Mulliken charges:
               1
     1  C   -0.170621
     2  C   -0.218504
     3  C   -0.170702
     4  C    0.157939
     5  C   -0.170801
     6  C   -0.218440
     7  H    0.226074
     8  H    0.223894
     9  H    0.275936
    10  H    0.275019
    11  H    0.223878
    12  N    0.494610
    13  O   -0.466366
    14  O   -0.458885
    15  C   -0.296695
    16  C   -0.307457
    17  C   -0.470688
    18  H    0.146749
    19  H    0.142003
    20  H    0.147947
    21  H    0.175550
    22  H    0.149498
    23  H    0.147140
    24  H    0.167557
    25  C   -0.297930
    26  C   -0.298427
    27  C   -0.475198
    28  H    0.150164
    29  H    0.149449
    30  H    0.151658
    31  H    0.147378
    32  H    0.154013
    33  H    0.155969
    34  H    0.158287
 Sum of Mulliken charges =  -0.00000

 Dipole moment (field-independent basis, Debye):
    X=             -2.5299    Y=              4.2612    Z=              1.6034  Tot=              5.2086
 Quadrupole moment (field-independent basis, Debye-Ang):
   XX=            -78.4398   YY=            -94.5609   ZZ=            -97.2925
   XY=            -10.9311   XZ=             -4.1873   YZ=             -0.6711

 Normal termination of Gaussian 16 at Wed May  5 15:50:26 2021.
