 Gaussian 16, Revision A.03,
 Gaussian 16:  EM64L-G16RevA.03 25-Dec-2016

 -------------
 #p 6-31g* mp2
 -------------

 ------------------------------------------------------
 Input file generated by CHIRIPA (05-May-2021 14:55:19)
 ------------------------------------------------------
 Symbolic Z-matrix:
 Charge =  0 Multiplicity = 1

                         Standard orientation:
 ---------------------------------------------------------------------
 Center     Atomic      Atomic             Coordinates (Angstroms)
 Number     Number       Type             X           Y           Z
 ---------------------------------------------------------------------
      1          6           0       -1.172562   -1.010278    1.723761
      2          6           0       -2.356240   -1.730580    1.532468
      3          6           0       -3.345259   -1.254182    0.666769
      4          6           0       -3.116514   -0.048466    0.005548
      5          6           0       -1.947759    0.692160    0.175178
      6          6           0       -0.972452    0.196665    1.045701
      7          1           0       -0.409594   -1.387773    2.398130
      8          1           0       -2.514364   -2.668205    2.057731
      9          1           0       -4.270952   -1.791546    0.500183
     10          1           0       -1.818756    1.623703   -0.362411
     11          1           0       -0.054170    0.758185    1.192323
     12          7           0       -4.156286    0.465984   -0.913482
     13          8           0       -3.930595    1.530861   -1.484215
     14          8           0       -5.177261   -0.205410   -1.045683
     15          6           0        3.600396   -0.572774   -0.154221
     16          6           0        4.513986   -1.457442   -1.003162
     17          6           0        4.162602   -2.941862   -0.899151
     18          1           0        3.662080   -0.893008    0.894869
     19          1           0        2.558419   -0.726682   -0.467258
     20          1           0        5.554060   -1.300879   -0.689550
     21          1           0        4.450266   -1.134941   -2.050324
     22          1           0        3.134505   -3.118578   -1.231402
     23          1           0        4.244570   -3.285459    0.137104
     24          1           0        4.828085   -3.555980   -1.513847
     25          6           0        3.939180    0.913904   -0.247736
     26          6           0        3.025590    1.798571    0.601204
     27          6           0        3.376974    3.282992    0.497193
     28          1           0        4.981157    1.067812    0.065301
     29          1           0        3.877496    1.234137   -1.296826
     30          1           0        3.089310    1.476070    1.648366
     31          1           0        1.985516    1.642008    0.287593
     32          1           0        3.295006    3.626588   -0.539061
     33          1           0        4.405071    3.459707    0.829444
     34          1           0        2.711491    3.897109    1.111889
 ---------------------------------------------------------------------

 SCF Done:  E(RHF) =  -669.535709929     A.U. after   15 cycles
 E2 =    -0.2091230719D+01 EUMP2 =    -0.67162694064789D+03

 The electronic state is 1-A.
 Alpha  occ. eigenvalues --  -20.60739 -20.60734 -15.85792 -11.31149 -11.27720
 Alpha  occ. eigenvalues --  -11.27710 -11.27447 -11.26730 -11.26676 -11.22611
 Alpha  occ. eigenvalues --  -11.22183 -11.22143 -11.22085 -11.21811 -11.21589
 Alpha  occ. eigenvalues --   -1.59815  -1.39369  -1.19318  -1.09182  -1.08712
 Alpha  occ. eigenvalues --   -1.04721  -1.04249  -0.96662  -0.95550  -0.87681
 Alpha  occ. eigenvalues --   -0.86117  -0.82386  -0.80348  -0.79011  -0.77429
 Alpha  occ. eigenvalues --   -0.72010  -0.71138  -0.70423  -0.65824  -0.64968
 Alpha  occ. eigenvalues --   -0.64717  -0.62106  -0.61610  -0.60042  -0.58289
 Alpha  occ. eigenvalues --   -0.55933  -0.55215  -0.53370  -0.53099  -0.53048
 Alpha  occ. eigenvalues --   -0.52810  -0.50598  -0.48794  -0.48766  -0.48609
 Alpha  occ. eigenvalues --   -0.47372  -0.46524  -0.46442  -0.44776  -0.44499
 Alpha  occ. eigenvalues --   -0.37295  -0.36322
 Alpha virt. eigenvalues --    0.05097   0.11274   0.16561   0.20151   0.22526
 Alpha virt. eigenvalues --    0.23622   0.25140   0.26071   0.27309   0.28167
 Alpha virt. eigenvalues --    0.28983   0.30147   0.30854   0.31332   0.32032

 Mulliken charges:
               1
     1  C   -0.172227
     2  C   -0.218552
     3  C   -0.171178
     4  C    0.158636
     5  C   -0.173320
     6  C   -0.225793
     7  H    0.226402
     8  H    0.223241
     9  H    0.275446
    10  H    0.275076
    11  H    0.234262
    12  N    0.488116
    13  O   -0.460596
    14  O   -0.460603
    15  C   -0.300362
    16  C   -0.299989
    17  C   -0.476415
    18  H    0.146347
    19  H    0.149448
    20  H    0.153355
    21  H    0.154649
    22  H    0.156108
    23  H    0.153659
    24  H    0.162795
    25  C   -0.297726
    26  C   -0.306068
    27  C   -0.475717
    28  H    0.152614
    29  H    0.153404
    30  H    0.150066
    31  H    0.146709
    32  H    0.158926
    33  H    0.158602
    34  H    0.160684
 Sum of Mulliken charges =  -0.00000

 Dipole moment (field-independent basis, Debye):
    X=              3.8670    Y=             -1.7962    Z=              3.1763  Tot=              5.3169
 Quadrupole moment (field-independent basis, Debye-Ang):
   XX=           -115.3751   YY=            -92.5931   ZZ=            -94.5986
   XY=              8.1460   XZ=            -10.5420   YZ=             -1.2517

 Normal termination of Gaussian 16 at Thu May  6 02:53:13 2021.
