 Gaussian 16, Revision A.03,
 Gaussian 16:  EM64L-G16RevA.03 25-Dec-2016

 -------------
 #p 6-31g* mp2
 -------------

 ------------------------------------------------------
 Input file generated by CHIRIPA (05-May-2021 14:57:20)
 ------------------------------------------------------
 Symbolic Z-matrix:
 Charge =  0 Multiplicity = 1

                         Standard orientation:
 ---------------------------------------------------------------------
 Center     Atomic      Atomic             Coordinates (Angstroms)
 Number     Number       Type             X           Y           Z
 ---------------------------------------------------------------------
      1          6           0        5.300220   -1.918662   -0.534495
      2          6           0        3.932781   -2.019400   -0.257943
      3          6           0        3.183961   -0.878624    0.046106
      4          6           0        3.837676    0.352471    0.064845
      5          6           0        5.198614    0.485345   -0.206231
      6          6           0        5.927667   -0.668814   -0.507804
      7          1           0        5.874244   -2.810043   -0.769725
      8          1           0        3.442855   -2.988739   -0.277945
      9          1           0        2.124032   -0.927929    0.264139
     10          1           0        5.659148    1.465430   -0.178637
     11          1           0        6.989502   -0.587573   -0.722165
     12          7           0        3.055398    1.567244    0.385417
     13          8           0        3.654834    2.640190    0.395463
     14          8           0        1.857624    1.423436    0.620565
     15          6           0       -1.507991   -0.569199    0.371787
     16          6           0       -1.927955    0.601918   -0.267460
     17          6           0       -3.287639    0.843395   -0.485395
     18          6           0       -4.204295   -0.111953   -0.049115
     19          6           0       -3.817136   -1.288407    0.590695
     20          6           0       -2.452257   -1.508967    0.798073
     21          1           0       -0.449737   -0.748659    0.536983
     22          1           0       -1.196859    1.333515   -0.599589
     23          1           0       -3.640348    1.741529   -0.977708
     24          1           0       -4.569455   -1.999147    0.910510
     25          1           0       -2.128998   -2.419362    1.294789
     26          7           0       -5.646481    0.132615   -0.274245
     27          8           0       -6.434194   -0.724711    0.119632
     28          8           0       -5.961848    1.177003   -0.840315
 ---------------------------------------------------------------------

 SCF Done:  E(RHF) =  -868.338843669     A.U. after   16 cycles
 E2 =    -0.2599602795D+01 EUMP2 =    -0.87093844646389D+03

 The electronic state is 1-A.
 Alpha  occ. eigenvalues --  -20.61952 -20.61881 -20.60355 -20.60344 -15.86954
 Alpha  occ. eigenvalues --  -15.85399 -11.32165 -11.30676 -11.28817 -11.28641
 Alpha  occ. eigenvalues --  -11.28360 -11.27698 -11.27617 -11.27266 -11.27149
 Alpha  occ. eigenvalues --  -11.26939 -11.26308 -11.26042  -1.60972  -1.59429
 Alpha  occ. eigenvalues --   -1.40539  -1.38985  -1.20305  -1.18823  -1.09714
 Alpha  occ. eigenvalues --   -1.08232  -1.05692  -1.04200  -0.96589  -0.95090
 Alpha  occ. eigenvalues --   -0.87096  -0.85592  -0.83434  -0.81921  -0.78523
 Alpha  occ. eigenvalues --   -0.76977  -0.73191  -0.72276  -0.71619  -0.71420
 Alpha  occ. eigenvalues --   -0.70750  -0.69942  -0.65963  -0.65688  -0.64467
 Alpha  occ. eigenvalues --   -0.64167  -0.63065  -0.61533  -0.56172  -0.54745
 Alpha  occ. eigenvalues --   -0.54010  -0.53751  -0.52549  -0.52269  -0.49951
 Alpha  occ. eigenvalues --   -0.49895  -0.48381  -0.48368  -0.45974  -0.44410
 Alpha  occ. eigenvalues --   -0.38245  -0.37280  -0.36801  -0.35800
 Alpha virt. eigenvalues --    0.04016   0.05530   0.10379   0.11855   0.15548
 Alpha virt. eigenvalues --    0.17046   0.18747   0.21983   0.24983   0.26914
 Alpha virt. eigenvalues --    0.28001   0.28968   0.30704   0.30935   0.33035

 Mulliken charges:
               1
     1  C   -0.169379
     2  C   -0.221370
     3  C   -0.172144
     4  C    0.156223
     5  C   -0.168704
     6  C   -0.218374
     7  H    0.229081
     8  H    0.225008
     9  H    0.274403
    10  H    0.278145
    11  H    0.227006
    12  N    0.490053
    13  O   -0.452865
    14  O   -0.474849
    15  C   -0.175225
    16  C   -0.222680
    17  C   -0.172142
    18  C    0.158364
    19  C   -0.171835
    20  C   -0.221146
    21  H    0.231501
    22  H    0.239027
    23  H    0.275461
    24  H    0.273134
    25  H    0.218497
    26  N    0.487965
    27  O   -0.462517
    28  O   -0.460638
 Sum of Mulliken charges =  -0.00000

 Dipole moment (field-independent basis, Debye):
    X=              8.3780    Y=             -4.9739    Z=             -0.4163  Tot=              9.7521
 Quadrupole moment (field-independent basis, Debye-Ang):
   XX=           -122.3113   YY=           -102.6344   ZZ=           -105.6408
   XY=             -9.2335   XZ=             -8.9891   YZ=             -3.1729

 Normal termination of Gaussian 16 at Thu May  6 04:50:24 2021.
