 Gaussian 16, Revision A.03,
 Gaussian 16:  EM64L-G16RevA.03 25-Dec-2016

 -------------
 #p 6-31g* mp2
 -------------

 ------------------------------------------------------
 Input file generated by CHIRIPA (05-May-2021 14:51:08)
 ------------------------------------------------------
 Symbolic Z-matrix:
 Charge =  0 Multiplicity = 1

                         Standard orientation:
 ---------------------------------------------------------------------
 Center     Atomic      Atomic             Coordinates (Angstroms)
 Number     Number       Type             X           Y           Z
 ---------------------------------------------------------------------
      1          6           0       -3.785232   -0.099405    0.526632
      2          6           0       -2.698025    0.802748   -0.058250
      3          6           0       -1.418509    0.805370    0.778783
      4          1           0       -4.015031    0.229801    1.549257
      5          1           0       -3.397071   -1.124155    0.607954
      6          1           0       -3.088586    1.825215   -0.139733
      7          1           0       -2.470924    0.471475   -1.079671
      8          1           0       -1.002635   -0.204872    0.849929
      9          1           0       -1.623807    1.156559    1.795208
     10          1           0       -0.654747    1.456716    0.342576
     11          6           0       -5.070490   -0.112564   -0.298999
     12          6           0       -6.157697   -1.014716    0.285884
     13          6           0       -7.437214   -1.017338   -0.551149
     14          1           0       -5.458651    0.912186   -0.380320
     15          1           0       -4.840692   -0.441769   -1.321623
     16          1           0       -6.384798   -0.683443    1.307304
     17          1           0       -5.767136   -2.037183    0.367367
     18          1           0       -7.231916   -1.368528   -1.567574
     19          1           0       -7.853087   -0.007097   -0.622296
     20          1           0       -8.200975   -1.668685   -0.114942
     21          6           0        4.707352   -0.585749   -0.277591
     22          6           0        6.104514   -0.826393    0.295136
     23          6           0        6.650130   -2.214611   -0.040943
     24          1           0        4.022716   -1.353586    0.107954
     25          1           0        4.738702   -0.714209   -1.368421
     26          1           0        6.070832   -0.696159    1.384410
     27          1           0        6.785862   -0.057780   -0.091667
     28          1           0        6.712509   -2.351873   -1.125318
     29          1           0        5.993417   -2.993879    0.359147
     30          1           0        7.649877   -2.365316    0.378169
     31          6           0        4.148370    0.797717    0.049957
     32          6           0        2.751209    1.038362   -0.522769
     33          6           0        2.205593    2.426579   -0.186690
     34          1           0        4.117020    0.926178    1.140787
     35          1           0        4.833006    1.565554   -0.335588
     36          1           0        2.069861    0.269749   -0.135966
     37          1           0        2.784890    0.908128   -1.612044
     38          1           0        2.862305    3.205847   -0.586780
     39          1           0        2.143213    2.563842    0.897684
     40          1           0        1.205846    2.577284   -0.605802
 ---------------------------------------------------------------------

 SCF Done:  E(RHF) =  -470.733098448     A.U. after   11 cycles
 E2 =    -0.1582504559D+01 EUMP2 =    -0.47231560300739D+03

 The electronic state is 1-A.
 Alpha  occ. eigenvalues --  -11.21595 -11.21592 -11.21585 -11.21573 -11.21394
 Alpha  occ. eigenvalues --  -11.21391 -11.21334 -11.21332 -11.21068 -11.21066
 Alpha  occ. eigenvalues --  -11.21065 -11.21005  -1.08425  -1.08409  -1.03548
 Alpha  occ. eigenvalues --   -1.03488  -0.96029  -0.95913  -0.87051  -0.86924
 Alpha  occ. eigenvalues --   -0.79590  -0.79570  -0.78235  -0.78223  -0.65059
 Alpha  occ. eigenvalues --   -0.65036  -0.60958  -0.60890  -0.59650  -0.59109
 Alpha  occ. eigenvalues --   -0.57747  -0.57396  -0.55276  -0.55236  -0.52937
 Alpha  occ. eigenvalues --   -0.52512  -0.52447  -0.52172  -0.49937  -0.49876
 Alpha  occ. eigenvalues --   -0.47971  -0.47817  -0.46661  -0.46562  -0.45786
 Alpha  occ. eigenvalues --   -0.45759  -0.45711  -0.45674  -0.43886  -0.43634
 Alpha virt. eigenvalues --    0.21726   0.23028   0.23446   0.25061   0.26354
 Alpha virt. eigenvalues --    0.26717   0.27020   0.27297   0.27709   0.28885
 Alpha virt. eigenvalues --    0.30391   0.31146   0.31577   0.31870   0.32177

 Mulliken charges:
               1
     1  C   -0.298390
     2  C   -0.299288
     3  C   -0.483938
     4  H    0.149602
     5  H    0.149408
     6  H    0.151725
     7  H    0.151774
     8  H    0.154468
     9  H    0.154792
    10  H    0.169964
    11  C   -0.298232
    12  C   -0.299625
    13  C   -0.475695
    14  H    0.149500
    15  H    0.149616
    16  H    0.151916
    17  H    0.151889
    18  H    0.155169
    19  H    0.155178
    20  H    0.160221
    21  C   -0.298263
    22  C   -0.299657
    23  C   -0.475699
    24  H    0.149636
    25  H    0.149435
    26  H    0.151981
    27  H    0.151921
    28  H    0.155135
    29  H    0.155151
    30  H    0.160233
    31  C   -0.298328
    32  C   -0.301707
    33  C   -0.478149
    34  H    0.149743
    35  H    0.149556
    36  H    0.154697
    37  H    0.151590
    38  H    0.155578
    39  H    0.156080
    40  H    0.161015
 Sum of Mulliken charges =  -0.00000

 Dipole moment (field-independent basis, Debye):
    X=              0.0151    Y=              0.0111    Z=              0.0032  Tot=              0.0190
 Quadrupole moment (field-independent basis, Debye-Ang):
   XX=            -85.8499   YY=            -84.9672   ZZ=            -84.0279
   XY=              0.2686   XZ=             -0.9448   YZ=             -0.0760

 Normal termination of Gaussian 16 at Wed May  5 22:56:36 2021.
