 Gaussian 16, Revision A.03,
 Gaussian 16:  EM64L-G16RevA.03 25-Dec-2016

 -------------
 #p 6-31g* mp2
 -------------

 ------------------------------------------------------
 Input file generated by CHIRIPA (05-May-2021 14:51:13)
 ------------------------------------------------------
 Symbolic Z-matrix:
 Charge =  0 Multiplicity = 1

                         Standard orientation:
 ---------------------------------------------------------------------
 Center     Atomic      Atomic             Coordinates (Angstroms)
 Number     Number       Type             X           Y           Z
 ---------------------------------------------------------------------
      1          6           0        3.130013    1.237394   -0.151414
      2          6           0        1.684881    1.700337    0.036369
      3          6           0        1.563769    3.218099    0.176096
      4          1           0        3.731234    1.577534    0.702859
      5          1           0        3.550463    1.723311   -1.042762
      6          1           0        1.266839    1.212625    0.926309
      7          1           0        1.086990    1.358890   -0.818357
      8          1           0        1.955173    3.719452   -0.714999
      9          1           0        2.136044    3.572356    1.039580
     10          1           0        0.522337    3.527162    0.309363
     11          6           0        3.267366   -0.277511   -0.292576
     12          6           0        4.712498   -0.740454   -0.480358
     13          6           0        4.833610   -2.258216   -0.620086
     14          1           0        2.846916   -0.763428    0.598772
     15          1           0        2.666145   -0.617652   -1.146849
     16          1           0        5.310389   -0.399007    0.374367
     17          1           0        5.130540   -0.252742   -1.370299
     18          1           0        4.261335   -2.612473   -1.483570
     19          1           0        4.442206   -2.759569    0.271009
     20          1           0        5.875042   -2.567279   -0.753352
     21          6           0       -2.620829   -0.957921    0.367066
     22          6           0       -1.466774   -0.301501    1.125521
     23          6           0       -0.318291   -1.270417    1.408334
     24          1           0       -2.994470   -1.811998    0.948347
     25          1           0       -2.242563   -1.366168   -0.580376
     26          1           0       -1.847380    0.106601    2.070617
     27          1           0       -1.095961    0.551230    0.542456
     28          1           0        0.088769   -1.668751    0.473328
     29          1           0       -0.666919   -2.115905    2.010172
     30          1           0        0.495914   -0.780368    1.951273
     31          6           0       -3.776550   -0.001962    0.076924
     32          6           0       -4.930606   -0.658382   -0.681531
     33          6           0       -6.079088    0.310535   -0.964344
     34          1           0       -4.154815    0.406284    1.024365
     35          1           0       -3.402909    0.852116   -0.504358
     36          1           0       -5.301417   -1.511112   -0.098467
     37          1           0       -4.549999   -1.066484   -1.626628
     38          1           0       -5.730459    1.156022   -1.566183
     39          1           0       -6.486147    0.708867   -0.029339
     40          1           0       -6.893293   -0.179514   -1.507283
 ---------------------------------------------------------------------

 SCF Done:  E(RHF) =  -470.731827448     A.U. after   11 cycles
 E2 =    -0.1584487023D+01 EUMP2 =    -0.47231631447098D+03

 The electronic state is 1-A.
 Alpha  occ. eigenvalues --  -11.21592 -11.21573 -11.21541 -11.21508 -11.21383
 Alpha  occ. eigenvalues --  -11.21369 -11.21322 -11.21303 -11.21066 -11.21066
 Alpha  occ. eigenvalues --  -11.21048 -11.21020  -1.08454  -1.08362  -1.03579
 Alpha  occ. eigenvalues --   -1.03443  -0.95969  -0.95960  -0.86985  -0.86975
 Alpha  occ. eigenvalues --   -0.79691  -0.79482  -0.78289  -0.78160  -0.65099
 Alpha  occ. eigenvalues --   -0.65006  -0.60993  -0.60880  -0.59501  -0.59166
 Alpha  occ. eigenvalues --   -0.57682  -0.57469  -0.55268  -0.55238  -0.52756
 Alpha  occ. eigenvalues --   -0.52582  -0.52472  -0.52311  -0.49917  -0.49886
 Alpha  occ. eigenvalues --   -0.47976  -0.47871  -0.46619  -0.46520  -0.45909
 Alpha  occ. eigenvalues --   -0.45700  -0.45656  -0.45482  -0.43762  -0.43722
 Alpha virt. eigenvalues --    0.21480   0.23017   0.23720   0.24452   0.25381
 Alpha virt. eigenvalues --    0.26369   0.26750   0.27415   0.28467   0.29791
 Alpha virt. eigenvalues --    0.30463   0.30880   0.31689   0.31847   0.32379

 Mulliken charges:
               1
     1  C   -0.297743
     2  C   -0.305842
     3  C   -0.476256
     4  H    0.149080
     5  H    0.149049
     6  H    0.160886
     7  H    0.150672
     8  H    0.155016
     9  H    0.155136
    10  H    0.160265
    11  C   -0.301532
    12  C   -0.299543
    13  C   -0.475688
    14  H    0.154566
    15  H    0.148545
    16  H    0.151718
    17  H    0.151664
    18  H    0.154882
    19  H    0.155494
    20  H    0.160131
    21  C   -0.298002
    22  C   -0.305953
    23  C   -0.478480
    24  H    0.149399
    25  H    0.149176
    26  H    0.150878
    27  H    0.159830
    28  H    0.158121
    29  H    0.154973
    30  H    0.159962
    31  C   -0.298212
    32  C   -0.299602
    33  C   -0.475693
    34  H    0.149472
    35  H    0.149349
    36  H    0.151965
    37  H    0.151820
    38  H    0.155111
    39  H    0.155170
    40  H    0.160215
 Sum of Mulliken charges =  -0.00000

 Dipole moment (field-independent basis, Debye):
    X=              0.0033    Y=             -0.0062    Z=              0.0126  Tot=              0.0144
 Quadrupole moment (field-independent basis, Debye-Ang):
   XX=            -85.6765   YY=            -86.3093   ZZ=            -83.0785
   XY=              0.8457   XZ=             -0.4227   YZ=             -0.2510

 Normal termination of Gaussian 16 at Thu May  6 00:46:54 2021.
