 Gaussian 16, Revision A.03,
 Gaussian 16:  EM64L-G16RevA.03 25-Dec-2016

 -------------
 #p 6-31g* mp2
 -------------

 ------------------------------------------------------
 Input file generated by CHIRIPA (05-May-2021 14:51:08)
 ------------------------------------------------------
 Symbolic Z-matrix:
 Charge =  0 Multiplicity = 1

                         Standard orientation:
 ---------------------------------------------------------------------
 Center     Atomic      Atomic             Coordinates (Angstroms)
 Number     Number       Type             X           Y           Z
 ---------------------------------------------------------------------
      1          6           0       -3.500825   -0.050783    0.661584
      2          6           0       -2.155320    0.396654    0.089396
      3          6           0       -1.050698    0.445547    1.145433
      4          1           0       -3.794140    0.633265    1.469662
      5          1           0       -3.385159   -1.043257    1.118763
      6          1           0       -2.273810    1.387390   -0.367789
      7          1           0       -1.865266   -0.288427   -0.717542
      8          1           0       -0.903464   -0.541823    1.594903
      9          1           0       -1.314329    1.143516    1.946644
     10          1           0       -0.097530    0.767802    0.714755
     11          6           0       -4.615163   -0.104642   -0.382005
     12          6           0       -5.960668   -0.552079    0.190183
     13          6           0       -7.065290   -0.600972   -0.865854
     14          1           0       -4.730829    0.887832   -0.839183
     15          1           0       -4.321848   -0.788690   -1.190083
     16          1           0       -6.250722    0.133002    0.997121
     17          1           0       -5.842177   -1.542815    0.647368
     18          1           0       -6.801658   -1.298941   -1.667064
     19          1           0       -7.212524    0.386398   -1.315324
     20          1           0       -8.018458   -0.923227   -0.435176
     21          6           0        4.080062   -0.607162    0.197690
     22          6           0        4.931639   -1.628145   -0.557554
     23          6           0        4.966002   -2.993393    0.129987
     24          1           0        4.471675   -0.495680    1.218061
     25          1           0        3.056685   -0.994941    0.296289
     26          1           0        5.952760   -1.237946   -0.655908
     27          1           0        4.538069   -1.737068   -1.576305
     28          1           0        3.956138   -3.407670    0.214537
     29          1           0        5.378866   -2.905714    1.140164
     30          1           0        5.580305   -3.707916   -0.426746
     31          6           0        4.035926    0.762586   -0.477269
     32          6           0        3.184349    1.783571    0.277974
     33          6           0        3.149985    3.148818   -0.409566
     34          1           0        5.059303    1.150367   -0.575868
     35          1           0        3.644312    0.651105   -1.497640
     36          1           0        3.577919    1.892492    1.296725
     37          1           0        2.163228    1.393372    0.376329
     38          1           0        2.737122    3.061138   -1.419743
     39          1           0        4.159851    3.563095   -0.494117
     40          1           0        2.535683    3.863341    0.147166
 ---------------------------------------------------------------------

 SCF Done:  E(RHF) =  -470.733354306     A.U. after   11 cycles
 E2 =    -0.1582439026D+01 EUMP2 =    -0.47231579333210D+03

 The electronic state is 1-A.
 Alpha  occ. eigenvalues --  -11.21633 -11.21615 -11.21591 -11.21583 -11.21425
 Alpha  occ. eigenvalues --  -11.21391 -11.21365 -11.21331 -11.21096 -11.21082
 Alpha  occ. eigenvalues --  -11.21065 -11.21063  -1.08451  -1.08419  -1.03557
 Alpha  occ. eigenvalues --   -1.03516  -0.96004  -0.95966  -0.87028  -0.86977
 Alpha  occ. eigenvalues --   -0.79645  -0.79556  -0.78264  -0.78229  -0.65080
 Alpha  occ. eigenvalues --   -0.65060  -0.60951  -0.60944  -0.59445  -0.59266
 Alpha  occ. eigenvalues --   -0.57647  -0.57544  -0.55287  -0.55254  -0.52755
 Alpha  occ. eigenvalues --   -0.52642  -0.52441  -0.52375  -0.49940  -0.49906
 Alpha  occ. eigenvalues --   -0.48011  -0.47834  -0.46646  -0.46607  -0.45808
 Alpha  occ. eigenvalues --   -0.45770  -0.45729  -0.45696  -0.43798  -0.43730
 Alpha virt. eigenvalues --    0.21485   0.23029   0.23724   0.24689   0.25974
 Alpha virt. eigenvalues --    0.26638   0.27100   0.27490   0.28007   0.28804
 Alpha virt. eigenvalues --    0.30290   0.31398   0.31673   0.31913   0.31964

 Mulliken charges:
               1
     1  C   -0.298683
     2  C   -0.298737
     3  C   -0.484452
     4  H    0.149792
     5  H    0.149570
     6  H    0.152087
     7  H    0.151545
     8  H    0.155359
     9  H    0.155764
    10  H    0.167689
    11  C   -0.298225
    12  C   -0.299656
    13  C   -0.475715
    14  H    0.149583
    15  H    0.149593
    16  H    0.151998
    17  H    0.151954
    18  H    0.155171
    19  H    0.155212
    20  H    0.160308
    21  C   -0.298636
    22  C   -0.299651
    23  C   -0.475681
    24  H    0.149777
    25  H    0.149860
    26  H    0.151921
    27  H    0.151846
    28  H    0.155144
    29  H    0.155220
    30  H    0.160173
    31  C   -0.297542
    32  C   -0.309498
    33  C   -0.475190
    34  H    0.149558
    35  H    0.149361
    36  H    0.152348
    37  H    0.160327
    38  H    0.154924
    39  H    0.155270
    40  H    0.160312
 Sum of Mulliken charges =  -0.00000

 Dipole moment (field-independent basis, Debye):
    X=             -0.0083    Y=              0.0038    Z=              0.0094  Tot=              0.0131
 Quadrupole moment (field-independent basis, Debye-Ang):
   XX=            -84.8814   YY=            -84.8410   ZZ=            -85.0236
   XY=              0.0515   XZ=             -0.2121   YZ=              0.7128

 Normal termination of Gaussian 16 at Wed May  5 22:55:29 2021.
