 Gaussian 16, Revision A.03,
 Gaussian 16:  EM64L-G16RevA.03 25-Dec-2016

 -------------
 #p 6-31g* mp2
 -------------

 ------------------------------------------------------
 Input file generated by CHIRIPA (05-May-2021 14:57:26)
 ------------------------------------------------------
 Symbolic Z-matrix:
 Charge =  0 Multiplicity = 1

                         Standard orientation:
 ---------------------------------------------------------------------
 Center     Atomic      Atomic             Coordinates (Angstroms)
 Number     Number       Type             X           Y           Z
 ---------------------------------------------------------------------
      1          6           0       -5.612526    0.019865    0.535850
      2          6           0       -5.178429   -1.064740   -0.233378
      3          6           0       -3.837486   -1.174160   -0.613439
      4          6           0       -2.953779   -0.176407   -0.204978
      5          6           0       -3.355726    0.916255    0.561716
      6          6           0       -4.701396    1.005164    0.930247
      7          1           0       -6.656039    0.096899    0.826613
      8          1           0       -5.883798   -1.831423   -0.541106
      9          1           0       -3.474461   -2.003199   -1.208692
     10          1           0       -2.629116    1.664855    0.853354
     11          1           0       -5.035696    1.848596    1.527666
     12          7           0       -1.531680   -0.281388   -0.601228
     13          8           0       -0.772942    0.610860   -0.228608
     14          8           0       -1.202705   -1.253933   -1.276927
     15          6           0        2.403127    2.487851   -0.431813
     16          6           0        3.064901    1.716651   -1.392972
     17          6           0        3.504275    0.425088   -1.087417
     18          6           0        3.264052   -0.066030    0.194920
     19          6           0        2.607523    0.677797    1.174196
     20          6           0        2.176949    1.966881    0.846450
     21          1           0        2.065229    3.490205   -0.677794
     22          1           0        3.241929    2.118659   -2.386499
     23          1           0        4.019080   -0.193601   -1.812411
     24          1           0        2.445550    0.249830    2.156044
     25          1           0        1.663267    2.563536    1.594901
     26          7           0        3.724539   -1.432037    0.530143
     27          8           0        3.500662   -1.841725    1.667101
     28          8           0        4.300626   -2.067160   -0.350413
 ---------------------------------------------------------------------

 SCF Done:  E(RHF) =  -868.337379879     A.U. after   16 cycles
 E2 =    -0.2600280640D+01 EUMP2 =    -0.87093766051835D+03

 The electronic state is 1-A.
 Alpha  occ. eigenvalues --  -20.61053 -20.61015 -20.59571 -20.59561 -15.86078
 Alpha  occ. eigenvalues --  -15.84615 -11.31448 -11.29743 -11.28058 -11.27983
 Alpha  occ. eigenvalues --  -11.27745 -11.27048 -11.26999 -11.26328 -11.26322
 Alpha  occ. eigenvalues --  -11.26084 -11.25349 -11.25334  -1.60108  -1.58641
 Alpha  occ. eigenvalues --   -1.39665  -1.38206  -1.19618  -1.17892  -1.09010
 Alpha  occ. eigenvalues --   -1.07360  -1.05024  -1.03309  -0.95848  -0.94242
 Alpha  occ. eigenvalues --   -0.86421  -0.84754  -0.82684  -0.81110  -0.77737
 Alpha  occ. eigenvalues --   -0.76170  -0.72311  -0.71430  -0.70860  -0.70727
 Alpha  occ. eigenvalues --   -0.69939  -0.69116  -0.65274  -0.65026  -0.63612
 Alpha  occ. eigenvalues --   -0.63404  -0.62377  -0.60723  -0.55518  -0.53902
 Alpha  occ. eigenvalues --   -0.53349  -0.53119  -0.51606  -0.51485  -0.49060
 Alpha  occ. eigenvalues --   -0.48982  -0.47614  -0.47591  -0.45076  -0.43667
 Alpha  occ. eigenvalues --   -0.37594  -0.36627  -0.35827  -0.34806
 Alpha virt. eigenvalues --    0.04783   0.06419   0.11028   0.12793   0.16286
 Alpha virt. eigenvalues --    0.17961   0.21157   0.22597   0.27043   0.27974
 Alpha virt. eigenvalues --    0.28523   0.29488   0.30714   0.31965   0.32374

 Mulliken charges:
               1
     1  C   -0.170661
     2  C   -0.218286
     3  C   -0.170305
     4  C    0.158618
     5  C   -0.170999
     6  C   -0.218190
     7  H    0.226414
     8  H    0.224874
     9  H    0.277471
    10  H    0.270704
    11  H    0.222874
    12  N    0.490814
    13  O   -0.466251
    14  O   -0.456629
    15  C   -0.163530
    16  C   -0.215790
    17  C   -0.167525
    18  C    0.162499
    19  C   -0.163936
    20  C   -0.203069
    21  H    0.218252
    22  H    0.217604
    23  H    0.271559
    24  H    0.269281
    25  H    0.214194
    26  N    0.488763
    27  O   -0.465336
    28  O   -0.463414
 Sum of Mulliken charges =  -0.00000

 Dipole moment (field-independent basis, Debye):
    X=             -6.9220    Y=              5.1112    Z=              0.1310  Tot=              8.6055
 Quadrupole moment (field-independent basis, Debye-Ang):
   XX=            -86.8771   YY=           -103.1204   ZZ=           -101.4360
   XY=             16.6295   XZ=             -8.8796   YZ=              3.7671

 Normal termination of Gaussian 16 at Fri May  7 05:03:19 2021.
