 Gaussian 16, Revision A.03,
 Gaussian 16:  EM64L-G16RevA.03 25-Dec-2016

 -------------
 #p 6-31g* mp2
 -------------

 ------------------------------------------------------
 Input file generated by CHIRIPA (05-May-2021 14:51:14)
 ------------------------------------------------------
 Symbolic Z-matrix:
 Charge =  0 Multiplicity = 1

                         Standard orientation:
 ---------------------------------------------------------------------
 Center     Atomic      Atomic             Coordinates (Angstroms)
 Number     Number       Type             X           Y           Z
 ---------------------------------------------------------------------
      1          6           0       -2.883169   -0.073304   -0.784462
      2          6           0       -2.626164   -1.552964   -0.497167
      3          6           0       -3.515631   -2.479426   -1.326813
      4          1           0       -3.939231    0.154377   -0.584868
      5          1           0       -2.718529    0.119427   -1.853641
      6          1           0       -2.789896   -1.742562    0.571411
      7          1           0       -1.570546   -1.777105   -0.697285
      8          1           0       -3.346778   -2.319312   -2.396604
      9          1           0       -4.573057   -2.284573   -1.120699
     10          1           0       -3.315294   -3.532417   -1.105599
     11          6           0       -2.001556    0.865414    0.037302
     12          6           0       -2.258560    2.345074   -0.249994
     13          6           0       -1.369094    3.271536    0.579652
     14          1           0       -2.166196    0.672683    1.106480
     15          1           0       -0.945493    0.637733   -0.162293
     16          1           0       -3.314178    2.569215   -0.049875
     17          1           0       -2.094828    2.534672   -1.318572
     18          1           0       -0.311667    3.076683    0.373538
     19          1           0       -1.537946    3.111422    1.649443
     20          1           0       -1.569430    4.324527    0.358438
     21          6           0        1.738624   -0.430925    0.668485
     22          6           0        1.708371   -0.953947    2.104981
     23          6           0        0.293537   -1.017919    2.681130
     24          1           0        1.283759    0.568670    0.639310
     25          1           0        1.113473   -1.077359    0.037056
     26          1           0        2.334503   -0.307525    2.733242
     27          1           0        2.163534   -1.952334    2.130772
     28          1           0       -0.338264   -1.678537    2.078625
     29          1           0       -0.166324   -0.024381    2.684518
     30          1           0        0.295186   -1.394500    3.708771
     31          6           0        3.146100   -0.361185    0.078676
     32          6           0        3.176354    0.161838   -1.357820
     33          6           0        4.591187    0.225809   -1.933970
     34          1           0        3.771251    0.285249    0.710105
     35          1           0        3.600965   -1.360781    0.107851
     36          1           0        2.721190    1.160225   -1.383611
     37          1           0        2.550222   -0.484586   -1.986080
     38          1           0        5.051048   -0.767729   -1.937357
     39          1           0        5.222987    0.886426   -1.331464
     40          1           0        4.589539    0.602389   -2.961610
 ---------------------------------------------------------------------

 SCF Done:  E(RHF) =  -470.732093766     A.U. after   11 cycles
 E2 =    -0.1585395690D+01 EUMP2 =    -0.47231748945594D+03

 The electronic state is 1-A.
 Alpha  occ. eigenvalues --  -11.21658 -11.21596 -11.21586 -11.21553 -11.21425
 Alpha  occ. eigenvalues --  -11.21364 -11.21329 -11.21181 -11.21109 -11.21108
 Alpha  occ. eigenvalues --  -11.21070 -11.20960  -1.08490  -1.08348  -1.03537
 Alpha  occ. eigenvalues --   -1.03514  -0.95984  -0.95956  -0.87003  -0.86978
 Alpha  occ. eigenvalues --   -0.79655  -0.79576  -0.78579  -0.77880  -0.65095
 Alpha  occ. eigenvalues --   -0.65018  -0.60950  -0.60912  -0.59367  -0.59316
 Alpha  occ. eigenvalues --   -0.57629  -0.57549  -0.55296  -0.55224  -0.52689
 Alpha  occ. eigenvalues --   -0.52662  -0.52430  -0.52394  -0.49987  -0.49847
 Alpha  occ. eigenvalues --   -0.48053  -0.47939  -0.46677  -0.46599  -0.46457
 Alpha  occ. eigenvalues --   -0.45680  -0.45595  -0.44852  -0.43794  -0.43738
 Alpha virt. eigenvalues --    0.20799   0.22201   0.23393   0.23928   0.24771
 Alpha virt. eigenvalues --    0.26000   0.26444   0.28154   0.28956   0.29587
 Alpha virt. eigenvalues --    0.30426   0.30991   0.31693   0.32000   0.32262

 Mulliken charges:
               1
     1  C   -0.297529
     2  C   -0.303872
     3  C   -0.475552
     4  H    0.149108
     5  H    0.148924
     6  H    0.153713
     7  H    0.153377
     8  H    0.155112
     9  H    0.155420
    10  H    0.159894
    11  C   -0.308769
    12  C   -0.299139
    13  C   -0.477659
    14  H    0.151791
    15  H    0.161411
    16  H    0.151512
    17  H    0.151478
    18  H    0.154998
    19  H    0.154852
    20  H    0.160696
    21  C   -0.306629
    22  C   -0.299050
    23  C   -0.480855
    24  H    0.154574
    25  H    0.151767
    26  H    0.151696
    27  H    0.151563
    28  H    0.159436
    29  H    0.158270
    30  H    0.158868
    31  C   -0.297107
    32  C   -0.299869
    33  C   -0.475618
    34  H    0.149741
    35  H    0.149739
    36  H    0.151135
    37  H    0.151425
    38  H    0.155392
    39  H    0.155432
    40  H    0.160325
 Sum of Mulliken charges =  -0.00000

 Dipole moment (field-independent basis, Debye):
    X=              0.0157    Y=             -0.0079    Z=              0.0062  Tot=              0.0186
 Quadrupole moment (field-independent basis, Debye-Ang):
   XX=            -85.5750   YY=            -84.6037   ZZ=            -84.7831
   XY=             -0.4450   XZ=             -0.3136   YZ=              0.0033

 Normal termination of Gaussian 16 at Wed May  5 20:00:23 2021.
