 Gaussian 16, Revision A.03,
 Gaussian 16:  EM64L-G16RevA.03 25-Dec-2016

 -------------
 #p 6-31g* mp2
 -------------

 ------------------------------------------------------
 Input file generated by CHIRIPA (05-May-2021 14:55:18)
 ------------------------------------------------------
 Symbolic Z-matrix:
 Charge =  0 Multiplicity = 1

                         Standard orientation:
 ---------------------------------------------------------------------
 Center     Atomic      Atomic             Coordinates (Angstroms)
 Number     Number       Type             X           Y           Z
 ---------------------------------------------------------------------
      1          6           0       -2.506125    1.699849    1.645981
      2          6           0       -1.653020    1.844400    0.546964
      3          6           0       -1.519957    0.814336   -0.388884
      4          6           0       -2.258261   -0.351927   -0.193875
      5          6           0       -3.116421   -0.526041    0.890808
      6          6           0       -3.233819    0.517175    1.814099
      7          1           0       -2.603407    2.505136    2.368093
      8          1           0       -1.086654    2.761765    0.413857
      9          1           0       -0.866740    0.899689   -1.248790
     10          1           0       -3.668057   -1.452273    0.996686
     11          1           0       -3.897109    0.402131    2.666658
     12          7           0       -2.125685   -1.449371   -1.177968
     13          8           0       -2.787061   -2.466923   -0.983531
     14          8           0       -1.362906   -1.271215   -2.125104
     15          6           0        2.863343    0.703968   -0.546933
     16          6           0        2.112815    1.990817   -0.202388
     17          6           0        2.010636    2.951036   -1.387855
     18          1           0        3.871225    0.958761   -0.902177
     19          1           0        2.354625    0.203564   -1.382516
     20          1           0        2.622003    2.487938    0.633205
     21          1           0        1.106668    1.732921    0.152258
     22          1           0        1.483445    2.477835   -2.222572
     23          1           0        3.007389    3.237142   -1.738893
     24          1           0        1.470421    3.864249   -1.119397
     25          6           0        2.973743   -0.266068    0.628044
     26          6           0        3.724270   -1.552917    0.283500
     27          6           0        3.826449   -2.513137    1.468967
     28          1           0        3.482459    0.234335    1.463627
     29          1           0        1.965860   -0.520861    0.983287
     30          1           0        4.730416   -1.295021   -0.071147
     31          1           0        3.215082   -2.050038   -0.552093
     32          1           0        2.829695   -2.799242    1.820004
     33          1           0        4.353640   -2.039935    2.303683
     34          1           0        4.366663   -3.426349    1.200509
 ---------------------------------------------------------------------

 SCF Done:  E(RHF) =  -669.534476044     A.U. after   15 cycles
 E2 =    -0.2093723685D+01 EUMP2 =    -0.67162819972858D+03

 The electronic state is 1-A.
 Alpha  occ. eigenvalues --  -20.60852 -20.60845 -15.85903 -11.31264 -11.27826
 Alpha  occ. eigenvalues --  -11.27818 -11.27555 -11.26840 -11.26806 -11.22002
 Alpha  occ. eigenvalues --  -11.21690 -11.21526 -11.21474 -11.21392 -11.20942
 Alpha  occ. eigenvalues --   -1.59925  -1.39479  -1.19442  -1.08831  -1.08580
 Alpha  occ. eigenvalues --   -1.04859  -1.03722  -0.96174  -0.95666  -0.87189
 Alpha  occ. eigenvalues --   -0.86233  -0.82519  -0.79812  -0.78355  -0.77541
 Alpha  occ. eigenvalues --   -0.72122  -0.71249  -0.70548  -0.65326  -0.65028
 Alpha  occ. eigenvalues --   -0.64842  -0.62304  -0.60996  -0.59574  -0.57767
 Alpha  occ. eigenvalues --   -0.55472  -0.55299  -0.53215  -0.52943  -0.52864
 Alpha  occ. eigenvalues --   -0.52582  -0.50114  -0.48878  -0.48877  -0.48105
 Alpha  occ. eigenvalues --   -0.46835  -0.45896  -0.45773  -0.44882  -0.43946
 Alpha  occ. eigenvalues --   -0.37415  -0.36352
 Alpha virt. eigenvalues --    0.04943   0.11162   0.16309   0.19636   0.22903
 Alpha virt. eigenvalues --    0.23888   0.25754   0.26445   0.27515   0.28252
 Alpha virt. eigenvalues --    0.29288   0.30377   0.31371   0.31868   0.32431

 Mulliken charges:
               1
     1  C   -0.172081
     2  C   -0.219847
     3  C   -0.171972
     4  C    0.157068
     5  C   -0.171053
     6  C   -0.218559
     7  H    0.226255
     8  H    0.227984
     9  H    0.279574
    10  H    0.275833
    11  H    0.223837
    12  N    0.488048
    13  O   -0.459904
    14  O   -0.461021
    15  C   -0.300354
    16  C   -0.311477
    17  C   -0.479910
    18  H    0.150790
    19  H    0.157066
    20  H    0.152499
    21  H    0.151919
    22  H    0.156690
    23  H    0.161534
    24  H    0.154097
    25  C   -0.298283
    26  C   -0.301265
    27  C   -0.475824
    28  H    0.147514
    29  H    0.150275
    30  H    0.151213
    31  H    0.158589
    32  H    0.156060
    33  H    0.153143
    34  H    0.161561
 Sum of Mulliken charges =  -0.00000

 Dipole moment (field-independent basis, Debye):
    X=             -0.4591    Y=              3.7662    Z=              3.4410  Tot=              5.1220
 Quadrupole moment (field-independent basis, Debye-Ang):
   XX=            -89.9162   YY=            -97.0285   ZZ=            -95.7282
   XY=             -6.2411   XZ=            -10.0409   YZ=             -2.7696

 Normal termination of Gaussian 16 at Thu May  6 06:03:35 2021.
