 Gaussian 16, Revision A.03,
 Gaussian 16:  EM64L-G16RevA.03 25-Dec-2016

 -------------
 #p 6-31g* mp2
 -------------

 ------------------------------------------------------
 Input file generated by CHIRIPA (05-May-2021 14:55:21)
 ------------------------------------------------------
 Symbolic Z-matrix:
 Charge =  0 Multiplicity = 1

                         Standard orientation:
 ---------------------------------------------------------------------
 Center     Atomic      Atomic             Coordinates (Angstroms)
 Number     Number       Type             X           Y           Z
 ---------------------------------------------------------------------
      1          6           0        2.325246   -2.415486   -0.978441
      2          6           0        3.512492   -1.914516   -0.434383
      3          6           0        3.562801   -0.618741    0.088095
      4          6           0        2.401916    0.152099    0.050110
      5          6           0        1.203957   -0.318633   -0.485237
      6          6           0        1.176793   -1.617353   -1.002089
      7          1           0        2.295155   -3.423219   -1.382129
      8          1           0        4.405936   -2.532104   -0.414683
      9          1           0        4.468623   -0.205850    0.515208
     10          1           0        0.329557    0.320750   -0.490818
     11          1           0        0.253369   -2.003787   -1.423991
     12          7           0        2.442925    1.525437    0.600257
     13          8           0        1.406483    2.184504    0.554925
     14          8           0        3.510733    1.916788    1.066376
     15          6           0       -3.193341    0.654243   -0.452512
     16          6           0       -2.540668    1.981414   -0.064412
     17          6           0       -2.804819    3.090357   -1.083363
     18          1           0       -2.821064    0.344382   -1.438585
     19          1           0       -4.276552    0.804018   -0.560285
     20          1           0       -1.459185    1.828870    0.043948
     21          1           0       -2.914396    2.288056    0.920938
     22          1           0       -3.879683    3.271476   -1.185666
     23          1           0       -2.416204    2.809681   -2.067639
     24          1           0       -2.329178    4.030215   -0.786221
     25          6           0       -2.938262   -0.464180    0.556347
     26          6           0       -3.590935   -1.791350    0.168246
     27          6           0       -3.326783   -2.900294    1.187198
     28          1           0       -1.855050   -0.613954    0.664120
     29          1           0       -3.310538   -0.154317    1.542420
     30          1           0       -3.217206   -2.097992   -0.817103
     31          1           0       -4.672417   -1.638806    0.059886
     32          1           0       -3.715399   -2.619617    2.171473
     33          1           0       -2.251920   -3.081412    1.289501
     34          1           0       -3.802425   -3.840151    0.890055
 ---------------------------------------------------------------------

 SCF Done:  E(RHF) =  -669.535486673     A.U. after   15 cycles
 E2 =    -0.2093139595D+01 EUMP2 =    -0.67162862626855D+03

 The electronic state is 1-A.
 Alpha  occ. eigenvalues --  -20.60877 -20.60872 -15.85920 -11.31261 -11.27831
 Alpha  occ. eigenvalues --  -11.27816 -11.27569 -11.26847 -11.26837 -11.22041
 Alpha  occ. eigenvalues --  -11.21719 -11.21550 -11.21476 -11.21332 -11.20764
 Alpha  occ. eigenvalues --   -1.59945  -1.39500  -1.19438  -1.08834  -1.08646
 Alpha  occ. eigenvalues --   -1.04839  -1.03633  -0.96098  -0.95675  -0.87116
 Alpha  occ. eigenvalues --   -0.86238  -0.82508  -0.79720  -0.78435  -0.77537
 Alpha  occ. eigenvalues --   -0.72145  -0.71260  -0.70558  -0.65384  -0.65090
 Alpha  occ. eigenvalues --   -0.64815  -0.62172  -0.61029  -0.59475  -0.57670
 Alpha  occ. eigenvalues --   -0.55431  -0.55324  -0.53166  -0.52953  -0.52737
 Alpha  occ. eigenvalues --   -0.52506  -0.50078  -0.48936  -0.48892  -0.47993
 Alpha  occ. eigenvalues --   -0.46780  -0.45933  -0.45821  -0.44900  -0.43909
 Alpha  occ. eigenvalues --   -0.37414  -0.36428
 Alpha virt. eigenvalues --    0.04940   0.11188   0.16383   0.18998   0.23149
 Alpha virt. eigenvalues --    0.23435   0.25640   0.26575   0.27717   0.28193
 Alpha virt. eigenvalues --    0.29699   0.30933   0.31542   0.31784   0.32307

 Mulliken charges:
               1
     1  C   -0.170191
     2  C   -0.218933
     3  C   -0.169641
     4  C    0.154625
     5  C   -0.173940
     6  C   -0.224250
     7  H    0.226163
     8  H    0.223850
     9  H    0.275908
    10  H    0.288892
    11  H    0.225394
    12  N    0.490306
    13  O   -0.465923
    14  O   -0.459432
    15  C   -0.300009
    16  C   -0.315203
    17  C   -0.474587
    18  H    0.141849
    19  H    0.151578
    20  H    0.171468
    21  H    0.155255
    22  H    0.152557
    23  H    0.151574
    24  H    0.168172
    25  C   -0.301244
    26  C   -0.298913
    27  C   -0.475896
    28  H    0.143944
    29  H    0.155088
    30  H    0.144737
    31  H    0.155129
    32  H    0.158589
    33  H    0.152915
    34  H    0.160169
 Sum of Mulliken charges =  -0.00000

 Dipole moment (field-independent basis, Debye):
    X=             -0.1001    Y=             -4.7056    Z=             -1.8235  Tot=              5.0476
 Quadrupole moment (field-independent basis, Debye-Ang):
   XX=            -89.8520   YY=            -97.1774   ZZ=            -95.6794
   XY=            -12.8383   XZ=             -4.2981   YZ=              0.1483

 Normal termination of Gaussian 16 at Wed May  5 20:37:38 2021.
