 Gaussian 16, Revision A.03,
 Gaussian 16:  EM64L-G16RevA.03 25-Dec-2016

 -------------
 #p 6-31g* mp2
 -------------

 ------------------------------------------------------
 Input file generated by CHIRIPA (05-May-2021 14:55:19)
 ------------------------------------------------------
 Symbolic Z-matrix:
 Charge =  0 Multiplicity = 1

                         Standard orientation:
 ---------------------------------------------------------------------
 Center     Atomic      Atomic             Coordinates (Angstroms)
 Number     Number       Type             X           Y           Z
 ---------------------------------------------------------------------
      1          6           0        5.265733   -0.183313   -0.600972
      2          6           0        4.358586    0.571995   -1.351382
      3          6           0        3.015148    0.649916   -0.972366
      4          6           0        2.611348   -0.043205    0.167729
      5          6           0        3.491092   -0.804076    0.936114
      6          6           0        4.829859   -0.867731    0.538372
      7          1           0        6.307533   -0.238302   -0.902674
      8          1           0        4.694272    1.104561   -2.236669
      9          1           0        2.291627    1.227292   -1.535015
     10          1           0        3.126766   -1.324032    1.813800
     11          1           0        5.532135   -1.455084    1.123068
     12          7           0        1.191583    0.031735    0.578889
     13          8           0        0.860906   -0.588136    1.587377
     14          8           0        0.436332    0.708925   -0.115119
     15          6           0       -3.167476    0.669584   -0.135243
     16          6           0       -3.845524    1.985797    0.246624
     17          6           0       -2.883224    3.173823    0.227479
     18          1           0       -2.334487    0.479724    0.555428
     19          1           0       -2.726564    0.769394   -1.136757
     20          1           0       -4.286220    1.883083    1.246550
     21          1           0       -4.677117    2.172450   -0.444918
     22          1           0       -2.452552    3.304693   -0.770517
     23          1           0       -2.059435    3.013682    0.930564
     24          1           0       -3.388781    4.104454    0.503520
     25          6           0       -4.116601   -0.527360   -0.120668
     26          6           0       -3.438553   -1.843573   -0.502535
     27          6           0       -4.400853   -3.031599   -0.483390
     28          1           0       -4.557513   -0.627171    0.880846
     29          1           0       -4.949590   -0.337500   -0.811339
     30          1           0       -2.606960   -2.030226    0.189007
     31          1           0       -2.997857   -1.740859   -1.502461
     32          1           0       -5.224642   -2.871459   -1.186474
     33          1           0       -4.831525   -3.162470    0.514606
     34          1           0       -3.895296   -3.962231   -0.759430
 ---------------------------------------------------------------------

 SCF Done:  E(RHF) =  -669.536287840     A.U. after   15 cycles
 E2 =    -0.2091679328D+01 EUMP2 =    -0.67162796716820D+03

 The electronic state is 1-A.
 Alpha  occ. eigenvalues --  -20.61044 -20.61031 -15.86049 -11.31345 -11.27903
 Alpha  occ. eigenvalues --  -11.27899 -11.27635 -11.26903 -11.26893 -11.20330
 Alpha  occ. eigenvalues --  -11.20174 -11.20100 -11.19985 -11.19691 -11.19448
 Alpha  occ. eigenvalues --   -1.60090  -1.39645  -1.19509  -1.08920  -1.06947
 Alpha  occ. eigenvalues --   -1.04900  -1.02203  -0.95766  -0.94643  -0.86302
 Alpha  occ. eigenvalues --   -0.85667  -0.82600  -0.78273  -0.77658  -0.76682
 Alpha  occ. eigenvalues --   -0.72253  -0.71395  -0.70617  -0.65163  -0.64904
 Alpha  occ. eigenvalues --   -0.63589  -0.62247  -0.59617  -0.58027  -0.56250
 Alpha  occ. eigenvalues --   -0.55407  -0.53934  -0.53233  -0.52991  -0.51422
 Alpha  occ. eigenvalues --   -0.51074  -0.49110  -0.49031  -0.48560  -0.46577
 Alpha  occ. eigenvalues --   -0.45304  -0.45065  -0.44233  -0.44010  -0.42398
 Alpha  occ. eigenvalues --   -0.37486  -0.36499
 Alpha virt. eigenvalues --    0.04868   0.11157   0.16371   0.21293   0.24259
 Alpha virt. eigenvalues --    0.25553   0.27215   0.28120   0.28148   0.28991
 Alpha virt. eigenvalues --    0.29329   0.30896   0.32408   0.32636   0.32916

 Mulliken charges:
               1
     1  C   -0.170468
     2  C   -0.218558
     3  C   -0.170694
     4  C    0.158128
     5  C   -0.170642
     6  C   -0.218592
     7  H    0.226185
     8  H    0.224034
     9  H    0.276025
    10  H    0.275838
    11  H    0.223972
    12  N    0.488970
    13  O   -0.460720
    14  O   -0.457790
    15  C   -0.302137
    16  C   -0.299351
    17  C   -0.473092
    18  H    0.176963
    19  H    0.147025
    20  H    0.147566
    21  H    0.144446
    22  H    0.152420
    23  H    0.162571
    24  H    0.151549
    25  C   -0.297735
    26  C   -0.299621
    27  C   -0.474678
    28  H    0.145885
    29  H    0.142554
    30  H    0.160138
    31  H    0.148561
    32  H    0.151698
    33  H    0.153597
    34  H    0.155951
 Sum of Mulliken charges =  -0.00000

 Dipole moment (field-independent basis, Debye):
    X=              5.4801    Y=             -0.2769    Z=             -1.3647  Tot=              5.6542
 Quadrupole moment (field-independent basis, Debye-Ang):
   XX=            -71.1370   YY=            -95.3793   ZZ=            -91.6260
   XY=             -2.0942   XZ=             -2.3041   YZ=             -3.0611

 Normal termination of Gaussian 16 at Wed May  5 23:43:31 2021.
