 Gaussian 16, Revision A.03,
 Gaussian 16:  EM64L-G16RevA.03 25-Dec-2016

 -------------
 #p 6-31g* mp2
 -------------

 ------------------------------------------------------
 Input file generated by CHIRIPA (05-May-2021 14:55:19)
 ------------------------------------------------------
 Symbolic Z-matrix:
 Charge =  0 Multiplicity = 1

                         Standard orientation:
 ---------------------------------------------------------------------
 Center     Atomic      Atomic             Coordinates (Angstroms)
 Number     Number       Type             X           Y           Z
 ---------------------------------------------------------------------
      1          6           0        1.156950   -1.822644    0.318799
      2          6           0        1.031084   -0.628818   -0.399156
      3          6           0        2.148560    0.176024   -0.640039
      4          6           0        3.382231   -0.245243   -0.146195
      5          6           0        3.539853   -1.429271    0.572499
      6          6           0        2.408726   -2.218362    0.801484
      7          1           0        0.283566   -2.441746    0.501301
      8          1           0        0.060188   -0.319000   -0.775212
      9          1           0        2.079548    1.105017   -1.192875
     10          1           0        4.520852   -1.711798    0.934766
     11          1           0        2.509455   -3.145003    1.359369
     12          7           0        4.572479    0.598470   -0.394909
     13          8           0        5.648233    0.205117    0.050808
     14          8           0        4.407104    1.637150   -1.030859
     15          6           0       -3.712408    1.162311    0.120373
     16          6           0       -2.439959    1.177030    0.968101
     17          6           0       -1.719406    2.525029    0.929398
     18          1           0       -3.456433    1.413177   -0.918129
     19          1           0       -4.389862    1.951552    0.474704
     20          1           0       -1.765691    0.387093    0.613168
     21          1           0       -2.698966    0.925913    2.004668
     22          1           0       -2.371304    3.321184    1.303251
     23          1           0       -1.432727    2.779303   -0.096156
     24          1           0       -0.812611    2.513274    1.542134
     25          6           0       -4.443916   -0.178512    0.148950
     26          6           0       -5.716364   -0.193232   -0.698778
     27          6           0       -6.436917   -1.541229   -0.660075
     28          1           0       -3.766461   -0.967753   -0.205380
     29          1           0       -4.699891   -0.429378    1.187453
     30          1           0       -5.457357    0.057886   -1.735345
     31          1           0       -6.390633    0.596707   -0.343845
     32          1           0       -6.723596   -1.795504    0.365479
     33          1           0       -5.785019   -2.337385   -1.033927
     34          1           0       -7.343712   -1.529475   -1.272811
 ---------------------------------------------------------------------

 SCF Done:  E(RHF) =  -669.535385451     A.U. after   15 cycles
 E2 =    -0.2091449390D+01 EUMP2 =    -0.67162683484040D+03

 The electronic state is 1-A.
 Alpha  occ. eigenvalues --  -20.60761 -20.60756 -15.85815 -11.31188 -11.27762
 Alpha  occ. eigenvalues --  -11.27756 -11.27506 -11.26774 -11.26756 -11.22433
 Alpha  occ. eigenvalues --  -11.22214 -11.22146 -11.22090 -11.21723 -11.21621
 Alpha  occ. eigenvalues --   -1.59837  -1.39390  -1.19364  -1.09162  -1.08757
 Alpha  occ. eigenvalues --   -1.04770  -1.04211  -0.96641  -0.95590  -0.87654
 Alpha  occ. eigenvalues --   -0.86170  -0.82422  -0.80283  -0.78979  -0.77468
 Alpha  occ. eigenvalues --   -0.72034  -0.71160  -0.70469  -0.65856  -0.65016
 Alpha  occ. eigenvalues --   -0.64766  -0.62193  -0.61541  -0.60001  -0.58250
 Alpha  occ. eigenvalues --   -0.55939  -0.55264  -0.53319  -0.53089  -0.53056
 Alpha  occ. eigenvalues --   -0.52867  -0.50589  -0.48806  -0.48788  -0.48572
 Alpha  occ. eigenvalues --   -0.47324  -0.46504  -0.46446  -0.44794  -0.44467
 Alpha  occ. eigenvalues --   -0.37338  -0.36360
 Alpha virt. eigenvalues --    0.05067   0.11177   0.16529   0.19480   0.22702
 Alpha virt. eigenvalues --    0.23716   0.25394   0.26403   0.27162   0.28315
 Alpha virt. eigenvalues --    0.28878   0.30501   0.31093   0.31240   0.31932

 Mulliken charges:
               1
     1  C   -0.171639
     2  C   -0.218687
     3  C   -0.171864
     4  C    0.158430
     5  C   -0.170855
     6  C   -0.218623
     7  H    0.225843
     8  H    0.226539
     9  H    0.275896
    10  H    0.275665
    11  H    0.223503
    12  N    0.488064
    13  O   -0.460456
    14  O   -0.460300
    15  C   -0.298998
    16  C   -0.302665
    17  C   -0.476825
    18  H    0.148712
    19  H    0.153539
    20  H    0.142233
    21  H    0.155394
    22  H    0.159473
    23  H    0.152714
    24  H    0.164830
    25  C   -0.297084
    26  C   -0.300082
    27  C   -0.475951
    28  H    0.142694
    29  H    0.151296
    30  H    0.152584
    31  H    0.154239
    32  H    0.155926
    33  H    0.153929
    34  H    0.162524
 Sum of Mulliken charges =  -0.00000

 Dipole moment (field-independent basis, Debye):
    X=             -4.3175    Y=             -2.9011    Z=              0.9360  Tot=              5.2852
 Quadrupole moment (field-independent basis, Debye-Ang):
   XX=           -121.3940   YY=            -92.0427   ZZ=            -93.7091
   XY=            -12.2054   XZ=              4.6459   YZ=             -1.4032

 Normal termination of Gaussian 16 at Thu May  6 07:41:46 2021.
