 Gaussian 16, Revision A.03,
 Gaussian 16:  EM64L-G16RevA.03 25-Dec-2016

 -------------
 #p 6-31g* mp2
 -------------

 ------------------------------------------------------
 Input file generated by CHIRIPA (05-May-2021 14:51:10)
 ------------------------------------------------------
 Symbolic Z-matrix:
 Charge =  0 Multiplicity = 1

                         Standard orientation:
 ---------------------------------------------------------------------
 Center     Atomic      Atomic             Coordinates (Angstroms)
 Number     Number       Type             X           Y           Z
 ---------------------------------------------------------------------
      1          6           0        1.928462    1.143114   -0.032266
      2          6           0        2.372077    2.089024    1.084177
      3          6           0        1.551743    3.378597    1.127163
      4          1           0        2.007951    1.662270   -0.997203
      5          1           0        0.865981    0.898515    0.104479
      6          1           0        3.433762    2.330667    0.946155
      7          1           0        2.291704    1.567493    2.046550
      8          1           0        0.492019    3.155860    1.288330
      9          1           0        1.640566    3.923371    0.181683
     10          1           0        1.885672    4.040170    1.932566
     11          6           0        2.739137   -0.150493   -0.088075
     12          6           0        2.295522   -1.096403   -1.204518
     13          6           0        3.115856   -2.385976   -1.247504
     14          1           0        3.801619    0.094105   -0.224820
     15          1           0        2.659648   -0.669649    0.876862
     16          1           0        2.375895   -0.574872   -2.166890
     17          1           0        1.233837   -1.338047   -1.066495
     18          1           0        3.027033   -2.930751   -0.302024
     19          1           0        4.175580   -2.163240   -1.408671
     20          1           0        2.781927   -3.047549   -2.052906
     21          6           0       -1.869927   -1.103147    0.062077
     22          6           0       -2.086932   -2.028499    1.259831
     23          6           0       -1.151552   -3.237942    1.249580
     24          1           0       -2.016206   -1.673759   -0.865258
     25          1           0       -0.825948   -0.760401    0.056797
     26          1           0       -3.130551   -2.368298    1.263634
     27          1           0       -1.940308   -1.455572    2.184424
     28          1           0       -0.105345   -2.915996    1.269685
     29          1           0       -1.302350   -3.833908    0.343663
     30          1           0       -1.323770   -3.886002    2.114577
     31          6           0       -2.797672    0.110526    0.058264
     32          6           0       -2.580666    1.035879   -1.139490
     33          6           0       -3.516047    2.245322   -1.129240
     34          1           0       -3.841651   -0.232220    0.063544
     35          1           0       -2.651393    0.681138    0.985600
     36          1           0       -2.727291    0.462951   -2.064083
     37          1           0       -1.537049    1.375677   -1.143293
     38          1           0       -3.365248    2.841287   -0.223322
     39          1           0       -4.562253    1.923376   -1.149344
     40          1           0       -3.343830    2.893381   -1.994236
 ---------------------------------------------------------------------

 SCF Done:  E(RHF) =  -470.732695585     A.U. after   11 cycles
 E2 =    -0.1584938750D+01 EUMP2 =    -0.47231763433513D+03

 The electronic state is 1-A.
 Alpha  occ. eigenvalues --  -11.21658 -11.21658 -11.21592 -11.21555 -11.21451
 Alpha  occ. eigenvalues --  -11.21440 -11.21390 -11.21380 -11.21138 -11.21131
 Alpha  occ. eigenvalues --  -11.21066 -11.21050  -1.08526  -1.08426  -1.03578
 Alpha  occ. eigenvalues --   -1.03536  -0.96031  -0.95994  -0.87040  -0.87015
 Alpha  occ. eigenvalues --   -0.79665  -0.79578  -0.78517  -0.78089  -0.65435
 Alpha  occ. eigenvalues --   -0.64814  -0.61069  -0.60853  -0.59415  -0.59337
 Alpha  occ. eigenvalues --   -0.57650  -0.57596  -0.55417  -0.55200  -0.52721
 Alpha  occ. eigenvalues --   -0.52685  -0.52453  -0.52419  -0.49968  -0.49955
 Alpha  occ. eigenvalues --   -0.48069  -0.47829  -0.46787  -0.46603  -0.46578
 Alpha  occ. eigenvalues --   -0.45791  -0.45784  -0.44831  -0.43822  -0.43799
 Alpha virt. eigenvalues --    0.19809   0.21713   0.24141   0.24957   0.25271
 Alpha virt. eigenvalues --    0.26443   0.27019   0.27473   0.28350   0.30337
 Alpha virt. eigenvalues --    0.30735   0.31441   0.31627   0.31992   0.32281

 Mulliken charges:
               1
     1  C   -0.308542
     2  C   -0.299036
     3  C   -0.475961
     4  H    0.150152
     5  H    0.157962
     6  H    0.152418
     7  H    0.151733
     8  H    0.154559
     9  H    0.155553
    10  H    0.160669
    11  C   -0.298068
    12  C   -0.307327
    13  C   -0.475429
    14  H    0.150023
    15  H    0.148754
    16  H    0.151812
    17  H    0.159790
    18  H    0.155201
    19  H    0.154923
    20  H    0.160452
    21  C   -0.311087
    22  C   -0.298878
    23  C   -0.477100
    24  H    0.149915
    25  H    0.161167
    26  H    0.152367
    27  H    0.151488
    28  H    0.155409
    29  H    0.155717
    30  H    0.160720
    31  C   -0.297148
    32  C   -0.303997
    33  C   -0.475470
    34  H    0.149892
    35  H    0.148682
    36  H    0.152005
    37  H    0.156063
    38  H    0.155058
    39  H    0.155075
    40  H    0.160485
 Sum of Mulliken charges =  -0.00000

 Dipole moment (field-independent basis, Debye):
    X=             -0.0060    Y=             -0.0008    Z=             -0.0139  Tot=              0.0151
 Quadrupole moment (field-independent basis, Debye-Ang):
   XX=            -84.5264   YY=            -86.0792   ZZ=            -84.1184
   XY=              1.7920   XZ=             -0.0403   YZ=             -0.0363

 Normal termination of Gaussian 16 at Thu May  6 02:14:03 2021.
