 Gaussian 16, Revision A.03,
 Gaussian 16:  EM64L-G16RevA.03 25-Dec-2016

 -------------
 #p 6-31g* mp2
 -------------

 ------------------------------------------------------
 Input file generated by CHIRIPA (05-May-2021 14:51:13)
 ------------------------------------------------------
 Symbolic Z-matrix:
 Charge =  0 Multiplicity = 1

                         Standard orientation:
 ---------------------------------------------------------------------
 Center     Atomic      Atomic             Coordinates (Angstroms)
 Number     Number       Type             X           Y           Z
 ---------------------------------------------------------------------
      1          6           0        2.117030   -0.797264    0.421952
      2          6           0        1.763962   -2.248484    0.749500
      3          6           0        0.370560   -2.394119    1.361885
      4          1           0        2.053066   -0.195148    1.338637
      5          1           0        1.366738   -0.392138   -0.271106
      6          1           0        2.515467   -2.651184    1.440651
      7          1           0        1.828960   -2.847252   -0.168034
      8          1           0       -0.393756   -2.018293    0.674007
      9          1           0        0.296651   -1.821110    2.291832
     10          1           0        0.138767   -3.439539    1.588220
     11          6           0        3.506967   -0.635451   -0.190926
     12          6           0        3.860035    0.815769   -0.518474
     13          6           0        5.253437    0.961404   -1.130859
     14          1           0        4.257259   -1.040577    0.502132
     15          1           0        3.570931   -1.237566   -1.107610
     16          1           0        3.795037    1.414537    0.399060
     17          1           0        3.108530    1.218469   -1.209625
     18          1           0        5.327346    0.388396   -2.060805
     19          1           0        6.017753    0.585578   -0.442981
     20          1           0        5.485230    2.006825   -1.357194
     21          6           0       -2.791645    1.432611    0.149060
     22          6           0       -1.372409    1.960389    0.361665
     23          6           0       -1.348169    3.394539    0.891210
     24          1           0       -3.320354    2.092842   -0.552016
     25          1           0       -3.340262    1.482730    1.099799
     26          1           0       -0.826201    1.907998   -0.588877
     27          1           0       -0.846954    1.298717    1.062168
     28          1           0       -1.869087    3.459305    1.851966
     29          1           0       -1.848215    4.072048    0.191541
     30          1           0       -0.323825    3.751804    1.035927
     31          6           0       -2.832352    0.000104   -0.380086
     32          6           0       -4.251588   -0.527674   -0.592691
     33          6           0       -4.275828   -1.961825   -1.122237
     34          1           0       -2.283735   -0.050015   -1.330824
     35          1           0       -2.303642   -0.660127    0.320990
     36          1           0       -4.777042    0.133998   -1.293194
     37          1           0       -4.797796   -0.475283    0.357850
     38          1           0       -3.775782   -2.639332   -0.422568
     39          1           0       -3.754910   -2.026589   -2.082992
     40          1           0       -5.300172   -2.319088   -1.266953
 ---------------------------------------------------------------------

 SCF Done:  E(RHF) =  -470.733291352     A.U. after   11 cycles
 E2 =    -0.1583537427D+01 EUMP2 =    -0.47231682877911D+03

 The electronic state is 1-A.
 Alpha  occ. eigenvalues --  -11.21598 -11.21592 -11.21590 -11.21561 -11.21391
 Alpha  occ. eigenvalues --  -11.21381 -11.21331 -11.21317 -11.21070 -11.21065
 Alpha  occ. eigenvalues --  -11.21057 -11.21047  -1.08439  -1.08396  -1.03521
 Alpha  occ. eigenvalues --   -1.03514  -0.95993  -0.95948  -0.87018  -0.86958
 Alpha  occ. eigenvalues --   -0.79597  -0.79577  -0.78359  -0.78099  -0.65083
 Alpha  occ. eigenvalues --   -0.65019  -0.60958  -0.60875  -0.59357  -0.59318
 Alpha  occ. eigenvalues --   -0.57674  -0.57496  -0.55340  -0.55186  -0.52672
 Alpha  occ. eigenvalues --   -0.52658  -0.52508  -0.52292  -0.50002  -0.49840
 Alpha  occ. eigenvalues --   -0.47963  -0.47889  -0.46733  -0.46567  -0.46062
 Alpha  occ. eigenvalues --   -0.45763  -0.45644  -0.45247  -0.43777  -0.43764
 Alpha virt. eigenvalues --    0.21269   0.23055   0.23839   0.24016   0.25375
 Alpha virt. eigenvalues --    0.25930   0.26875   0.27961   0.28365   0.29697
 Alpha virt. eigenvalues --    0.30551   0.31656   0.31703   0.31834   0.32118

 Mulliken charges:
               1
     1  C   -0.300546
     2  C   -0.299090
     3  C   -0.483445
     4  H    0.149370
     5  H    0.153044
     6  H    0.151720
     7  H    0.151946
     8  H    0.162859
     9  H    0.154139
    10  H    0.160150
    11  C   -0.298423
    12  C   -0.299475
    13  C   -0.475694
    14  H    0.149402
    15  H    0.149530
    16  H    0.151844
    17  H    0.151840
    18  H    0.155125
    19  H    0.155176
    20  H    0.160183
    21  C   -0.297654
    22  C   -0.302086
    23  C   -0.475842
    24  H    0.149446
    25  H    0.149467
    26  H    0.151421
    27  H    0.155567
    28  H    0.154985
    29  H    0.154953
    30  H    0.160465
    31  C   -0.306590
    32  C   -0.298846
    33  C   -0.476285
    34  H    0.148143
    35  H    0.158359
    36  H    0.151894
    37  H    0.152048
    38  H    0.155678
    39  H    0.154820
    40  H    0.160399
 Sum of Mulliken charges =  -0.00000

 Dipole moment (field-independent basis, Debye):
    X=             -0.0085    Y=             -0.0028    Z=              0.0046  Tot=              0.0100
 Quadrupole moment (field-independent basis, Debye-Ang):
   XX=            -85.6824   YY=            -85.8420   ZZ=            -83.3513
   XY=             -0.3598   XZ=              0.6886   YZ=             -0.4737

 Normal termination of Gaussian 16 at Wed May  5 19:57:37 2021.
