 Gaussian 16, Revision A.03,
 Gaussian 16:  EM64L-G16RevA.03 25-Dec-2016

 -------------
 #p 6-31g* mp2
 -------------

 ------------------------------------------------------
 Input file generated by CHIRIPA (05-May-2021 14:55:24)
 ------------------------------------------------------
 Symbolic Z-matrix:
 Charge =  0 Multiplicity = 1

                         Standard orientation:
 ---------------------------------------------------------------------
 Center     Atomic      Atomic             Coordinates (Angstroms)
 Number     Number       Type             X           Y           Z
 ---------------------------------------------------------------------
      1          6           0       -1.414636   -1.600108    2.184562
      2          6           0       -1.251550   -2.299685    0.984347
      3          6           0       -1.549331   -1.690868   -0.238443
      4          6           0       -2.010175   -0.375305   -0.224065
      5          6           0       -2.183043    0.347997    0.955020
      6          6           0       -1.879044   -0.280825    2.166100
      7          1           0       -1.180898   -2.080822    3.129906
      8          1           0       -0.891056   -3.324362    0.995653
      9          1           0       -1.432234   -2.209255   -1.182361
     10          1           0       -2.544209    1.368345    0.911811
     11          1           0       -2.006659    0.264908    3.096656
     12          7           0       -2.328714    0.279812   -1.512379
     13          8           0       -2.733191    1.439753   -1.472747
     14          8           0       -2.167876   -0.379054   -2.537398
     15          6           0        2.467073    1.375796    0.107626
     16          6           0        1.096253    1.859289    0.582044
     17          6           0        1.034444    3.376305    0.762690
     18          1           0        3.230882    1.691732    0.831314
     19          1           0        2.713590    1.869481   -0.842584
     20          1           0        0.851786    1.363793    1.530377
     21          1           0        0.335595    1.541999   -0.142760
     22          1           0        1.252836    3.885896   -0.181356
     23          1           0        1.771960    3.706678    1.501287
     24          1           0        0.045685    3.700219    1.102240
     25          6           0        2.544577   -0.138608   -0.077585
     26          6           0        3.915397   -0.622102   -0.552003
     27          6           0        3.977206   -2.139119   -0.732649
     28          1           0        2.298061   -0.632293    0.872625
     29          1           0        1.780768   -0.454545   -0.801273
     30          1           0        4.676056   -0.304812    0.172801
     31          1           0        4.159864   -0.126606   -1.500336
     32          1           0        3.239690   -2.469491   -1.471246
     33          1           0        3.758816   -2.648709    0.211397
     34          1           0        4.965967   -2.463031   -1.072199
 ---------------------------------------------------------------------

 SCF Done:  E(RHF) =  -669.534808641     A.U. after   15 cycles
 E2 =    -0.2094516892D+01 EUMP2 =    -0.67162932553366D+03

 The electronic state is 1-A.
 Alpha  occ. eigenvalues --  -20.60857 -20.60836 -15.85888 -11.31185 -11.27801
 Alpha  occ. eigenvalues --  -11.27773 -11.27544 -11.26797 -11.26781 -11.21669
 Alpha  occ. eigenvalues --  -11.21506 -11.21417 -11.21324 -11.21246 -11.21016
 Alpha  occ. eigenvalues --   -1.59920  -1.39474  -1.19395  -1.08800  -1.08440
 Alpha  occ. eigenvalues --   -1.04797  -1.03554  -0.96014  -0.95637  -0.87029
 Alpha  occ. eigenvalues --   -0.86198  -0.82470  -0.79633  -0.78271  -0.77516
 Alpha  occ. eigenvalues --   -0.72109  -0.71250  -0.70513  -0.65096  -0.65026
 Alpha  occ. eigenvalues --   -0.64797  -0.62147  -0.60950  -0.59404  -0.57639
 Alpha  occ. eigenvalues --   -0.55311  -0.55291  -0.53236  -0.52889  -0.52655
 Alpha  occ. eigenvalues --   -0.52438  -0.49953  -0.48872  -0.48863  -0.47948
 Alpha  occ. eigenvalues --   -0.46669  -0.45752  -0.45728  -0.44858  -0.43805
 Alpha  occ. eigenvalues --   -0.37320  -0.36310
 Alpha virt. eigenvalues --    0.04992   0.11168   0.16461   0.21164   0.22842
 Alpha virt. eigenvalues --    0.24015   0.26295   0.26956   0.27200   0.27762
 Alpha virt. eigenvalues --    0.28648   0.30552   0.31331   0.31653   0.31703

 Mulliken charges:
               1
     1  C   -0.171247
     2  C   -0.217237
     3  C   -0.170798
     4  C    0.157792
     5  C   -0.166542
     6  C   -0.217644
     7  H    0.225669
     8  H    0.223841
     9  H    0.275525
    10  H    0.275480
    11  H    0.223447
    12  N    0.488769
    13  O   -0.460184
    14  O   -0.460494
    15  C   -0.298801
    16  C   -0.301985
    17  C   -0.474474
    18  H    0.147717
    19  H    0.152599
    20  H    0.148052
    21  H    0.154588
    22  H    0.160127
    23  H    0.152741
    24  H    0.156613
    25  C   -0.298148
    26  C   -0.299663
    27  C   -0.475388
    28  H    0.145672
    29  H    0.150813
    30  H    0.151226
    31  H    0.154564
    32  H    0.155044
    33  H    0.151140
    34  H    0.161186
 Sum of Mulliken charges =  -0.00000

 Dipole moment (field-independent basis, Debye):
    X=              1.0562    Y=             -2.3037    Z=              4.4906  Tot=              5.1564
 Quadrupole moment (field-independent basis, Debye-Ang):
   XX=            -99.7852   YY=            -90.9637   ZZ=            -95.2070
   XY=              3.2773   XZ=            -10.0912   YZ=              0.6374

 Normal termination of Gaussian 16 at Thu May  6 19:18:53 2021.
