 Gaussian 16, Revision A.03,
 Gaussian 16:  EM64L-G16RevA.03 25-Dec-2016

 -------------
 #p 6-31g* mp2
 -------------

 ------------------------------------------------------
 Input file generated by CHIRIPA (05-May-2021 14:53:14)
 ------------------------------------------------------
 Symbolic Z-matrix:
 Charge =  0 Multiplicity = 1

                         Standard orientation:
 ---------------------------------------------------------------------
 Center     Atomic      Atomic             Coordinates (Angstroms)
 Number     Number       Type             X           Y           Z
 ---------------------------------------------------------------------
      1          6           0        2.741482    1.300230   -0.501508
      2          6           0        1.926164    2.322976    0.290471
      3          6           0        1.715409    3.630460   -0.473637
      4          1           0        3.715975    1.737487   -0.758638
      5          1           0        2.231551    1.092216   -1.452348
      6          1           0        2.436772    2.527960    1.240143
      7          1           0        0.953573    1.883164    0.545910
      8          1           0        1.185379    3.446147   -1.413689
      9          1           0        2.677006    4.094605   -0.715511
     10          1           0        1.130216    4.347214    0.110891
     11          6           0        2.960623   -0.012090    0.249173
     12          6           0        3.775942   -1.034836   -0.542806
     13          6           0        3.986696   -2.342321    0.221302
     14          1           0        3.470555    0.195923    1.200012
     15          1           0        1.986131   -0.449347    0.506302
     16          1           0        4.748533   -0.595025   -0.798245
     17          1           0        3.265334   -1.239820   -1.492478
     18          1           0        3.025100   -2.806466    0.463176
     19          1           0        4.516726   -2.158007    1.161354
     20          1           0        4.571889   -3.059074   -0.363226
     21          6           0       -0.953593   -2.681032    0.080150
     22          6           0       -2.058154   -2.509000   -0.760606
     23          6           0       -2.771386   -1.306567   -0.758783
     24          6           0       -2.350531   -0.292634    0.100349
     25          6           0       -1.254177   -0.433623    0.949714
     26          6           0       -0.555832   -1.644622    0.931127
     27          1           0       -0.405319   -3.618437    0.072224
     28          1           0       -2.369333   -3.312164   -1.422529
     29          1           0       -3.630160   -1.146554   -1.399347
     30          1           0       -0.967910    0.385201    1.598556
     31          1           0        0.301601   -1.775411    1.585152
     32          7           0       -3.097717    0.984863    0.111153
     33          8           0       -2.706739    1.862781    0.877332
     34          8           0       -4.060194    1.084056   -0.646764
 ---------------------------------------------------------------------

 SCF Done:  E(RHF) =  -669.534831539     A.U. after   15 cycles
 E2 =    -0.2093836760D+01 EUMP2 =    -0.67162866829886D+03

 The electronic state is 1-A.
 Alpha  occ. eigenvalues --  -20.60848 -20.60843 -15.85898 -11.31290 -11.27853
 Alpha  occ. eigenvalues --  -11.27848 -11.27593 -11.26874 -11.26849 -11.22122
 Alpha  occ. eigenvalues --  -11.21823 -11.21801 -11.21674 -11.21574 -11.20892
 Alpha  occ. eigenvalues --   -1.59920  -1.39473  -1.19468  -1.08861  -1.08754
 Alpha  occ. eigenvalues --   -1.04875  -1.03823  -0.96274  -0.95682  -0.87294
 Alpha  occ. eigenvalues --   -0.86267  -0.82521  -0.79917  -0.78600  -0.77537
 Alpha  occ. eigenvalues --   -0.72115  -0.71242  -0.70563  -0.65464  -0.65111
 Alpha  occ. eigenvalues --   -0.64855  -0.62204  -0.61214  -0.59670  -0.57874
 Alpha  occ. eigenvalues --   -0.55600  -0.55356  -0.53220  -0.53005  -0.52935
 Alpha  occ. eigenvalues --   -0.52668  -0.50227  -0.48880  -0.48870  -0.48214
 Alpha  occ. eigenvalues --   -0.46947  -0.46106  -0.45998  -0.44861  -0.44063
 Alpha  occ. eigenvalues --   -0.37432  -0.36398
 Alpha virt. eigenvalues --    0.04924   0.11005   0.16325   0.19839   0.23051
 Alpha virt. eigenvalues --    0.23426   0.25374   0.26640   0.26809   0.28283
 Alpha virt. eigenvalues --    0.29584   0.30251   0.31059   0.31494   0.32062

 Mulliken charges:
               1
     1  C   -0.297408
     2  C   -0.303956
     3  C   -0.475219
     4  H    0.150695
     5  H    0.151183
     6  H    0.150688
     7  H    0.152879
     8  H    0.157164
     9  H    0.153383
    10  H    0.166651
    11  C   -0.305410
    12  C   -0.299216
    13  C   -0.474841
    14  H    0.148550
    15  H    0.148062
    16  H    0.154983
    17  H    0.153048
    18  H    0.143767
    19  H    0.157111
    20  H    0.162752
    21  C   -0.172985
    22  C   -0.218322
    23  C   -0.170805
    24  C    0.158050
    25  C   -0.171283
    26  C   -0.219091
    27  H    0.226524
    28  H    0.224015
    29  H    0.276003
    30  H    0.278129
    31  H    0.227010
    32  N    0.488292
    33  O   -0.460501
    34  O   -0.459900
 Sum of Mulliken charges =  -0.00000

 Dipole moment (field-independent basis, Debye):
    X=              2.5767    Y=             -4.4119    Z=             -0.1061  Tot=              5.1103
 Quadrupole moment (field-independent basis, Debye-Ang):
   XX=           -104.9076   YY=            -92.5937   ZZ=            -92.7837
   XY=             11.8252   XZ=              2.9733   YZ=              1.6193

 Normal termination of Gaussian 16 at Thu May  6 12:07:17 2021.
