 Gaussian 16, Revision A.03,
 Gaussian 16:  EM64L-G16RevA.03 25-Dec-2016

 -------------
 #p 6-31g* mp2
 -------------

 ------------------------------------------------------
 Input file generated by CHIRIPA (05-May-2021 14:55:24)
 ------------------------------------------------------
 Symbolic Z-matrix:
 Charge =  0 Multiplicity = 1

                         Standard orientation:
 ---------------------------------------------------------------------
 Center     Atomic      Atomic             Coordinates (Angstroms)
 Number     Number       Type             X           Y           Z
 ---------------------------------------------------------------------
      1          6           0       -3.936146    1.587216   -1.325166
      2          6           0       -3.186348    2.207470   -0.320373
      3          6           0       -2.460734    1.443237    0.598311
      4          6           0       -2.507588    0.054835    0.482406
      5          6           0       -3.245229   -0.592575   -0.507562
      6          6           0       -3.963146    0.191634   -1.415395
      7          1           0       -4.496831    2.188650   -2.034607
      8          1           0       -3.163534    3.291108   -0.247895
      9          1           0       -1.871971    1.897444    1.386011
     10          1           0       -3.248526   -1.674798   -0.554465
     11          1           0       -4.544579   -0.292786   -2.194701
     12          7           0       -1.743487   -0.764799    1.449231
     13          8           0       -1.801182   -1.986295    1.325719
     14          8           0       -1.101358   -0.170211    2.312234
     15          6           0        2.654668   -0.484364   -0.302952
     16          6           0        2.232361   -1.592643   -1.268021
     17          6           0        0.796999   -2.064785   -1.034328
     18          1           0        2.549521   -0.845883    0.729129
     19          1           0        1.966377    0.365701   -0.408028
     20          1           0        2.922071   -2.439818   -1.162143
     21          1           0        2.338707   -1.228507   -2.297930
     22          1           0        0.093402   -1.235451   -1.159849
     23          1           0        0.680079   -2.453644   -0.017608
     24          1           0        0.515910   -2.857168   -1.735026
     25          6           0        4.087145   -0.001832   -0.524085
     26          6           0        4.509452    1.106447    0.440984
     27          6           0        5.944814    1.578590    0.207292
     28          1           0        4.775437   -0.851896   -0.419009
     29          1           0        4.192291    0.359688   -1.556167
     30          1           0        4.403106    0.742312    1.470893
     31          1           0        3.819743    1.953623    0.335106
     32          1           0        6.061734    1.967449   -0.809428
     33          1           0        6.648412    0.749255    0.332811
     34          1           0        6.225903    2.370973    0.907990
 ---------------------------------------------------------------------

 SCF Done:  E(RHF) =  -669.535890662     A.U. after   15 cycles
 E2 =    -0.2092374556D+01 EUMP2 =    -0.67162826521877D+03

 The electronic state is 1-A.
 Alpha  occ. eigenvalues --  -20.60837 -20.60831 -15.85854 -11.31230 -11.27794
 Alpha  occ. eigenvalues --  -11.27787 -11.27538 -11.26810 -11.26798 -11.21174
 Alpha  occ. eigenvalues --  -11.20978 -11.20907 -11.20741 -11.20734 -11.20261
 Alpha  occ. eigenvalues --   -1.59889  -1.39445  -1.19400  -1.08795  -1.07891
 Alpha  occ. eigenvalues --   -1.04799  -1.02994  -0.95633  -0.95432  -0.86454
 Alpha  occ. eigenvalues --   -0.86196  -0.82464  -0.79069  -0.77698  -0.77501
 Alpha  occ. eigenvalues --   -0.72091  -0.71200  -0.70503  -0.65052  -0.64801
 Alpha  occ. eigenvalues --   -0.64525  -0.62143  -0.60394  -0.58820  -0.57048
 Alpha  occ. eigenvalues --   -0.55302  -0.54731  -0.53125  -0.52889  -0.52142
 Alpha  occ. eigenvalues --   -0.51864  -0.49379  -0.48854  -0.48837  -0.47399
 Alpha  occ. eigenvalues --   -0.46103  -0.45274  -0.45164  -0.44693  -0.43247
 Alpha  occ. eigenvalues --   -0.37367  -0.36398
 Alpha virt. eigenvalues --    0.04994   0.11217   0.16470   0.21382   0.23361
 Alpha virt. eigenvalues --    0.24753   0.27134   0.27268   0.27877   0.28219
 Alpha virt. eigenvalues --    0.28547   0.30947   0.31763   0.32179   0.32489

 Mulliken charges:
               1
     1  C   -0.170737
     2  C   -0.218707
     3  C   -0.171677
     4  C    0.158227
     5  C   -0.170419
     6  C   -0.218678
     7  H    0.225755
     8  H    0.223566
     9  H    0.275852
    10  H    0.276683
    11  H    0.223760
    12  N    0.490169
    13  O   -0.458516
    14  O   -0.459928
    15  C   -0.298820
    16  C   -0.299584
    17  C   -0.481431
    18  H    0.158931
    19  H    0.145358
    20  H    0.151316
    21  H    0.146620
    22  H    0.143614
    23  H    0.177726
    24  H    0.155173
    25  C   -0.297942
    26  C   -0.299135
    27  C   -0.475420
    28  H    0.149240
    29  H    0.146614
    30  H    0.155080
    31  H    0.149706
    32  H    0.153335
    33  H    0.155139
    34  H    0.159129
 Sum of Mulliken charges =  -0.00000

 Dipole moment (field-independent basis, Debye):
    X=             -2.8251    Y=              2.8027    Z=             -3.2276  Tot=              5.1238
 Quadrupole moment (field-independent basis, Debye-Ang):
   XX=            -82.6597   YY=            -90.7231   ZZ=            -97.4268
   XY=             -6.8587   XZ=              8.9211   YZ=              2.6608

 Normal termination of Gaussian 16 at Wed May  5 17:37:27 2021.
