 Gaussian 16, Revision A.03,
 Gaussian 16:  EM64L-G16RevA.03 25-Dec-2016

 -------------
 #p 6-31g* mp2
 -------------

 ------------------------------------------------------
 Input file generated by CHIRIPA (05-May-2021 14:51:10)
 ------------------------------------------------------
 Symbolic Z-matrix:
 Charge =  0 Multiplicity = 1

                         Standard orientation:
 ---------------------------------------------------------------------
 Center     Atomic      Atomic             Coordinates (Angstroms)
 Number     Number       Type             X           Y           Z
 ---------------------------------------------------------------------
      1          6           0       -4.103540   -0.029025   -0.221492
      2          6           0       -5.513476   -0.524780    0.101450
      3          6           0       -6.603436    0.412400   -0.419581
      4          1           0       -3.965773    0.971758    0.210248
      5          1           0       -4.002248    0.083422   -1.309835
      6          1           0       -5.611634   -0.637581    1.188767
      7          1           0       -5.647837   -1.524579   -0.330945
      8          1           0       -6.534063    0.516930   -1.507176
      9          1           0       -6.497654    1.408968    0.021171
     10          1           0       -7.603369    0.038883   -0.177753
     11          6           0       -3.003031   -0.955299    0.292923
     12          6           0       -1.593094   -0.459543   -0.030019
     13          6           0       -0.503134   -1.396724    0.491012
     14          1           0       -3.104322   -1.067746    1.381266
     15          1           0       -3.140798   -1.956082   -0.138817
     16          1           0       -1.458733    0.540255    0.402376
     17          1           0       -1.494937   -0.346743   -1.117335
     18          1           0       -0.608917   -2.393292    0.050261
     19          1           0       -0.572508   -1.501254    1.578607
     20          1           0        0.496798   -1.023207    0.249184
     21          6           0        4.285594    0.286512   -0.105468
     22          6           0        4.489843   -1.228557   -0.134304
     23          6           0        5.960084   -1.624293   -0.274233
     24          1           0        4.698440    0.723326   -1.025085
     25          1           0        4.861571    0.711334    0.728302
     26          1           0        3.912549   -1.650558   -0.966927
     27          1           0        4.076290   -1.661836    0.785402
     28          1           0        6.546306   -1.230598    0.562396
     29          1           0        6.381634   -1.219257   -1.199890
     30          1           0        6.083148   -2.711662   -0.292731
     31          6           0        2.820978    0.697811    0.034037
     32          6           0        2.616727    2.212881    0.062873
     33          6           0        1.146487    2.608617    0.202802
     34          1           0        2.245000    0.272990   -0.799733
     35          1           0        2.408130    0.260997    0.953654
     36          1           0        3.030280    2.646159   -0.856834
     37          1           0        3.194022    2.634882    0.895496
     38          1           0        0.724936    2.203580    1.128459
     39          1           0        0.560264    2.214922   -0.633828
     40          1           0        1.023423    3.695986    0.221299
 ---------------------------------------------------------------------

 SCF Done:  E(RHF) =  -470.732291533     A.U. after   11 cycles
 E2 =    -0.1584013888D+01 EUMP2 =    -0.47231630542056D+03

 The electronic state is 1-A.
 Alpha  occ. eigenvalues --  -11.21641 -11.21619 -11.21552 -11.21460 -11.21442
 Alpha  occ. eigenvalues --  -11.21382 -11.21327 -11.21262 -11.21083 -11.21083
 Alpha  occ. eigenvalues --  -11.21033 -11.20824  -1.08484  -1.08339  -1.03573
 Alpha  occ. eigenvalues --   -1.03420  -0.96016  -0.95882  -0.87062  -0.86875
 Alpha  occ. eigenvalues --   -0.79634  -0.79503  -0.78324  -0.78156  -0.65107
 Alpha  occ. eigenvalues --   -0.64975  -0.60963  -0.60831  -0.59522  -0.59153
 Alpha  occ. eigenvalues --   -0.57655  -0.57483  -0.55297  -0.55172  -0.52841
 Alpha  occ. eigenvalues --   -0.52660  -0.52415  -0.52176  -0.49957  -0.49821
 Alpha  occ. eigenvalues --   -0.47940  -0.47798  -0.46654  -0.46525  -0.45801
 Alpha  occ. eigenvalues --   -0.45763  -0.45677  -0.45594  -0.43824  -0.43599
 Alpha virt. eigenvalues --    0.21712   0.23101   0.23547   0.25052   0.25918
 Alpha virt. eigenvalues --    0.26384   0.26641   0.27058   0.28278   0.29466
 Alpha virt. eigenvalues --    0.30558   0.31142   0.31471   0.31723   0.32513

 Mulliken charges:
               1
     1  C   -0.298179
     2  C   -0.299536
     3  C   -0.475644
     4  H    0.149665
     5  H    0.149139
     6  H    0.151786
     7  H    0.151800
     8  H    0.155049
     9  H    0.155137
    10  H    0.160056
    11  C   -0.298014
    12  C   -0.301928
    13  C   -0.485972
    14  H    0.149081
    15  H    0.149208
    16  H    0.156238
    17  H    0.149823
    18  H    0.153600
    19  H    0.152818
    20  H    0.172788
    21  C   -0.297012
    22  C   -0.300456
    23  C   -0.475634
    24  H    0.149611
    25  H    0.149591
    26  H    0.152059
    27  H    0.152553
    28  H    0.155220
    29  H    0.155165
    30  H    0.160490
    31  C   -0.304406
    32  C   -0.299120
    33  C   -0.478968
    34  H    0.151566
    35  H    0.153455
    36  H    0.151957
    37  H    0.151923
    38  H    0.156093
    39  H    0.158780
    40  H    0.160217
 Sum of Mulliken charges =  -0.00000

 Dipole moment (field-independent basis, Debye):
    X=              0.0855    Y=              0.0446    Z=             -0.0020  Tot=              0.0965
 Quadrupole moment (field-independent basis, Debye-Ang):
   XX=            -86.7071   YY=            -85.1071   ZZ=            -83.0540
   XY=              0.9053   XZ=             -0.0548   YZ=              0.6166

 Normal termination of Gaussian 16 at Wed May  5 18:11:40 2021.
