 Gaussian 16, Revision A.03,
 Gaussian 16:  EM64L-G16RevA.03 25-Dec-2016

 -------------
 #p 6-31g* mp2
 -------------

 ------------------------------------------------------
 Input file generated by CHIRIPA (05-May-2021 14:55:22)
 ------------------------------------------------------
 Symbolic Z-matrix:
 Charge =  0 Multiplicity = 1

                         Standard orientation:
 ---------------------------------------------------------------------
 Center     Atomic      Atomic             Coordinates (Angstroms)
 Number     Number       Type             X           Y           Z
 ---------------------------------------------------------------------
      1          6           0       -1.059928   -0.092485    0.667145
      2          6           0       -1.482918    0.391789   -0.575063
      3          6           0       -2.831792    0.333524   -0.937955
      4          6           0       -3.734671   -0.217926   -0.030209
      5          6           0       -3.344161   -0.708718    1.214747
      6          6           0       -1.990259   -0.640227    1.556517
      7          1           0       -0.010137   -0.043252    0.940844
      8          1           0       -0.762633    0.817701   -1.267763
      9          1           0       -3.186545    0.701111   -1.893177
     10          1           0       -4.085599   -1.127714    1.884172
     11          1           0       -1.664620   -1.017088    2.521908
     12          7           0       -5.165325   -0.285021   -0.403206
     13          8           0       -5.940988   -0.775556    0.414327
     14          8           0       -5.483920    0.154196   -1.506031
     15          6           0        4.772213   -0.340730   -0.401338
     16          6           0        6.160392   -0.734349    0.104633
     17          6           0        6.734574   -1.947397   -0.627913
     18          1           0        4.091514   -1.195526   -0.287680
     19          1           0        4.828850   -0.127232   -1.477724
     20          1           0        6.101430   -0.945700    1.180026
     21          1           0        6.837818    0.121545   -0.010067
     22          1           0        6.822230   -1.744004   -1.700083
     23          1           0        6.081657   -2.817313   -0.503229
     24          1           0        7.727362   -2.211463   -0.250419
     25          6           0        4.184925    0.870311    0.321298
     26          6           0        2.796746    1.263930   -0.184673
     27          6           0        2.222564    2.476978    0.547873
     28          1           0        4.128287    0.656813    1.397684
     29          1           0        4.865624    1.725106    0.207639
     30          1           0        2.119320    0.408035   -0.069974
     31          1           0        2.855709    1.475280   -1.260066
     32          1           0        2.875481    3.346894    0.423189
     33          1           0        2.134908    2.273585    1.620043
     34          1           0        1.229777    2.741044    0.170379
 ---------------------------------------------------------------------

 SCF Done:  E(RHF) =  -669.535484679     A.U. after   15 cycles
 E2 =    -0.2091527346D+01 EUMP2 =    -0.67162701202521D+03

 The electronic state is 1-A.
 Alpha  occ. eigenvalues --  -20.60729 -20.60723 -15.85782 -11.31141 -11.27714
 Alpha  occ. eigenvalues --  -11.27709 -11.27418 -11.26719 -11.26705 -11.22893
 Alpha  occ. eigenvalues --  -11.22366 -11.22265 -11.22237 -11.22176 -11.21618
 Alpha  occ. eigenvalues --   -1.59805  -1.39358  -1.19312  -1.09366  -1.08704
 Alpha  occ. eigenvalues --   -1.04717  -1.04457  -0.96874  -0.95541  -0.87883
 Alpha  occ. eigenvalues --   -0.86111  -0.82379  -0.80550  -0.79137  -0.77426
 Alpha  occ. eigenvalues --   -0.72000  -0.71128  -0.70450  -0.66004  -0.64963
 Alpha  occ. eigenvalues --   -0.64725  -0.62078  -0.61854  -0.60262  -0.58479
 Alpha  occ. eigenvalues --   -0.56183  -0.55160  -0.53578  -0.53298  -0.53028
 Alpha  occ. eigenvalues --   -0.52799  -0.50814  -0.48845  -0.48756  -0.48755
 Alpha  occ. eigenvalues --   -0.47594  -0.46676  -0.46577  -0.44765  -0.44689
 Alpha  occ. eigenvalues --   -0.37282  -0.36322
 Alpha virt. eigenvalues --    0.05105   0.11285   0.16589   0.18961   0.22436
 Alpha virt. eigenvalues --    0.23904   0.25332   0.25756   0.26678   0.27489
 Alpha virt. eigenvalues --    0.29216   0.29524   0.30810   0.31375   0.31942

 Mulliken charges:
               1
     1  C   -0.175235
     2  C   -0.222416
     3  C   -0.170900
     4  C    0.158258
     5  C   -0.170689
     6  C   -0.219351
     7  H    0.233695
     8  H    0.225072
     9  H    0.275475
    10  H    0.275369
    11  H    0.223355
    12  N    0.488059
    13  O   -0.460564
    14  O   -0.460570
    15  C   -0.298933
    16  C   -0.300313
    17  C   -0.476207
    18  H    0.148586
    19  H    0.151283
    20  H    0.152340
    21  H    0.153550
    22  H    0.156291
    23  H    0.155566
    24  H    0.162335
    25  C   -0.298021
    26  C   -0.306787
    27  C   -0.479105
    28  H    0.149775
    29  H    0.153895
    30  H    0.143160
    31  H    0.155681
    32  H    0.162223
    33  H    0.155386
    34  H    0.159735
 Sum of Mulliken charges =  -0.00000

 Dipole moment (field-independent basis, Debye):
    X=              5.3033    Y=              0.2911    Z=              1.3050  Tot=              5.4693
 Quadrupole moment (field-independent basis, Debye-Ang):
   XX=           -131.9053   YY=            -94.7566   ZZ=            -90.8165
   XY=             -0.5531   XZ=             -6.2661   YZ=             -3.3094

 Normal termination of Gaussian 16 at Wed May  5 23:54:36 2021.
