 Gaussian 16, Revision A.03,
 Gaussian 16:  EM64L-G16RevA.03 25-Dec-2016

 -------------
 #p 6-31g* mp2
 -------------

 ------------------------------------------------------
 Input file generated by CHIRIPA (05-May-2021 14:53:17)
 ------------------------------------------------------
 Symbolic Z-matrix:
 Charge =  0 Multiplicity = 1

                         Standard orientation:
 ---------------------------------------------------------------------
 Center     Atomic      Atomic             Coordinates (Angstroms)
 Number     Number       Type             X           Y           Z
 ---------------------------------------------------------------------
      1          6           0        3.588288   -0.226423    0.217934
      2          6           0        4.899405   -0.075084   -0.554110
      3          6           0        5.872301    0.894626    0.117401
      4          1           0        3.114098    0.759361    0.319518
      5          1           0        3.808832   -0.573676    1.236840
      6          1           0        4.676351    0.270455   -1.571689
      7          1           0        5.370434   -1.061372   -0.654036
      8          1           0        6.123865    0.551182    1.126045
      9          1           0        5.425838    1.890575    0.203178
     10          1           0        6.802827    0.987797   -0.451195
     11          6           0        2.605360   -1.192618   -0.440889
     12          6           0        1.294242   -1.343956    0.331155
     13          6           0        0.321346   -2.313667   -0.340357
     14          1           0        2.384815   -0.845365   -1.459796
     15          1           0        3.079550   -2.178402   -0.542474
     16          1           0        0.823213   -0.357669    0.431080
     17          1           0        1.517297   -1.689495    1.348733
     18          1           0        0.767809   -3.309616   -0.426134
     19          1           0        0.069782   -1.970223   -1.349001
     20          1           0       -0.609179   -2.406838    0.228239
     21          6           0       -3.934800   -1.459195   -0.036405
     22          6           0       -3.958058   -0.501997   -1.056087
     23          6           0       -3.122789    0.617607   -0.998103
     24          6           0       -2.272890    0.748972    0.099031
     25          6           0       -2.226617   -0.187437    1.130675
     26          6           0       -3.070677   -1.299143    1.051803
     27          1           0       -4.587071   -2.325863   -0.089561
     28          1           0       -4.628125   -0.623697   -1.902399
     29          1           0       -3.120411    1.373878   -1.773645
     30          1           0       -1.547894   -0.038735    1.961723
     31          1           0       -3.050479   -2.040919    1.845155
     32          7           0       -1.383974    1.930065    0.171473
     33          8           0       -0.644301    2.022676    1.148684
     34          8           0       -1.443750    2.740832   -0.750331
 ---------------------------------------------------------------------

 SCF Done:  E(RHF) =  -669.534474825     A.U. after   15 cycles
 E2 =    -0.2094843607D+01 EUMP2 =    -0.67162931843192D+03

 The electronic state is 1-A.
 Alpha  occ. eigenvalues --  -20.60986 -20.60976 -15.85991 -11.31273 -11.27860
 Alpha  occ. eigenvalues --  -11.27830 -11.27587 -11.26843 -11.26817 -11.21257
 Alpha  occ. eigenvalues --  -11.21123 -11.21001 -11.20852 -11.20802 -11.20583
 Alpha  occ. eigenvalues --   -1.60035  -1.39593  -1.19465  -1.08869  -1.08002
 Alpha  occ. eigenvalues --   -1.04872  -1.03158  -0.95734  -0.95592  -0.86633
 Alpha  occ. eigenvalues --   -0.86258  -0.82555  -0.79232  -0.77824  -0.77582
 Alpha  occ. eigenvalues --   -0.72220  -0.71358  -0.70569  -0.65123  -0.64866
 Alpha  occ. eigenvalues --   -0.64619  -0.62215  -0.60566  -0.59075  -0.57288
 Alpha  occ. eigenvalues --   -0.55358  -0.54931  -0.53320  -0.52944  -0.52187
 Alpha  occ. eigenvalues --   -0.51910  -0.49547  -0.48996  -0.48976  -0.47550
 Alpha  occ. eigenvalues --   -0.46317  -0.45443  -0.45312  -0.44717  -0.43407
 Alpha  occ. eigenvalues --   -0.37420  -0.36339
 Alpha virt. eigenvalues --    0.04908   0.11095   0.16320   0.21182   0.23301
 Alpha virt. eigenvalues --    0.24639   0.26872   0.27078   0.27669   0.28361
 Alpha virt. eigenvalues --    0.28773   0.30593   0.31702   0.31886   0.32857

 Mulliken charges:
               1
     1  C   -0.300791
     2  C   -0.299442
     3  C   -0.475909
     4  H    0.160870
     5  H    0.147396
     6  H    0.152100
     7  H    0.149083
     8  H    0.153946
     9  H    0.158706
    10  H    0.158419
    11  C   -0.297006
    12  C   -0.309252
    13  C   -0.478874
    14  H    0.149609
    15  H    0.146718
    16  H    0.161764
    17  H    0.147499
    18  H    0.151807
    19  H    0.154091
    20  H    0.158261
    21  C   -0.168737
    22  C   -0.218533
    23  C   -0.170766
    24  C    0.160146
    25  C   -0.167992
    26  C   -0.221635
    27  H    0.226334
    28  H    0.223853
    29  H    0.275714
    30  H    0.277282
    31  H    0.224487
    32  N    0.488045
    33  O   -0.458722
    34  O   -0.458469
 Sum of Mulliken charges =  -0.00000

 Dipole moment (field-independent basis, Debye):
    X=             -3.2933    Y=             -3.9626    Z=             -0.2365  Tot=              5.1579
 Quadrupole moment (field-independent basis, Debye-Ang):
   XX=            -81.0109   YY=           -101.2755   ZZ=            -91.0822
   XY=              6.1459   XZ=              2.1252   YZ=             -2.9752

 Normal termination of Gaussian 16 at Thu May  6 09:07:43 2021.
