 Gaussian 16, Revision A.03,
 Gaussian 16:  EM64L-G16RevA.03 25-Dec-2016

 -------------
 #p 6-31g* mp2
 -------------

 ------------------------------------------------------
 Input file generated by CHIRIPA (05-May-2021 14:57:24)
 ------------------------------------------------------
 Symbolic Z-matrix:
 Charge =  0 Multiplicity = 1

                         Standard orientation:
 ---------------------------------------------------------------------
 Center     Atomic      Atomic             Coordinates (Angstroms)
 Number     Number       Type             X           Y           Z
 ---------------------------------------------------------------------
      1          6           0        2.251923   -2.292080    0.472774
      2          6           0        3.212203   -1.778843    1.350824
      3          6           0        3.848147   -0.564396    1.076522
      4          6           0        3.497967    0.113492   -0.090153
      5          6           0        2.545255   -0.371849   -0.984622
      6          6           0        1.922096   -1.588185   -0.690096
      7          1           0        1.762872   -3.236225    0.693714
      8          1           0        3.470346   -2.323331    2.254672
      9          1           0        4.595127   -0.144116    1.738944
     10          1           0        2.308941    0.193747   -1.877748
     11          1           0        1.176703   -1.984366   -1.373818
     12          7           0        4.164445    1.400173   -0.391249
     13          8           0        3.838194    1.978125   -1.425739
     14          8           0        5.000463    1.806359    0.412943
     15          6           0       -4.043821    2.486319    0.524916
     16          6           0       -2.707453    2.089996    0.641393
     17          6           0       -2.332701    0.769616    0.375488
     18          6           0       -3.324733   -0.132271   -0.006299
     19          6           0       -4.664485    0.232078   -0.131215
     20          6           0       -5.016358    1.557733    0.139662
     21          1           0       -4.326051    3.514071    0.733408
     22          1           0       -1.950034    2.808994    0.940398
     23          1           0       -1.305447    0.435868    0.457839
     24          1           0       -5.397035   -0.507350   -0.431274
     25          1           0       -6.054967    1.862700    0.048383
     26          7           0       -2.940110   -1.532890   -0.290434
     27          8           0       -3.833075   -2.308292   -0.625102
     28          8           0       -1.752962   -1.828771   -0.173089
 ---------------------------------------------------------------------

 SCF Done:  E(RHF) =  -868.340385233     A.U. after   16 cycles
 E2 =    -0.2598646479D+01 EUMP2 =    -0.87093903171213D+03

 The electronic state is 1-A.
 Alpha  occ. eigenvalues --  -20.61487 -20.61425 -20.60573 -20.60567 -15.86497
 Alpha  occ. eigenvalues --  -15.85617 -11.31586 -11.30787 -11.28123 -11.28103
 Alpha  occ. eigenvalues --  -11.27801 -11.27333 -11.27271 -11.27078 -11.27043
 Alpha  occ. eigenvalues --  -11.26870 -11.26285 -11.26099  -1.60528  -1.59656
 Alpha  occ. eigenvalues --   -1.40091  -1.39214  -1.19731  -1.18910  -1.09176
 Alpha  occ. eigenvalues --   -1.08306  -1.05088  -1.04268  -0.96058  -0.95187
 Alpha  occ. eigenvalues --   -0.86499  -0.85644  -0.82900  -0.82023  -0.77979
 Alpha  occ. eigenvalues --   -0.77122  -0.72740  -0.71838  -0.71830  -0.70984
 Alpha  occ. eigenvalues --   -0.70830  -0.69942  -0.65387  -0.65080  -0.64530
 Alpha  occ. eigenvalues --   -0.64196  -0.62435  -0.61602  -0.55593  -0.54676
 Alpha  occ. eigenvalues --   -0.53438  -0.53173  -0.52623  -0.52308  -0.49490
 Alpha  occ. eigenvalues --   -0.49455  -0.48606  -0.48570  -0.45556  -0.44664
 Alpha  occ. eigenvalues --   -0.37695  -0.36829  -0.36682  -0.35883
 Alpha virt. eigenvalues --    0.04516   0.05376   0.10975   0.11777   0.16061
 Alpha virt. eigenvalues --    0.16950   0.21144   0.22122   0.27073   0.27730
 Alpha virt. eigenvalues --    0.28260   0.28942   0.30738   0.31758   0.32186

 Mulliken charges:
               1
     1  C   -0.170120
     2  C   -0.220087
     3  C   -0.173654
     4  C    0.156718
     5  C   -0.179235
     6  C   -0.215559
     7  H    0.233165
     8  H    0.222072
     9  H    0.272962
    10  H    0.272971
    11  H    0.238197
    12  N    0.487828
    13  O   -0.462962
    14  O   -0.462225
    15  C   -0.169914
    16  C   -0.218614
    17  C   -0.172475
    18  C    0.157277
    19  C   -0.170871
    20  C   -0.218609
    21  H    0.228014
    22  H    0.227702
    23  H    0.275935
    24  H    0.275604
    25  H    0.224769
    26  N    0.490347
    27  O   -0.457672
    28  O   -0.471564
 Sum of Mulliken charges =  -0.00000

 Dipole moment (field-independent basis, Debye):
    X=             -4.0303    Y=              0.2949    Z=              2.0576  Tot=              4.5348
 Quadrupole moment (field-independent basis, Debye-Ang):
   XX=           -107.2983   YY=           -107.5009   ZZ=           -102.3754
   XY=            -32.4174   XZ=              4.2291   YZ=              0.4523

 Normal termination of Gaussian 16 at Thu May  6 08:14:19 2021.
