 Gaussian 16, Revision A.03,
 Gaussian 16:  EM64L-G16RevA.03 25-Dec-2016

 -------------
 #p 6-31g* mp2
 -------------

 ------------------------------------------------------
 Input file generated by CHIRIPA (05-May-2021 14:53:14)
 ------------------------------------------------------
 Symbolic Z-matrix:
 Charge =  0 Multiplicity = 1

                         Standard orientation:
 ---------------------------------------------------------------------
 Center     Atomic      Atomic             Coordinates (Angstroms)
 Number     Number       Type             X           Y           Z
 ---------------------------------------------------------------------
      1          6           0       -2.513598    0.692811   -0.384149
      2          6           0       -2.473140    2.219871   -0.450766
      3          6           0       -1.200076    2.749229   -1.111737
      4          1           0       -1.634941    0.332840    0.168416
      5          1           0       -2.431220    0.286053   -1.401576
      6          1           0       -2.556962    2.623658    0.566360
      7          1           0       -3.352096    2.576259   -1.003072
      8          1           0       -1.113614    2.374234   -2.136677
      9          1           0       -0.313962    2.421903   -0.558329
     10          1           0       -1.192003    3.843038   -1.148862
     11          6           0       -3.780196    0.148478    0.273998
     12          6           0       -3.820654   -1.378581    0.340615
     13          6           0       -5.093718   -1.907940    1.001585
     14          1           0       -3.862574    0.555237    1.291424
     15          1           0       -4.658853    0.508450   -0.278567
     16          1           0       -2.941698   -1.734969    0.892920
     17          1           0       -3.736832   -1.782368   -0.676511
     18          1           0       -5.979832   -1.580613    0.448177
     19          1           0       -5.180180   -1.532944    2.026526
     20          1           0       -5.101791   -3.001748    1.038710
     21          6           0        2.794281    1.817376    1.326712
     22          6           0        2.361239    1.857367   -0.002722
     23          6           0        2.171827    0.674594   -0.723637
     24          6           0        2.426053   -0.536097   -0.081074
     25          6           0        2.858337   -0.608751    1.242233
     26          6           0        3.041013    0.586615    1.943859
     27          1           0        2.938804    2.741074    1.879244
     28          1           0        2.168847    2.811755   -0.484567
     29          1           0        1.837317    0.676603   -1.753937
     30          1           0        3.041937   -1.575284    1.695579
     31          1           0        3.377396    0.552523    2.976201
     32          7           0        2.229096   -1.794911   -0.834064
     33          8           0        2.459981   -2.848738   -0.245186
     34          8           0        1.847566   -1.703907   -1.998877
 ---------------------------------------------------------------------

 SCF Done:  E(RHF) =  -669.534914606     A.U. after   15 cycles
 E2 =    -0.2092636741D+01 EUMP2 =    -0.67162755134733D+03

 The electronic state is 1-A.
 Alpha  occ. eigenvalues --  -20.60792 -20.60787 -15.85847 -11.31238 -11.27808
 Alpha  occ. eigenvalues --  -11.27796 -11.27550 -11.26826 -11.26789 -11.21808
 Alpha  occ. eigenvalues --  -11.21430 -11.21422 -11.21392 -11.21313 -11.20918
 Alpha  occ. eigenvalues --   -1.59867  -1.39419  -1.19420  -1.08806  -1.08441
 Alpha  occ. eigenvalues --   -1.04831  -1.03579  -0.96056  -0.95633  -0.87092
 Alpha  occ. eigenvalues --   -0.86210  -0.82470  -0.79660  -0.78227  -0.77501
 Alpha  occ. eigenvalues --   -0.72064  -0.71190  -0.70511  -0.65110  -0.65049
 Alpha  occ. eigenvalues --   -0.64809  -0.62186  -0.60976  -0.59428  -0.57652
 Alpha  occ. eigenvalues --   -0.55404  -0.55294  -0.53229  -0.52936  -0.52731
 Alpha  occ. eigenvalues --   -0.52410  -0.49985  -0.48825  -0.48816  -0.47964
 Alpha  occ. eigenvalues --   -0.46669  -0.45777  -0.45679  -0.44817  -0.43824
 Alpha  occ. eigenvalues --   -0.37397  -0.36341
 Alpha virt. eigenvalues --    0.05011   0.11166   0.16393   0.21106   0.22889
 Alpha virt. eigenvalues --    0.24298   0.26318   0.26655   0.27545   0.28124
 Alpha virt. eigenvalues --    0.29101   0.30407   0.31505   0.31728   0.32198

 Mulliken charges:
               1
     1  C   -0.299761
     2  C   -0.297574
     3  C   -0.487099
     4  H    0.150062
     5  H    0.153669
     6  H    0.150479
     7  H    0.153068
     8  H    0.155880
     9  H    0.157953
    10  H    0.156965
    11  C   -0.298481
    12  C   -0.300094
    13  C   -0.475892
    14  H    0.147756
    15  H    0.149455
    16  H    0.153243
    17  H    0.155447
    18  H    0.154646
    19  H    0.153634
    20  H    0.161846
    21  C   -0.172454
    22  C   -0.220935
    23  C   -0.168316
    24  C    0.158059
    25  C   -0.171195
    26  C   -0.218743
    27  H    0.226113
    28  H    0.227577
    29  H    0.277451
    30  H    0.275792
    31  H    0.223642
    32  N    0.488198
    33  O   -0.460483
    34  O   -0.459907
 Sum of Mulliken charges =  -0.00000

 Dipole moment (field-independent basis, Debye):
    X=              0.7253    Y=              4.3391    Z=              2.6454  Tot=              5.1334
 Quadrupole moment (field-independent basis, Debye-Ang):
   XX=            -92.1815   YY=            -99.1686   ZZ=            -91.5830
   XY=              9.4904   XZ=              8.7094   YZ=             -3.7967

 Normal termination of Gaussian 16 at Thu May  6 07:24:23 2021.
