 Gaussian 16, Revision A.03,
 Gaussian 16:  EM64L-G16RevA.03 25-Dec-2016

 -------------
 #p 6-31g* mp2
 -------------

 ------------------------------------------------------
 Input file generated by CHIRIPA (05-May-2021 14:51:08)
 ------------------------------------------------------
 Symbolic Z-matrix:
 Charge =  0 Multiplicity = 1

                         Standard orientation:
 ---------------------------------------------------------------------
 Center     Atomic      Atomic             Coordinates (Angstroms)
 Number     Number       Type             X           Y           Z
 ---------------------------------------------------------------------
      1          6           0       -3.547655   -0.290801   -0.327645
      2          6           0       -5.033117   -0.291170    0.034832
      3          6           0       -5.940656   -0.178965   -1.190556
      4          1           0       -3.311206    0.630325   -0.877704
      5          1           0       -3.344456   -1.125140   -1.013197
      6          1           0       -5.233186    0.542092    0.720589
      7          1           0       -5.266017   -1.212312    0.584259
      8          1           0       -5.770108   -1.016850   -1.874270
      9          1           0       -5.737090    0.747523   -1.737165
     10          1           0       -6.998150   -0.181095   -0.908487
     11          6           0       -2.627689   -0.402389    0.886826
     12          6           0       -1.142228   -0.402020    0.524349
     13          6           0       -0.234688   -0.514225    1.749737
     14          1           0       -2.830888    0.431950    1.572378
     15          1           0       -2.864139   -1.323515    1.436884
     16          1           0       -0.909328    0.519122   -0.025078
     17          1           0       -0.942159   -1.235282   -0.161408
     18          1           0       -0.438254   -1.440713    2.296346
     19          1           0       -0.405237    0.323660    2.433450
     20          1           0        0.822805   -0.512095    1.467668
     21          6           0        3.533758   -0.200974    0.011283
     22          6           0        3.637502   -1.437154   -0.882630
     23          6           0        4.533343   -2.523758   -0.287184
     24          1           0        4.540076    0.204903    0.183136
     25          1           0        3.145094   -0.499762    0.994676
     26          1           0        4.024550   -1.135906   -1.864495
     27          1           0        2.630802   -1.840024   -1.052532
     28          1           0        4.147123   -2.852584    0.683027
     29          1           0        5.548791   -2.144465   -0.133549
     30          1           0        4.593375   -3.398287   -0.942511
     31          6           0        2.641586    0.894164   -0.570463
     32          6           0        2.537843    2.130345    0.323449
     33          6           0        1.642001    3.216948   -0.271997
     34          1           0        3.030250    1.192952   -1.553856
     35          1           0        1.635268    0.488287   -0.742317
     36          1           0        3.544543    2.533214    0.493351
     37          1           0        2.150795    1.829096    1.305314
     38          1           0        0.626554    2.837655   -0.425632
     39          1           0        2.028221    3.545774   -1.242207
     40          1           0        1.581969    4.091477    0.383330
 ---------------------------------------------------------------------

 SCF Done:  E(RHF) =  -470.732378988     A.U. after   11 cycles
 E2 =    -0.1584864255D+01 EUMP2 =    -0.47231724324309D+03

 The electronic state is 1-A.
 Alpha  occ. eigenvalues --  -11.21702 -11.21631 -11.21605 -11.21560 -11.21459
 Alpha  occ. eigenvalues --  -11.21396 -11.21390 -11.21307 -11.21115 -11.21091
 Alpha  occ. eigenvalues --  -11.21077 -11.21069  -1.08519  -1.08403  -1.03610
 Alpha  occ. eigenvalues --   -1.03504  -0.96071  -0.95947  -0.87061  -0.86988
 Alpha  occ. eigenvalues --   -0.79687  -0.79572  -0.78363  -0.78168  -0.65282
 Alpha  occ. eigenvalues --   -0.65048  -0.61166  -0.60760  -0.59364  -0.59340
 Alpha  occ. eigenvalues --   -0.57650  -0.57586  -0.55330  -0.55246  -0.52745
 Alpha  occ. eigenvalues --   -0.52643  -0.52473  -0.52348  -0.50028  -0.49875
 Alpha  occ. eigenvalues --   -0.48040  -0.47865  -0.46855  -0.46493  -0.45993
 Alpha  occ. eigenvalues --   -0.45774  -0.45749  -0.45491  -0.43811  -0.43746
 Alpha virt. eigenvalues --    0.19821   0.22777   0.23440   0.25215   0.25676
 Alpha virt. eigenvalues --    0.26313   0.26412   0.27677   0.28216   0.29552
 Alpha virt. eigenvalues --    0.30161   0.31532   0.31715   0.31834   0.32307

 Mulliken charges:
               1
     1  C   -0.298393
     2  C   -0.299702
     3  C   -0.475757
     4  H    0.149714
     5  H    0.149632
     6  H    0.152062
     7  H    0.152010
     8  H    0.155232
     9  H    0.155325
    10  H    0.160375
    11  C   -0.298523
    12  C   -0.303717
    13  C   -0.485174
    14  H    0.149918
    15  H    0.149991
    16  H    0.154949
    17  H    0.151836
    18  H    0.155414
    19  H    0.155465
    20  H    0.170201
    21  C   -0.302572
    22  C   -0.299903
    23  C   -0.475770
    24  H    0.150614
    25  H    0.151263
    26  H    0.152242
    27  H    0.152035
    28  H    0.155380
    29  H    0.155241
    30  H    0.160211
    31  C   -0.306392
    32  C   -0.301033
    33  C   -0.478139
    34  H    0.150291
    35  H    0.157350
    36  H    0.151853
    37  H    0.154639
    38  H    0.156358
    39  H    0.155288
    40  H    0.160187
 Sum of Mulliken charges =  -0.00000

 Dipole moment (field-independent basis, Debye):
    X=             -0.0159    Y=             -0.0086    Z=              0.0013  Tot=              0.0181
 Quadrupole moment (field-independent basis, Debye-Ang):
   XX=            -85.1036   YY=            -84.3773   ZZ=            -85.2731
   XY=              0.9365   XZ=             -1.1685   YZ=              0.2210

 Normal termination of Gaussian 16 at Thu May  6 03:40:02 2021.
