 Gaussian 16, Revision A.03,
 Gaussian 16:  EM64L-G16RevA.03 25-Dec-2016

 -------------
 #p 6-31g* mp2
 -------------

 ------------------------------------------------------
 Input file generated by CHIRIPA (05-May-2021 14:55:22)
 ------------------------------------------------------
 Symbolic Z-matrix:
 Charge =  0 Multiplicity = 1

                         Standard orientation:
 ---------------------------------------------------------------------
 Center     Atomic      Atomic             Coordinates (Angstroms)
 Number     Number       Type             X           Y           Z
 ---------------------------------------------------------------------
      1          6           0        2.728543    2.158902   -0.677549
      2          6           0        1.569033    1.409116   -0.900878
      3          6           0        1.535197    0.045538   -0.594189
      4          6           0        2.684094   -0.538647   -0.063102
      5          6           0        3.854485    0.181585    0.170866
      6          6           0        3.865564    1.543828   -0.143331
      7          1           0        2.745989    3.217644   -0.918708
      8          1           0        0.684522    1.884142   -1.315651
      9          1           0        0.650903   -0.558568   -0.756973
     10          1           0        4.720562   -0.319845    0.585469
     11          1           0        4.767456    2.123644    0.031170
     12          7           0        2.660320   -1.981499    0.265551
     13          8           0        3.685710   -2.472610    0.732478
     14          8           0        1.616745   -2.593974    0.049998
     15          6           0       -3.122969    0.871417    0.646073
     16          6           0       -2.395766    2.035658   -0.027503
     17          6           0       -1.765460    2.999963    0.977794
     18          1           0       -3.900908    1.269347    1.311962
     19          1           0       -2.414363    0.325661    1.284369
     20          1           0       -3.105204    2.578227   -0.665416
     21          1           0       -1.619595    1.634905   -0.692012
     22          1           0       -1.036784    2.478608    1.606938
     23          1           0       -2.530835    3.427290    1.633686
     24          1           0       -1.250856    3.824580    0.474753
     25          6           0       -3.758344   -0.101249   -0.345868
     26          6           0       -4.485547   -1.265489    0.327709
     27          6           0       -5.115852   -2.229795   -0.677589
     28          1           0       -4.466950    0.444508   -0.984164
     29          1           0       -2.980405   -0.499178   -1.011757
     30          1           0       -5.261718   -0.864737    0.992217
     31          1           0       -3.776108   -1.808059    0.965620
     32          1           0       -4.350478   -2.657122   -1.333480
     33          1           0       -5.844528   -1.708441   -1.306733
     34          1           0       -5.630456   -3.054412   -0.174548
 ---------------------------------------------------------------------

 SCF Done:  E(RHF) =  -669.535487941     A.U. after   15 cycles
 E2 =    -0.2091818641D+01 EUMP2 =    -0.67162730658199D+03

 The electronic state is 1-A.
 Alpha  occ. eigenvalues --  -20.60789 -20.60784 -15.85842 -11.31201 -11.27769
 Alpha  occ. eigenvalues --  -11.27764 -11.27497 -11.26779 -11.26747 -11.22366
 Alpha  occ. eigenvalues --  -11.21819 -11.21743 -11.21712 -11.21654 -11.21068
 Alpha  occ. eigenvalues --   -1.59864  -1.39418  -1.19370  -1.08833  -1.08760
 Alpha  occ. eigenvalues --   -1.04775  -1.03910  -0.96340  -0.95601  -0.87358
 Alpha  occ. eigenvalues --   -0.86169  -0.82440  -0.80013  -0.78606  -0.77484
 Alpha  occ. eigenvalues --   -0.72060  -0.71188  -0.70477  -0.65515  -0.65016
 Alpha  occ. eigenvalues --   -0.64767  -0.62189  -0.61233  -0.59744  -0.57948
 Alpha  occ. eigenvalues --   -0.55616  -0.55263  -0.53102  -0.53046  -0.52856
 Alpha  occ. eigenvalues --   -0.52758  -0.50278  -0.48820  -0.48816  -0.48304
 Alpha  occ. eigenvalues --   -0.47043  -0.46151  -0.46034  -0.44825  -0.44162
 Alpha  occ. eigenvalues --   -0.37344  -0.36365
 Alpha virt. eigenvalues --    0.05037   0.11252   0.16457   0.19342   0.22804
 Alpha virt. eigenvalues --    0.23904   0.25149   0.26483   0.26901   0.28545
 Alpha virt. eigenvalues --    0.29418   0.30382   0.31108   0.31348   0.32283

 Mulliken charges:
               1
     1  C   -0.171320
     2  C   -0.220658
     3  C   -0.173248
     4  C    0.158500
     5  C   -0.170985
     6  C   -0.218517
     7  H    0.225988
     8  H    0.229392
     9  H    0.275012
    10  H    0.275621
    11  H    0.223500
    12  N    0.488140
    13  O   -0.460288
    14  O   -0.460871
    15  C   -0.299730
    16  C   -0.302035
    17  C   -0.476772
    18  H    0.152351
    19  H    0.153485
    20  H    0.154522
    21  H    0.140512
    22  H    0.159763
    23  H    0.159463
    24  H    0.154342
    25  C   -0.298198
    26  C   -0.300765
    27  C   -0.476294
    28  H    0.149562
    29  H    0.147174
    30  H    0.151876
    31  H    0.156862
    32  H    0.157524
    33  H    0.153904
    34  H    0.162189
 Sum of Mulliken charges =  -0.00000

 Dipole moment (field-independent basis, Debye):
    X=             -0.0221    Y=              5.0424    Z=             -1.0598  Tot=              5.1527
 Quadrupole moment (field-independent basis, Debye-Ang):
   XX=            -88.8055   YY=           -101.1456   ZZ=            -95.2230
   XY=             13.3798   XZ=             -1.9860   YZ=              0.0179

 Normal termination of Gaussian 16 at Wed May  5 19:02:40 2021.
