 Gaussian 16, Revision A.03,
 Gaussian 16:  EM64L-G16RevA.03 25-Dec-2016

 -------------
 #p 6-31g* mp2
 -------------

 ------------------------------------------------------
 Input file generated by CHIRIPA (05-May-2021 14:53:12)
 ------------------------------------------------------
 Symbolic Z-matrix:
 Charge =  0 Multiplicity = 1

                         Standard orientation:
 ---------------------------------------------------------------------
 Center     Atomic      Atomic             Coordinates (Angstroms)
 Number     Number       Type             X           Y           Z
 ---------------------------------------------------------------------
      1          6           0        3.652275   -0.521236    0.115475
      2          6           0        4.499688   -1.612826   -0.538977
      3          6           0        3.945529   -3.016935   -0.295705
      4          1           0        3.591961   -0.711071    1.195878
      5          1           0        2.625365   -0.583112   -0.270560
      6          1           0        5.525030   -1.548030   -0.152853
      7          1           0        4.558150   -1.420264   -1.617919
      8          1           0        2.930709   -3.105413   -0.696844
      9          1           0        3.903082   -3.233905    0.776546
     10          1           0        4.566596   -3.781792   -0.772285
     11          6           0        4.193504    0.887986   -0.118816
     12          6           0        3.346090    1.979576    0.535635
     13          6           0        3.900250    3.383684    0.292364
     14          1           0        5.220413    0.949861    0.267219
     15          1           0        4.253817    1.077821   -1.199219
     16          1           0        3.287628    1.787013    1.614578
     17          1           0        2.320748    1.914779    0.149512
     18          1           0        3.942696    3.600654   -0.779887
     19          1           0        4.915070    3.472162    0.693503
     20          1           0        3.279182    4.148542    0.768944
     21          6           0       -0.654571   -0.842127    0.263048
     22          6           0       -1.576039   -1.111872    1.280228
     23          6           0       -2.913992   -0.729235    1.145999
     24          6           0       -3.297765   -0.075698   -0.023999
     25          6           0       -2.403405    0.207228   -1.055194
     26          6           0       -1.070461   -0.184597   -0.899367
     27          1           0        0.382838   -1.142938    0.375710
     28          1           0       -1.255881   -1.622374    2.184072
     29          1           0       -3.648293   -0.925558    1.917801
     30          1           0       -2.752365    0.717657   -1.944637
     31          1           0       -0.357031    0.026201   -1.690964
     32          7           0       -4.711545    0.334247   -0.177534
     33          8           0       -5.024481    0.908718   -1.218058
     34          8           0       -5.479959    0.073327    0.745557
 ---------------------------------------------------------------------

 SCF Done:  E(RHF) =  -669.535610552     A.U. after   15 cycles
 E2 =    -0.2091429153D+01 EUMP2 =    -0.67162703970507D+03

 The electronic state is 1-A.
 Alpha  occ. eigenvalues --  -20.60730 -20.60725 -15.85785 -11.31141 -11.27721
 Alpha  occ. eigenvalues --  -11.27712 -11.27407 -11.26730 -11.26706 -11.22623
 Alpha  occ. eigenvalues --  -11.22558 -11.22404 -11.22282 -11.22056 -11.21690
 Alpha  occ. eigenvalues --   -1.59806  -1.39360  -1.19314  -1.09416  -1.08705
 Alpha  occ. eigenvalues --   -1.04720  -1.04410  -0.96872  -0.95543  -0.87880
 Alpha  occ. eigenvalues --   -0.86116  -0.82382  -0.80483  -0.79256  -0.77430
 Alpha  occ. eigenvalues --   -0.72002  -0.71130  -0.70426  -0.66050  -0.64964
 Alpha  occ. eigenvalues --   -0.64722  -0.62071  -0.61800  -0.60239  -0.58485
 Alpha  occ. eigenvalues --   -0.56185  -0.55220  -0.53511  -0.53283  -0.53044
 Alpha  occ. eigenvalues --   -0.52811  -0.50811  -0.48803  -0.48758  -0.48748
 Alpha  occ. eigenvalues --   -0.47524  -0.46754  -0.46695  -0.44768  -0.44697
 Alpha  occ. eigenvalues --   -0.37281  -0.36328
 Alpha virt. eigenvalues --    0.05104   0.11296   0.16581   0.19153   0.22574
 Alpha virt. eigenvalues --    0.23357   0.24951   0.26101   0.26831   0.27655
 Alpha virt. eigenvalues --    0.29746   0.30263   0.31035   0.31089   0.31698

 Mulliken charges:
               1
     1  C   -0.302651
     2  C   -0.299731
     3  C   -0.477233
     4  H    0.150623
     5  H    0.140279
     6  H    0.156420
     7  H    0.154034
     8  H    0.150882
     9  H    0.155650
    10  H    0.165495
    11  C   -0.298416
    12  C   -0.300585
    13  C   -0.476265
    14  H    0.153536
    15  H    0.150917
    16  H    0.152927
    17  H    0.149420
    18  H    0.155990
    19  H    0.156921
    20  H    0.163374
    21  C   -0.176138
    22  C   -0.219679
    23  C   -0.170642
    24  C    0.158132
    25  C   -0.170774
    26  C   -0.221326
    27  H    0.235159
    28  H    0.223855
    29  H    0.275400
    30  H    0.275381
    31  H    0.222150
    32  N    0.488070
    33  O   -0.460648
    34  O   -0.460527
 Sum of Mulliken charges =  -0.00000

 Dipole moment (field-independent basis, Debye):
    X=              5.2412    Y=             -1.4046    Z=              0.5660  Tot=              5.4556
 Quadrupole moment (field-independent basis, Debye-Ang):
   XX=           -126.7430   YY=            -95.2884   ZZ=            -90.1262
   XY=              4.5491   XZ=             -2.5129   YZ=             -1.9567

 Normal termination of Gaussian 16 at Thu May  6 07:17:54 2021.
