 Gaussian 16, Revision A.03,
 Gaussian 16:  EM64L-G16RevA.03 25-Dec-2016

 -------------
 #p 6-31g* mp2
 -------------

 ------------------------------------------------------
 Input file generated by CHIRIPA (05-May-2021 14:57:23)
 ------------------------------------------------------
 Symbolic Z-matrix:
 Charge =  0 Multiplicity = 1

                         Standard orientation:
 ---------------------------------------------------------------------
 Center     Atomic      Atomic             Coordinates (Angstroms)
 Number     Number       Type             X           Y           Z
 ---------------------------------------------------------------------
      1          6           0       -5.399902    0.184174   -0.141714
      2          6           0       -4.579283    1.268691    0.185285
      3          6           0       -3.192639    1.110464    0.267319
      4          6           0       -2.657868   -0.151937    0.015018
      5          6           0       -3.449025   -1.251808   -0.313071
      6          6           0       -4.833154   -1.070402   -0.389411
      7          1           0       -6.476104    0.316092   -0.203228
      8          1           0       -5.016663    2.244162    0.378160
      9          1           0       -2.534007    1.932995    0.518447
     10          1           0       -2.983888   -2.212088   -0.499965
     11          1           0       -5.468012   -1.914441   -0.643574
     12          7           0       -1.191221   -0.331714    0.098850
     13          8           0       -0.744685   -1.454121   -0.127963
     14          8           0       -0.515971    0.653187    0.389785
     15          6           0        3.222697   -2.368039    0.243137
     16          6           0        3.401040   -1.757949   -1.002859
     17          6           0        3.224668   -0.378887   -1.149918
     18          6           0        2.868352    0.363064   -0.024823
     19          6           0        2.683383   -0.215626    1.229845
     20          6           0        2.865066   -1.596291    1.353554
     21          1           0        3.361771   -3.439951    0.348307
     22          1           0        3.678780   -2.354806   -1.866959
     23          1           0        3.356311    0.119151   -2.102833
     24          1           0        2.406518    0.405625    2.072941
     25          1           0        2.725889   -2.067397    2.322436
     26          7           0        2.678822    1.823864   -0.168149
     27          8           0        2.364909    2.455342    0.838495
     28          8           0        2.847771    2.309702   -1.284417
 ---------------------------------------------------------------------

 SCF Done:  E(RHF) =  -868.338604346     A.U. after   16 cycles
 E2 =    -0.2601540580D+01 EUMP2 =    -0.87094014492575D+03

 The electronic state is 1-A.
 Alpha  occ. eigenvalues --  -20.60971 -20.60943 -20.59168 -20.59123 -15.85975
 Alpha  occ. eigenvalues --  -15.84186 -11.31234 -11.29331 -11.27829 -11.27739
 Alpha  occ. eigenvalues --  -11.27531 -11.26812 -11.26753 -11.26027 -11.25922
 Alpha  occ. eigenvalues --  -11.25799 -11.25059 -11.24993  -1.60024  -1.58194
 Alpha  occ. eigenvalues --   -1.39578  -1.37767  -1.19401  -1.17531  -1.08823
 Alpha  occ. eigenvalues --   -1.06991  -1.04784  -1.02982  -0.95674  -0.93871
 Alpha  occ. eigenvalues --   -0.86188  -0.84411  -0.82505  -0.80757  -0.77558
 Alpha  occ. eigenvalues --   -0.75794  -0.72246  -0.71337  -0.70508  -0.70465
 Alpha  occ. eigenvalues --   -0.69405  -0.68784  -0.65052  -0.64788  -0.63268
 Alpha  occ. eigenvalues --   -0.63086  -0.62125  -0.60392  -0.55308  -0.53587
 Alpha  occ. eigenvalues --   -0.53125  -0.52872  -0.51407  -0.51160  -0.48967
 Alpha  occ. eigenvalues --   -0.48782  -0.47208  -0.47185  -0.45005  -0.43224
 Alpha  occ. eigenvalues --   -0.37387  -0.36383  -0.35449  -0.34504
 Alpha virt. eigenvalues --    0.04928   0.06844   0.11273   0.13136   0.16469
 Alpha virt. eigenvalues --    0.18311   0.21427   0.22890   0.27347   0.28329
 Alpha virt. eigenvalues --    0.28743   0.29788   0.30986   0.32322   0.32602

 Mulliken charges:
               1
     1  C   -0.170411
     2  C   -0.218845
     3  C   -0.170685
     4  C    0.157355
     5  C   -0.171245
     6  C   -0.218812
     7  H    0.225920
     8  H    0.225257
     9  H    0.281557
    10  H    0.273469
    11  H    0.222805
    12  N    0.489042
    13  O   -0.462667
    14  O   -0.459673
    15  C   -0.165788
    16  C   -0.216602
    17  C   -0.171415
    18  C    0.172485
    19  C   -0.154311
    20  C   -0.214529
    21  H    0.217782
    22  H    0.215256
    23  H    0.268688
    24  H    0.270486
    25  H    0.215292
    26  N    0.492413
    27  O   -0.462531
    28  O   -0.470295
 Sum of Mulliken charges =  -0.00000

 Dipole moment (field-independent basis, Debye):
    X=             -4.8915    Y=             -4.3798    Z=              0.3272  Tot=              6.5739
 Quadrupole moment (field-independent basis, Debye-Ang):
   XX=            -75.7514   YY=           -105.3277   ZZ=           -101.0828
   XY=            -15.1613   XZ=              1.3368   YZ=              2.2224

 Normal termination of Gaussian 16 at Fri May  7 00:16:06 2021.
