 Gaussian 16, Revision A.03,
 Gaussian 16:  EM64L-G16RevA.03 25-Dec-2016

 -------------
 #p 6-31g* mp2
 -------------

 ------------------------------------------------------
 Input file generated by CHIRIPA (05-May-2021 14:55:23)
 ------------------------------------------------------
 Symbolic Z-matrix:
 Charge =  0 Multiplicity = 1

                         Standard orientation:
 ---------------------------------------------------------------------
 Center     Atomic      Atomic             Coordinates (Angstroms)
 Number     Number       Type             X           Y           Z
 ---------------------------------------------------------------------
      1          6           0       -3.204330    0.099641   -1.548430
      2          6           0       -2.337564   -0.962938   -1.824410
      3          6           0       -1.455068   -1.431666   -0.846635
      4          6           0       -1.466019   -0.811774    0.401926
      5          6           0       -2.317541    0.248839    0.707380
      6          6           0       -3.191574    0.701077   -0.285643
      7          1           0       -3.886587    0.457355   -2.313911
      8          1           0       -2.345282   -1.431933   -2.804220
      9          1           0       -0.773407   -2.252568   -1.033387
     10          1           0       -2.286789    0.696216    1.693446
     11          1           0       -3.863601    1.526469   -0.068494
     12          7           0       -0.536239   -1.299267    1.445123
     13          8           0       -0.565354   -0.736137    2.537219
     14          8           0        0.204031   -2.235262    1.150931
     15          6           0        2.220196    0.317980   -0.717984
     16          6           0        3.421077   -0.486377   -0.219105
     17          6           0        3.703666   -1.720193   -1.076798
     18          1           0        1.333508   -0.330470   -0.733496
     19          1           0        2.400297    0.626128   -1.757217
     20          1           0        3.239364   -0.791737    0.819332
     21          1           0        4.304969    0.164115   -0.204597
     22          1           0        3.910716   -1.430489   -2.112077
     23          1           0        2.839056   -2.391772   -1.082329
     24          1           0        4.566059   -2.280484   -0.702345
     25          6           0        1.925103    1.554478    0.129199
     26          6           0        0.724222    2.358835   -0.369680
     27          6           0        0.441633    3.592651    0.488013
     28          1           0        1.745002    1.246331    1.168432
     29          1           0        2.811792    2.202928    0.144711
     30          1           0       -0.159670    1.708343   -0.384188
     31          1           0        0.905935    2.664195   -1.408117
     32          1           0        1.306243    4.264229    0.493545
     33          1           0        0.234584    3.302946    1.523291
     34          1           0       -0.420759    4.152942    0.113561
 ---------------------------------------------------------------------

 SCF Done:  E(RHF) =  -669.534776883     A.U. after   15 cycles
 E2 =    -0.2097148584D+01 EUMP2 =    -0.67163192546726D+03

 The electronic state is 1-A.
 Alpha  occ. eigenvalues --  -20.61075 -20.61070 -15.86072 -11.31337 -11.27929
 Alpha  occ. eigenvalues --  -11.27909 -11.27668 -11.26931 -11.26921 -11.21246
 Alpha  occ. eigenvalues --  -11.20938 -11.20884 -11.20825 -11.20767 -11.20362
 Alpha  occ. eigenvalues --   -1.60119  -1.39678  -1.19559  -1.08954  -1.07926
 Alpha  occ. eigenvalues --   -1.04942  -1.03025  -0.95800  -0.95515  -0.86545
 Alpha  occ. eigenvalues --   -0.86329  -0.82630  -0.79117  -0.77781  -0.77648
 Alpha  occ. eigenvalues --   -0.72305  -0.71497  -0.70649  -0.65201  -0.64932
 Alpha  occ. eigenvalues --   -0.64514  -0.62285  -0.60448  -0.58911  -0.57121
 Alpha  occ. eigenvalues --   -0.55435  -0.54804  -0.53378  -0.53015  -0.52201
 Alpha  occ. eigenvalues --   -0.51949  -0.49485  -0.49081  -0.49062  -0.47433
 Alpha  occ. eigenvalues --   -0.46111  -0.45487  -0.45207  -0.44691  -0.43287
 Alpha  occ. eigenvalues --   -0.37460  -0.36477
 Alpha virt. eigenvalues --    0.04783   0.10987   0.16272   0.21018   0.23186
 Alpha virt. eigenvalues --    0.24375   0.26580   0.27207   0.27859   0.28124
 Alpha virt. eigenvalues --    0.28937   0.30727   0.30991   0.32204   0.32564

 Mulliken charges:
               1
     1  C   -0.170392
     2  C   -0.217125
     3  C   -0.172801
     4  C    0.161525
     5  C   -0.176229
     6  C   -0.215117
     7  H    0.226747
     8  H    0.224731
     9  H    0.276099
    10  H    0.276305
    11  H    0.224789
    12  N    0.490491
    13  O   -0.458721
    14  O   -0.459261
    15  C   -0.302322
    16  C   -0.298728
    17  C   -0.476800
    18  H    0.148149
    19  H    0.144161
    20  H    0.166003
    21  H    0.147539
    22  H    0.148277
    23  H    0.159673
    24  H    0.159914
    25  C   -0.305365
    26  C   -0.306177
    27  C   -0.476192
    28  H    0.159583
    29  H    0.148955
    30  H    0.157038
    31  H    0.148317
    32  H    0.156253
    33  H    0.157040
    34  H    0.153640
 Sum of Mulliken charges =  -0.00000

 Dipole moment (field-independent basis, Debye):
    X=             -3.4370    Y=              1.5394    Z=             -3.5174  Tot=              5.1531
 Quadrupole moment (field-independent basis, Debye-Ang):
   XX=            -84.7924   YY=            -96.5502   ZZ=            -96.0239
   XY=             -0.7896   XZ=              3.3140   YZ=              5.4531

 Normal termination of Gaussian 16 at Wed May  5 20:44:07 2021.
