 Gaussian 16, Revision A.03,
 Gaussian 16:  EM64L-G16RevA.03 25-Dec-2016

 -------------
 #p 6-31g* mp2
 -------------

 ------------------------------------------------------
 Input file generated by CHIRIPA (05-May-2021 14:53:12)
 ------------------------------------------------------
 Symbolic Z-matrix:
 Charge =  0 Multiplicity = 1

                         Standard orientation:
 ---------------------------------------------------------------------
 Center     Atomic      Atomic             Coordinates (Angstroms)
 Number     Number       Type             X           Y           Z
 ---------------------------------------------------------------------
      1          6           0       -4.578710   -0.493666   -0.117690
      2          6           0       -5.481399    0.713015    0.141267
      3          6           0       -6.857753    0.572150   -0.509578
      4          1           0       -4.461189   -0.629757   -1.201485
      5          1           0       -5.072626   -1.399897    0.259388
      6          1           0       -4.985318    1.616888   -0.234942
      7          1           0       -5.596629    0.846364    1.224575
      8          1           0       -7.376160   -0.312890   -0.126748
      9          1           0       -6.761376    0.462012   -1.594558
     10          1           0       -7.486677    1.445761   -0.311794
     11          6           0       -3.199300   -0.367682    0.526580
     12          6           0       -2.296611   -1.574363    0.267623
     13          6           0       -0.920257   -1.433498    0.918469
     14          1           0       -2.705384    0.538549    0.149503
     15          1           0       -3.316821   -0.231591    1.610376
     16          1           0       -2.181381   -1.707712   -0.815685
     17          1           0       -2.792692   -2.478236    0.643833
     18          1           0       -1.016634   -1.323360    2.003449
     19          1           0       -0.401850   -0.548458    0.535638
     20          1           0       -0.291333   -2.307109    0.720684
     21          6           0        1.839818    2.555255   -0.078670
     22          6           0        1.262584    1.471966   -0.749346
     23          6           0        1.917622    0.237932   -0.800679
     24          6           0        3.154148    0.121959   -0.167558
     25          6           0        3.755123    1.182622    0.508545
     26          6           0        3.082055    2.407386    0.547031
     27          1           0        1.323965    3.510281   -0.043783
     28          1           0        0.297951    1.583902   -1.236172
     29          1           0        1.493566   -0.617167   -1.312931
     30          1           0        4.717831    1.040483    0.984367
     31          1           0        3.532735    3.246958    1.068618
     32          7           0        3.857151   -1.179550   -0.215103
     33          8           0        4.945592   -1.255925    0.350673
     34          8           0        3.306414   -2.098653   -0.817245
 ---------------------------------------------------------------------

 SCF Done:  E(RHF) =  -669.534501697     A.U. after   15 cycles
 E2 =    -0.2092646608D+01 EUMP2 =    -0.67162714830410D+03

 The electronic state is 1-A.
 Alpha  occ. eigenvalues --  -20.60777 -20.60772 -15.85831 -11.31196 -11.27792
 Alpha  occ. eigenvalues --  -11.27782 -11.27546 -11.26799 -11.26786 -11.21963
 Alpha  occ. eigenvalues --  -11.21881 -11.21795 -11.21713 -11.21371 -11.21134
 Alpha  occ. eigenvalues --   -1.59850  -1.39404  -1.19399  -1.08786  -1.08774
 Alpha  occ. eigenvalues --   -1.04822  -1.03822  -0.96271  -0.95614  -0.87285
 Alpha  occ. eigenvalues --   -0.86195  -0.82458  -0.79891  -0.78599  -0.77492
 Alpha  occ. eigenvalues --   -0.72051  -0.71172  -0.70506  -0.65433  -0.65050
 Alpha  occ. eigenvalues --   -0.64808  -0.62199  -0.61208  -0.59622  -0.57876
 Alpha  occ. eigenvalues --   -0.55635  -0.55291  -0.53267  -0.52968  -0.52825
 Alpha  occ. eigenvalues --   -0.52574  -0.50190  -0.48809  -0.48802  -0.48191
 Alpha  occ. eigenvalues --   -0.46941  -0.46130  -0.46081  -0.44808  -0.44080
 Alpha  occ. eigenvalues --   -0.37377  -0.36303
 Alpha virt. eigenvalues --    0.05027   0.11198   0.16380   0.20317   0.22771
 Alpha virt. eigenvalues --    0.23985   0.25762   0.26797   0.27379   0.28212
 Alpha virt. eigenvalues --    0.29154   0.30153   0.31391   0.31678   0.32075

 Mulliken charges:
               1
     1  C   -0.298383
     2  C   -0.299315
     3  C   -0.475828
     4  H    0.149036
     5  H    0.151924
     6  H    0.148967
     7  H    0.152699
     8  H    0.156579
     9  H    0.155245
    10  H    0.160578
    11  C   -0.296489
    12  C   -0.300318
    13  C   -0.485622
    14  H    0.141077
    15  H    0.151506
    16  H    0.148756
    17  H    0.155228
    18  H    0.156456
    19  H    0.154716
    20  H    0.168686
    21  C   -0.170608
    22  C   -0.220389
    23  C   -0.167786
    24  C    0.157900
    25  C   -0.170720
    26  C   -0.218869
    27  H    0.225926
    28  H    0.224093
    29  H    0.278165
    30  H    0.275836
    31  H    0.223582
    32  N    0.488358
    33  O   -0.460364
    34  O   -0.460622
 Sum of Mulliken charges =  -0.00000

 Dipole moment (field-independent basis, Debye):
    X=             -2.4487    Y=              4.5367    Z=              0.2098  Tot=              5.1596
 Quadrupole moment (field-independent basis, Debye-Ang):
   XX=           -108.5791   YY=            -93.0889   ZZ=            -93.4328
   XY=             16.3189   XZ=              2.4794   YZ=              0.0433

 Normal termination of Gaussian 16 at Wed May  5 20:06:57 2021.
