 Gaussian 16, Revision A.03,
 Gaussian 16:  EM64L-G16RevA.03 25-Dec-2016

 -------------
 #p 6-31g* mp2
 -------------

 ------------------------------------------------------
 Input file generated by CHIRIPA (05-May-2021 14:53:18)
 ------------------------------------------------------
 Symbolic Z-matrix:
 Charge =  0 Multiplicity = 1

                         Standard orientation:
 ---------------------------------------------------------------------
 Center     Atomic      Atomic             Coordinates (Angstroms)
 Number     Number       Type             X           Y           Z
 ---------------------------------------------------------------------
      1          6           0       -2.048331    1.240703   -0.609137
      2          6           0       -1.296261    2.371161    0.094027
      3          6           0       -0.228527    3.012164   -0.793020
      4          1           0       -1.329158    0.475164   -0.931138
      5          1           0       -2.516457    1.633591   -1.522314
      6          1           0       -0.830845    1.976570    1.006333
      7          1           0       -2.017330    3.134006    0.414562
      8          1           0       -0.680419    3.432275   -1.697399
      9          1           0        0.512808    2.268262   -1.102266
     10          1           0        0.296769    3.817757   -0.270579
     11          6           0       -3.119042    0.589972    0.264852
     12          6           0       -3.871112   -0.540486   -0.438312
     13          6           0       -4.938846   -1.181490    0.448735
     14          1           0       -2.650916    0.197083    1.178029
     15          1           0       -3.838215    1.355510    0.586853
     16          1           0       -3.150043   -1.303332   -0.758846
     17          1           0       -4.336528   -0.145895   -1.350618
     18          1           0       -5.680181   -0.437588    0.757981
     19          1           0       -4.486954   -1.601601    1.353114
     20          1           0       -5.464142   -1.987082   -0.073706
     21          6           0        0.006953   -2.231602   -0.006309
     22          6           0        0.077725   -1.253446    0.991049
     23          6           0        1.187468   -0.407655    1.078558
     24          6           0        2.212975   -0.568498    0.148098
     25          6           0        2.171745   -1.533544   -0.857027
     26          6           0        1.052345   -2.368288   -0.925544
     27          1           0       -0.858874   -2.884342   -0.066911
     28          1           0       -0.732656   -1.145013    1.706290
     29          1           0        1.268097    0.357995    1.840592
     30          1           0        2.995210   -1.617605   -1.555780
     31          1           0        1.000090   -3.127057   -1.701162
     32          7           0        3.392922    0.321055    0.230687
     33          8           0        4.283192    0.159064   -0.601067
     34          8           0        3.405150    1.163434    1.125609
 ---------------------------------------------------------------------

 SCF Done:  E(RHF) =  -669.533938664     A.U. after   15 cycles
 E2 =    -0.2096327123D+01 EUMP2 =    -0.67163026578687D+03

 The electronic state is 1-A.
 Alpha  occ. eigenvalues --  -20.60853 -20.60847 -15.85908 -11.31334 -11.27882
 Alpha  occ. eigenvalues --  -11.27870 -11.27618 -11.26914 -11.26878 -11.22378
 Alpha  occ. eigenvalues --  -11.22042 -11.21850 -11.21828 -11.21611 -11.21033
 Alpha  occ. eigenvalues --   -1.59927  -1.39478  -1.19509  -1.08997  -1.08825
 Alpha  occ. eigenvalues --   -1.04910  -1.03975  -0.96405  -0.95710  -0.87414
 Alpha  occ. eigenvalues --   -0.86302  -0.82543  -0.80082  -0.78717  -0.77577
 Alpha  occ. eigenvalues --   -0.72123  -0.71255  -0.70602  -0.65779  -0.65149
 Alpha  occ. eigenvalues --   -0.64809  -0.62225  -0.61406  -0.59796  -0.58004
 Alpha  occ. eigenvalues --   -0.55761  -0.55379  -0.53224  -0.53081  -0.53003
 Alpha  occ. eigenvalues --   -0.52784  -0.50350  -0.48891  -0.48875  -0.48373
 Alpha  occ. eigenvalues --   -0.47146  -0.46240  -0.46119  -0.44866  -0.44208
 Alpha  occ. eigenvalues --   -0.37436  -0.36442
 Alpha virt. eigenvalues --    0.04896   0.11042   0.16232   0.19130   0.23251
 Alpha virt. eigenvalues --    0.23467   0.24721   0.26005   0.27386   0.28326
 Alpha virt. eigenvalues --    0.29028   0.30682   0.31110   0.31188   0.32039

 Mulliken charges:
               1
     1  C   -0.303624
     2  C   -0.298623
     3  C   -0.475969
     4  H    0.157553
     5  H    0.150593
     6  H    0.144004
     7  H    0.152586
     8  H    0.154841
     9  H    0.155300
    10  H    0.166438
    11  C   -0.298082
    12  C   -0.301331
    13  C   -0.475340
    14  H    0.138352
    15  H    0.153398
    16  H    0.144426
    17  H    0.156602
    18  H    0.159362
    19  H    0.149745
    20  H    0.161347
    21  C   -0.172873
    22  C   -0.216969
    23  C   -0.170410
    24  C    0.158182
    25  C   -0.171598
    26  C   -0.218317
    27  H    0.227570
    28  H    0.227003
    29  H    0.276494
    30  H    0.276341
    31  H    0.224431
    32  N    0.488068
    33  O   -0.459995
    34  O   -0.459507
 Sum of Mulliken charges =  -0.00000

 Dipole moment (field-independent basis, Debye):
    X=             -4.0811    Y=             -3.0829    Z=             -0.3662  Tot=              5.1277
 Quadrupole moment (field-independent basis, Debye-Ang):
   XX=           -112.9989   YY=            -90.3057   ZZ=            -92.2388
   XY=             -6.6836   XZ=             -2.2760   YZ=              1.8581

 Normal termination of Gaussian 16 at Thu May  6 04:25:59 2021.
