 Gaussian 16, Revision A.03,
 Gaussian 16:  EM64L-G16RevA.03 25-Dec-2016

 -------------
 #p 6-31g* mp2
 -------------

 ------------------------------------------------------
 Input file generated by CHIRIPA (05-May-2021 14:51:11)
 ------------------------------------------------------
 Symbolic Z-matrix:
 Charge =  0 Multiplicity = 1

                         Standard orientation:
 ---------------------------------------------------------------------
 Center     Atomic      Atomic             Coordinates (Angstroms)
 Number     Number       Type             X           Y           Z
 ---------------------------------------------------------------------
      1          6           0        5.129844   -0.394353    0.351054
      2          6           0        6.422302   -0.614661   -0.435712
      3          6           0        7.297327   -1.717109    0.161561
      4          1           0        5.379440   -0.143303    1.391064
      5          1           0        4.563837   -1.335603    0.383921
      6          1           0        6.985044    0.327081   -0.468265
      7          1           0        6.169604   -0.865028   -1.474016
      8          1           0        6.758153   -2.669780    0.179209
      9          1           0        7.578226   -1.470898    1.190675
     10          1           0        8.216005   -1.857876   -0.416433
     11          6           0        4.244472    0.704663   -0.233762
     12          6           0        2.952014    0.924972    0.553004
     13          6           0        2.076989    2.027420   -0.044269
     14          1           0        4.810479    1.645913   -0.266629
     15          1           0        3.994876    0.453614   -1.273772
     16          1           0        3.204712    1.175338    1.591308
     17          1           0        2.389272   -0.016770    0.585557
     18          1           0        1.796090    1.781208   -1.073383
     19          1           0        2.616163    2.980090   -0.061918
     20          1           0        1.158311    2.168186    0.533725
     21          6           0       -3.985135   -0.377930   -0.261046
     22          6           0       -2.912244    0.677071    0.010732
     23          6           0       -1.513119    0.216674   -0.399483
     24          1           0       -3.728332   -1.300165    0.277916
     25          1           0       -3.979739   -0.629213   -1.330730
     26          1           0       -2.920596    0.927302    1.079344
     27          1           0       -3.171731    1.596964   -0.528786
     28          1           0       -1.481785   -0.014381   -1.469171
     29          1           0       -1.229223   -0.687849    0.148096
     30          1           0       -0.761681    0.986072   -0.196437
     31          6           0       -5.389182    0.067620    0.143755
     32          6           0       -6.462072   -0.987383   -0.128024
     33          6           0       -7.861196   -0.526985    0.282191
     34          1           0       -5.394577    0.318904    1.213438
     35          1           0       -5.645984    0.989855   -0.395208
     36          1           0       -6.202584   -1.907275    0.411495
     37          1           0       -6.453719   -1.237612   -1.196636
     38          1           0       -8.145092    0.377538   -0.265388
     39          1           0       -7.892530   -0.295929    1.351880
     40          1           0       -8.612634   -1.296383    0.079145
 ---------------------------------------------------------------------

 SCF Done:  E(RHF) =  -470.733023969     A.U. after   11 cycles
 E2 =    -0.1582387089D+01 EUMP2 =    -0.47231541105777D+03

 The electronic state is 1-A.
 Alpha  occ. eigenvalues --  -11.21591 -11.21588 -11.21585 -11.21565 -11.21392
 Alpha  occ. eigenvalues --  -11.21381 -11.21332 -11.21321 -11.21067 -11.21063
 Alpha  occ. eigenvalues --  -11.21060 -11.20967  -1.08420  -1.08401  -1.03540
 Alpha  occ. eigenvalues --   -1.03482  -0.96025  -0.95902  -0.87065  -0.86898
 Alpha  occ. eigenvalues --   -0.79614  -0.79534  -0.78228  -0.78219  -0.65048
 Alpha  occ. eigenvalues --   -0.65035  -0.60938  -0.60896  -0.59618  -0.59114
 Alpha  occ. eigenvalues --   -0.57703  -0.57433  -0.55268  -0.55232  -0.52966
 Alpha  occ. eigenvalues --   -0.52474  -0.52426  -0.52186  -0.49920  -0.49869
 Alpha  occ. eigenvalues --   -0.47953  -0.47823  -0.46633  -0.46576  -0.45776
 Alpha  occ. eigenvalues --   -0.45757  -0.45698  -0.45680  -0.43915  -0.43581
 Alpha virt. eigenvalues --    0.22048   0.23004   0.23513   0.24981   0.26527
 Alpha virt. eigenvalues --    0.26678   0.27126   0.27431   0.27627   0.28909
 Alpha virt. eigenvalues --    0.30520   0.31233   0.31450   0.31939   0.32083

 Mulliken charges:
               1
     1  C   -0.298317
     2  C   -0.299657
     3  C   -0.475702
     4  H    0.149576
     5  H    0.149647
     6  H    0.151886
     7  H    0.151982
     8  H    0.155196
     9  H    0.155140
    10  H    0.160220
    11  C   -0.298543
    12  C   -0.300384
    13  C   -0.478674
    14  H    0.149450
    15  H    0.149933
    16  H    0.151726
    17  H    0.153545
    18  H    0.156584
    19  H    0.155414
    20  H    0.161645
    21  C   -0.298340
    22  C   -0.299142
    23  C   -0.483810
    24  H    0.149475
    25  H    0.149401
    26  H    0.151432
    27  H    0.151823
    28  H    0.154287
    29  H    0.154150
    30  H    0.170241
    31  C   -0.298204
    32  C   -0.299605
    33  C   -0.475684
    34  H    0.149438
    35  H    0.149607
    36  H    0.151880
    37  H    0.151876
    38  H    0.155164
    39  H    0.155154
    40  H    0.160189
 Sum of Mulliken charges =  -0.00000

 Dipole moment (field-independent basis, Debye):
    X=              0.0304    Y=              0.0140    Z=             -0.0029  Tot=              0.0336
 Quadrupole moment (field-independent basis, Debye-Ang):
   XX=            -86.3824   YY=            -84.7930   ZZ=            -83.7158
   XY=              1.0220   XZ=              0.4435   YZ=              0.2236

 Normal termination of Gaussian 16 at Thu May  6 03:51:09 2021.
