 Gaussian 16, Revision A.03,
 Gaussian 16:  EM64L-G16RevA.03 25-Dec-2016

 -------------
 #p 6-31g* mp2
 -------------

 ------------------------------------------------------
 Input file generated by CHIRIPA (05-May-2021 14:53:14)
 ------------------------------------------------------
 Symbolic Z-matrix:
 Charge =  0 Multiplicity = 1

                         Standard orientation:
 ---------------------------------------------------------------------
 Center     Atomic      Atomic             Coordinates (Angstroms)
 Number     Number       Type             X           Y           Z
 ---------------------------------------------------------------------
      1          6           0       -2.807283   -0.455074   -0.073723
      2          6           0       -3.470076   -1.768569   -0.490157
      3          6           0       -2.590481   -2.988254   -0.213616
      4          1           0       -1.852347   -0.348606   -0.606365
      5          1           0       -2.564773   -0.498196    0.997129
      6          1           0       -3.712517   -1.722445   -1.559602
      7          1           0       -4.423636   -1.871831    0.043394
      8          1           0       -2.358973   -3.062193    0.853875
      9          1           0       -1.643814   -2.911958   -0.758228
     10          1           0       -3.083649   -3.916399   -0.518891
     11          6           0       -3.674333    0.773325   -0.343886
     12          6           0       -3.011539    2.086821    0.072548
     13          6           0       -3.891135    3.306506   -0.203993
     14          1           0       -3.916842    0.816447   -1.414739
     15          1           0       -4.629269    0.666858    0.188755
     16          1           0       -2.057979    2.190083   -0.461003
     17          1           0       -2.769098    2.040697    1.141992
     18          1           0       -4.837802    3.230210    0.340619
     19          1           0       -4.122642    3.380444   -1.271484
     20          1           0       -3.397966    4.234651    0.101281
     21          6           0        4.446150    1.262100   -0.719675
     22          6           0        4.078488    0.080570   -1.371852
     23          6           0        3.019439   -0.695519   -0.891592
     24          6           0        2.346817   -0.258350    0.248474
     25          6           0        2.689340    0.914040    0.920387
     26          6           0        3.751628    1.674337    0.422349
     27          1           0        5.270103    1.858851   -1.099658
     28          1           0        4.616073   -0.242024   -2.258969
     29          1           0        2.713818   -1.614451   -1.376955
     30          1           0        2.134592    1.209846    1.802527
     31          1           0        4.034959    2.591485    0.930884
     32          7           0        1.223935   -1.071602    0.766315
     33          8           0        0.647272   -0.664697    1.772559
     34          8           0        0.941744   -2.100535    0.156149
 ---------------------------------------------------------------------

 SCF Done:  E(RHF) =  -669.536039850     A.U. after   15 cycles
 E2 =    -0.2092131262D+01 EUMP2 =    -0.67162817111110D+03

 The electronic state is 1-A.
 Alpha  occ. eigenvalues --  -20.60955 -20.60943 -15.85970 -11.31300 -11.27864
 Alpha  occ. eigenvalues --  -11.27857 -11.27599 -11.26870 -11.26859 -11.20945
 Alpha  occ. eigenvalues --  -11.20598 -11.20506 -11.20308 -11.20089 -11.19277
 Alpha  occ. eigenvalues --   -1.59999  -1.39557  -1.19467  -1.08870  -1.07405
 Alpha  occ. eigenvalues --   -1.04864  -1.02477  -0.95712  -0.94899  -0.86264
 Alpha  occ. eigenvalues --   -0.85908  -0.82548  -0.78595  -0.77599  -0.77132
 Alpha  occ. eigenvalues --   -0.72198  -0.71305  -0.70575  -0.65123  -0.64866
 Alpha  occ. eigenvalues --   -0.64052  -0.62211  -0.59885  -0.58357  -0.56493
 Alpha  occ. eigenvalues --   -0.55367  -0.54182  -0.53196  -0.52956  -0.51641
 Alpha  occ. eigenvalues --   -0.51296  -0.49040  -0.48946  -0.48775  -0.46836
 Alpha  occ. eigenvalues --   -0.45667  -0.45032  -0.44627  -0.44458  -0.42735
 Alpha  occ. eigenvalues --   -0.37445  -0.36465
 Alpha virt. eigenvalues --    0.04903   0.11190   0.16379   0.21317   0.23771
 Alpha virt. eigenvalues --    0.25423   0.27244   0.27563   0.28069   0.28544
 Alpha virt. eigenvalues --    0.29185   0.30930   0.32290   0.32518   0.32632

 Mulliken charges:
               1
     1  C   -0.296866
     2  C   -0.300350
     3  C   -0.476595
     4  H    0.145017
     5  H    0.162599
     6  H    0.144651
     7  H    0.146523
     8  H    0.162077
     9  H    0.170414
    10  H    0.149036
    11  C   -0.297945
    12  C   -0.298156
    13  C   -0.474846
    14  H    0.145362
    15  H    0.147647
    16  H    0.147371
    17  H    0.154406
    18  H    0.154857
    19  H    0.153343
    20  H    0.156388
    21  C   -0.170594
    22  C   -0.218556
    23  C   -0.171007
    24  C    0.157820
    25  C   -0.170426
    26  C   -0.218585
    27  H    0.226033
    28  H    0.223824
    29  H    0.275569
    30  H    0.276015
    31  H    0.223908
    32  N    0.489809
    33  O   -0.458662
    34  O   -0.460082
 Sum of Mulliken charges =  -0.00000

 Dipole moment (field-independent basis, Debye):
    X=              4.2735    Y=              2.7696    Z=             -1.6710  Tot=              5.3596
 Quadrupole moment (field-independent basis, Debye-Ang):
   XX=            -77.9316   YY=            -95.9516   ZZ=            -92.4473
   XY=              5.9453   XZ=             -4.9758   YZ=              3.9930

 Normal termination of Gaussian 16 at Thu May  6 02:37:57 2021.
