 Gaussian 16, Revision A.03,
 Gaussian 16:  EM64L-G16RevA.03 25-Dec-2016

 -------------
 #p 6-31g* mp2
 -------------

 ------------------------------------------------------
 Input file generated by CHIRIPA (05-May-2021 14:51:09)
 ------------------------------------------------------
 Symbolic Z-matrix:
 Charge =  0 Multiplicity = 1

                         Standard orientation:
 ---------------------------------------------------------------------
 Center     Atomic      Atomic             Coordinates (Angstroms)
 Number     Number       Type             X           Y           Z
 ---------------------------------------------------------------------
      1          6           0       -3.276367    1.261605   -0.254514
      2          6           0       -2.076545    1.837171    0.498569
      3          6           0       -1.700648    3.241967    0.026293
      4          1           0       -3.050701    1.240456   -1.329490
      5          1           0       -4.136265    1.934042   -0.128818
      6          1           0       -1.219547    1.163144    0.372635
      7          1           0       -2.305019    1.856774    1.571896
      8          1           0       -2.538133    3.932824    0.167492
      9          1           0       -1.446493    3.235253   -1.038584
     10          1           0       -0.840570    3.634224    0.577890
     11          6           0       -3.664247   -0.142266    0.206381
     12          6           0       -4.864070   -0.717832   -0.546702
     13          6           0       -5.239966   -2.122628   -0.074426
     14          1           0       -2.804349   -0.814702    0.080685
     15          1           0       -3.889913   -0.121117    1.281357
     16          1           0       -4.635595   -0.737435   -1.620029
     17          1           0       -5.721067   -0.043805   -0.420768
     18          1           0       -5.494121   -2.115914    0.990451
     19          1           0       -4.402482   -2.813485   -0.215625
     20          1           0       -6.100045   -2.514884   -0.626023
     21          6           0        2.796081   -0.746483   -0.282448
     22          6           0        1.765588   -1.202391    0.751099
     23          6           0        0.421863   -1.572702    0.122555
     24          1           0        2.396904    0.116437   -0.832879
     25          1           0        2.943680   -1.546973   -1.020570
     26          1           0        1.621002   -0.401812    1.487837
     27          1           0        2.167341   -2.064205    1.299263
     28          1           0        0.545242   -2.387337   -0.598381
     29          1           0       -0.004202   -0.715498   -0.408735
     30          1           0       -0.299883   -1.895737    0.879254
     31          6           0        4.144534   -0.372856    0.330581
     32          6           0        5.175026    0.083051   -0.702966
     33          6           0        6.518751    0.453363   -0.074422
     34          1           0        3.996935    0.427634    1.068703
     35          1           0        4.543710   -1.235776    0.881012
     36          1           0        4.773272    0.944865   -1.251130
     37          1           0        5.319612   -0.717528   -1.439704
     38          1           0        6.944816   -0.403841    0.456868
     39          1           0        6.395372    1.267998    0.646514
     40          1           0        7.240497    0.776398   -0.831121
 ---------------------------------------------------------------------

 SCF Done:  E(RHF) =  -470.732998413     A.U. after   11 cycles
 E2 =    -0.1583193110D+01 EUMP2 =    -0.47231619152295D+03

 The electronic state is 1-A.
 Alpha  occ. eigenvalues --  -11.21655 -11.21622 -11.21554 -11.21548 -11.21441
 Alpha  occ. eigenvalues --  -11.21380 -11.21352 -11.21273 -11.21136 -11.21086
 Alpha  occ. eigenvalues --  -11.21073 -11.21028  -1.08472  -1.08382  -1.03578
 Alpha  occ. eigenvalues --   -1.03491  -0.96029  -0.95943  -0.87049  -0.86961
 Alpha  occ. eigenvalues --   -0.79651  -0.79553  -0.78292  -0.78178  -0.65181
 Alpha  occ. eigenvalues --   -0.64959  -0.61091  -0.60792  -0.59393  -0.59312
 Alpha  occ. eigenvalues --   -0.57636  -0.57550  -0.55332  -0.55235  -0.52749
 Alpha  occ. eigenvalues --   -0.52630  -0.52456  -0.52357  -0.50049  -0.49851
 Alpha  occ. eigenvalues --   -0.47999  -0.47837  -0.46787  -0.46515  -0.45885
 Alpha  occ. eigenvalues --   -0.45761  -0.45722  -0.45450  -0.43806  -0.43737
 Alpha virt. eigenvalues --    0.20956   0.23025   0.23875   0.24492   0.26057
 Alpha virt. eigenvalues --    0.26722   0.27105   0.27507   0.27990   0.29363
 Alpha virt. eigenvalues --    0.30069   0.31609   0.31664   0.31846   0.32162

 Mulliken charges:
               1
     1  C   -0.297562
     2  C   -0.306981
     3  C   -0.475318
     4  H    0.148995
     5  H    0.149383
     6  H    0.159077
     7  H    0.151773
     8  H    0.155365
     9  H    0.154674
    10  H    0.159621
    11  C   -0.304068
    12  C   -0.299328
    13  C   -0.475763
    14  H    0.156652
    15  H    0.148925
    16  H    0.151808
    17  H    0.151595
    18  H    0.154914
    19  H    0.155392
    20  H    0.160042
    21  C   -0.298496
    22  C   -0.301004
    23  C   -0.480906
    24  H    0.149566
    25  H    0.149594
    26  H    0.152945
    27  H    0.152423
    28  H    0.155456
    29  H    0.158475
    30  H    0.162304
    31  C   -0.298343
    32  C   -0.299702
    33  C   -0.475733
    34  H    0.149698
    35  H    0.149748
    36  H    0.152049
    37  H    0.151929
    38  H    0.155205
    39  H    0.155261
    40  H    0.160336
 Sum of Mulliken charges =  -0.00000

 Dipole moment (field-independent basis, Debye):
    X=              0.0403    Y=             -0.0296    Z=              0.0074  Tot=              0.0506
 Quadrupole moment (field-independent basis, Debye-Ang):
   XX=            -85.6178   YY=            -84.8621   ZZ=            -84.4411
   XY=             -1.2512   XZ=             -0.6921   YZ=              0.5260

 Normal termination of Gaussian 16 at Wed May  5 18:09:20 2021.
