 Gaussian 16, Revision A.03,
 Gaussian 16:  EM64L-G16RevA.03 25-Dec-2016

 -------------
 #p 6-31g* mp2
 -------------

 ------------------------------------------------------
 Input file generated by CHIRIPA (05-May-2021 14:53:14)
 ------------------------------------------------------
 Symbolic Z-matrix:
 Charge =  0 Multiplicity = 1

                         Standard orientation:
 ---------------------------------------------------------------------
 Center     Atomic      Atomic             Coordinates (Angstroms)
 Number     Number       Type             X           Y           Z
 ---------------------------------------------------------------------
      1          6           0        2.939384    1.315229   -0.410282
      2          6           0        1.844780    1.951767    0.446833
      3          6           0        1.272686    3.225864   -0.175404
      4          1           0        3.746609    2.044459   -0.563763
      5          1           0        2.530820    1.087337   -1.404533
      6          1           0        2.254905    2.177124    1.439621
      7          1           0        1.040155    1.220872    0.598451
      8          1           0        0.837743    3.013306   -1.157363
      9          1           0        2.059395    3.974991   -0.311414
     10          1           0        0.491837    3.664314    0.453800
     11          6           0        3.521162    0.040631    0.198539
     12          6           0        4.615766   -0.595906   -0.658576
     13          6           0        5.187861   -1.870003   -0.036340
     14          1           0        3.929727    0.268524    1.192790
     15          1           0        2.713937   -0.688599    0.352020
     16          1           0        5.420391    0.134988   -0.810195
     17          1           0        4.205642   -0.821263   -1.651364
     18          1           0        4.401152   -2.619130    0.099671
     19          1           0        5.622803   -1.657445    0.945620
     20          1           0        5.968709   -2.308454   -0.665543
     21          6           0       -1.095693   -2.591011    0.361243
     22          6           0       -2.277312   -2.653546   -0.384668
     23          6           0       -3.076307   -1.517655   -0.545624
     24          6           0       -2.661700   -0.330347    0.055785
     25          6           0       -1.489842   -0.236197    0.804900
     26          6           0       -0.706414   -1.384662    0.952603
     27          1           0       -0.481061   -3.478282    0.481130
     28          1           0       -2.582106   -3.589062   -0.845058
     29          1           0       -3.995859   -1.537970   -1.117838
     30          1           0       -1.212087    0.710607    1.251927
     31          1           0        0.210746   -1.333150    1.532438
     32          7           0       -3.499320    0.878827   -0.107597
     33          8           0       -3.112035    1.912828    0.432300
     34          8           0       -4.527271    0.769680   -0.772459
 ---------------------------------------------------------------------

 SCF Done:  E(RHF) =  -669.535114734     A.U. after   15 cycles
 E2 =    -0.2092835613D+01 EUMP2 =    -0.67162795034708D+03

 The electronic state is 1-A.
 Alpha  occ. eigenvalues --  -20.60794 -20.60788 -15.85847 -11.31223 -11.27806
 Alpha  occ. eigenvalues --  -11.27775 -11.27547 -11.26818 -11.26799 -11.22100
 Alpha  occ. eigenvalues --  -11.21977 -11.21966 -11.21755 -11.21614 -11.21072
 Alpha  occ. eigenvalues --   -1.59868  -1.39421  -1.19407  -1.08885  -1.08794
 Alpha  occ. eigenvalues --   -1.04818  -1.03914  -0.96340  -0.95628  -0.87347
 Alpha  occ. eigenvalues --   -0.86204  -0.82468  -0.80005  -0.78745  -0.77491
 Alpha  occ. eigenvalues --   -0.72066  -0.71191  -0.70520  -0.65540  -0.65053
 Alpha  occ. eigenvalues --   -0.64814  -0.62217  -0.61259  -0.59709  -0.57961
 Alpha  occ. eigenvalues --   -0.55632  -0.55307  -0.53153  -0.52987  -0.52897
 Alpha  occ. eigenvalues --   -0.52756  -0.50275  -0.48826  -0.48823  -0.48299
 Alpha  occ. eigenvalues --   -0.47041  -0.46262  -0.46160  -0.44822  -0.44168
 Alpha  occ. eigenvalues --   -0.37386  -0.36372
 Alpha virt. eigenvalues --    0.04983   0.11153   0.16342   0.20169   0.22804
 Alpha virt. eigenvalues --    0.23664   0.24987   0.26491   0.26637   0.28325
 Alpha virt. eigenvalues --    0.29375   0.31016   0.31227   0.31474   0.31979

 Mulliken charges:
               1
     1  C   -0.297357
     2  C   -0.306183
     3  C   -0.476841
     4  H    0.152352
     5  H    0.152044
     6  H    0.151363
     7  H    0.145333
     8  H    0.158817
     9  H    0.155553
    10  H    0.168358
    11  C   -0.299657
    12  C   -0.299941
    13  C   -0.475281
    14  H    0.149794
    15  H    0.142065
    16  H    0.154696
    17  H    0.153248
    18  H    0.150558
    19  H    0.155960
    20  H    0.162371
    21  C   -0.171590
    22  C   -0.218522
    23  C   -0.170974
    24  C    0.157177
    25  C   -0.171984
    26  C   -0.220332
    27  H    0.225839
    28  H    0.223674
    29  H    0.275800
    30  H    0.278720
    31  H    0.227342
    32  N    0.488159
    33  O   -0.460235
    34  O   -0.460326
 Sum of Mulliken charges =  -0.00000

 Dipole moment (field-independent basis, Debye):
    X=              2.9627    Y=             -4.1561    Z=              0.4974  Tot=              5.1282
 Quadrupole moment (field-independent basis, Debye-Ang):
   XX=           -108.2812   YY=            -91.1502   ZZ=            -93.6423
   XY=             13.4223   XZ=              0.6909   YZ=              1.7663

 Normal termination of Gaussian 16 at Thu May  6 12:06:51 2021.
