 Gaussian 16, Revision A.03,
 Gaussian 16:  EM64L-G16RevA.03 25-Dec-2016

 -------------
 #p 6-31g* mp2
 -------------

 ------------------------------------------------------
 Input file generated by CHIRIPA (05-May-2021 14:55:22)
 ------------------------------------------------------
 Symbolic Z-matrix:
 Charge =  0 Multiplicity = 1

                         Standard orientation:
 ---------------------------------------------------------------------
 Center     Atomic      Atomic             Coordinates (Angstroms)
 Number     Number       Type             X           Y           Z
 ---------------------------------------------------------------------
      1          6           0       -2.568963    2.087130   -0.178899
      2          6           0       -3.953714    2.224462   -0.037035
      3          6           0       -4.777021    1.095965    0.019609
      4          6           0       -4.179330   -0.160299   -0.069025
      5          6           0       -2.802936   -0.329805   -0.210788
      6          6           0       -1.998998    0.812682   -0.265171
      7          1           0       -1.936922    2.969207   -0.222022
      8          1           0       -4.399115    3.212966    0.030213
      9          1           0       -5.851932    1.173448    0.129064
     10          1           0       -2.388001   -1.328352   -0.275214
     11          1           0       -0.923885    0.703005   -0.375383
     12          7           0       -5.040675   -1.362393   -0.010256
     13          8           0       -4.489572   -2.458055   -0.090545
     14          8           0       -6.250592   -1.186171    0.114984
     15          6           0        5.859713    0.181696   -0.126816
     16          6           0        6.936371   -0.893478    0.024156
     17          6           0        8.315053   -0.418101   -0.435244
     18          1           0        5.809209    0.495912   -1.178320
     19          1           0        6.153900    1.068967    0.450765
     20          1           0        6.639574   -1.778966   -0.552420
     21          1           0        6.984185   -1.205309    1.075389
     22          1           0        8.636525    0.451435    0.147136
     23          1           0        8.289954   -0.125482   -1.489921
     24          1           0        9.069551   -1.202312   -0.318609
     25          6           0        4.475954   -0.278517    0.328315
     26          6           0        3.399296    0.796658    0.177343
     27          6           0        2.020614    0.321280    0.636742
     28          1           0        4.181766   -1.165787   -0.249266
     29          1           0        4.526458   -0.592733    1.379819
     30          1           0        3.351480    1.108488   -0.873890
     31          1           0        3.696093    1.682146    0.753918
     32          1           0        2.045712    0.028661    1.691420
     33          1           0        1.699142   -0.548255    0.054363
     34          1           0        1.266116    1.105492    0.520107
 ---------------------------------------------------------------------

 SCF Done:  E(RHF) =  -669.535488555     A.U. after   15 cycles
 E2 =    -0.2090792693D+01 EUMP2 =    -0.67162628124833D+03

 The electronic state is 1-A.
 Alpha  occ. eigenvalues --  -20.60707 -20.60702 -15.85759 -11.31111 -11.27679
 Alpha  occ. eigenvalues --  -11.27660 -11.27416 -11.26700 -11.26623 -11.22416
 Alpha  occ. eigenvalues --  -11.22176 -11.21992 -11.21976 -11.21848 -11.21385
 Alpha  occ. eigenvalues --   -1.59782  -1.39336  -1.19278  -1.09015  -1.08679
 Alpha  occ. eigenvalues --   -1.04677  -1.04160  -0.96631  -0.95517  -0.87662
 Alpha  occ. eigenvalues --   -0.86075  -0.82347  -0.80232  -0.78786  -0.77395
 Alpha  occ. eigenvalues --   -0.71978  -0.71105  -0.70395  -0.65640  -0.64930
 Alpha  occ. eigenvalues --   -0.64710  -0.62072  -0.61539  -0.60016  -0.58217
 Alpha  occ. eigenvalues --   -0.55906  -0.55189  -0.53478  -0.53059  -0.53006
 Alpha  occ. eigenvalues --   -0.52619  -0.50552  -0.48736  -0.48734  -0.48540
 Alpha  occ. eigenvalues --   -0.47239  -0.46339  -0.46234  -0.44745  -0.44400
 Alpha  occ. eigenvalues --   -0.37264  -0.36276
 Alpha virt. eigenvalues --    0.05134   0.11344   0.16626   0.20360   0.22484
 Alpha virt. eigenvalues --    0.23808   0.25951   0.26234   0.26851   0.27949
 Alpha virt. eigenvalues --    0.28742   0.30635   0.30752   0.31216   0.31863

 Mulliken charges:
               1
     1  C   -0.172850
     2  C   -0.218380
     3  C   -0.171474
     4  C    0.158858
     5  C   -0.172859
     6  C   -0.224912
     7  H    0.224801
     8  H    0.222997
     9  H    0.275271
    10  H    0.275577
    11  H    0.234227
    12  N    0.488032
    13  O   -0.460560
    14  O   -0.460724
    15  C   -0.298804
    16  C   -0.300176
    17  C   -0.476028
    18  H    0.150057
    19  H    0.150082
    20  H    0.152878
    21  H    0.152845
    22  H    0.155463
    23  H    0.155500
    24  H    0.161681
    25  C   -0.299407
    26  C   -0.299418
    27  C   -0.480642
    28  H    0.150992
    29  H    0.151579
    30  H    0.152216
    31  H    0.153935
    32  H    0.162114
    33  H    0.154878
    34  H    0.152251
 Sum of Mulliken charges =  -0.00000

 Dipole moment (field-independent basis, Debye):
    X=              3.2870    Y=              4.2064    Z=             -0.1714  Tot=              5.3411
 Quadrupole moment (field-independent basis, Debye-Ang):
   XX=           -117.4026   YY=            -94.8222   ZZ=            -94.7168
   XY=            -21.2447   XZ=              0.8082   YZ=              0.4294

 Normal termination of Gaussian 16 at Thu May  6 04:37:52 2021.
