 Gaussian 16, Revision A.03,
 Gaussian 16:  EM64L-G16RevA.03 25-Dec-2016

 -------------
 #p 6-31g* mp2
 -------------

 ------------------------------------------------------
 Input file generated by CHIRIPA (05-May-2021 14:55:21)
 ------------------------------------------------------
 Symbolic Z-matrix:
 Charge =  0 Multiplicity = 1

                         Standard orientation:
 ---------------------------------------------------------------------
 Center     Atomic      Atomic             Coordinates (Angstroms)
 Number     Number       Type             X           Y           Z
 ---------------------------------------------------------------------
      1          6           0       -3.930176    2.016426   -0.950151
      2          6           0       -4.191970    0.680580   -1.271866
      3          6           0       -3.531304   -0.353626   -0.602174
      4          6           0       -2.610868   -0.014408    0.388291
      5          6           0       -2.328393    1.306832    0.731544
      6          6           0       -3.000861    2.324745    0.048765
      7          1           0       -4.447982    2.813494   -1.475467
      8          1           0       -4.913182    0.438173   -2.047195
      9          1           0       -3.714877   -1.396349   -0.831186
     10          1           0       -1.604127    1.517258    1.509090
     11          1           0       -2.795547    3.361284    0.300714
     12          7           0       -1.905203   -1.100652    1.104191
     13          8           0       -1.098794   -0.775445    1.972858
     14          8           0       -2.171874   -2.256687    0.783090
     15          6           0        4.169930    0.020248   -0.083606
     16          6           0        4.329792    1.540860   -0.070687
     17          6           0        5.693659    1.987426    0.456799
     18          1           0        4.315278   -0.366011    0.934542
     19          1           0        4.965018   -0.419810   -0.701327
     20          1           0        3.533816    1.978013    0.545701
     21          1           0        4.183857    1.923562   -1.088949
     22          1           0        6.498805    1.578657   -0.162271
     23          1           0        5.845070    1.633417    1.481667
     24          1           0        5.786439    3.077953    0.457369
     25          6           0        2.811627   -0.441669   -0.608367
     26          6           0        2.651764   -1.962281   -0.621286
     27          6           0        1.287898   -2.408847   -1.148773
     28          1           0        2.016539   -0.001611    0.009354
     29          1           0        2.666279   -0.055410   -1.626515
     30          1           0        2.797699   -2.344983    0.396976
     31          1           0        3.447741   -2.399435   -1.237675
     32          1           0        1.136486   -2.054838   -2.173640
     33          1           0        0.482752   -2.000078   -0.529702
     34          1           0        1.195117   -3.499374   -1.149342
 ---------------------------------------------------------------------

 SCF Done:  E(RHF) =  -669.535992319     A.U. after   15 cycles
 E2 =    -0.2091442136D+01 EUMP2 =    -0.67162743445510D+03

 The electronic state is 1-A.
 Alpha  occ. eigenvalues --  -20.60927 -20.60912 -15.85943 -11.31261 -11.27829
 Alpha  occ. eigenvalues --  -11.27820 -11.27564 -11.26831 -11.26821 -11.21286
 Alpha  occ. eigenvalues --  -11.20903 -11.20820 -11.20810 -11.20749 -11.20145
 Alpha  occ. eigenvalues --   -1.59990  -1.39541  -1.19431  -1.08839  -1.07881
 Alpha  occ. eigenvalues --   -1.04826  -1.02957  -0.95682  -0.95402  -0.86423
 Alpha  occ. eigenvalues --   -0.86227  -0.82515  -0.79046  -0.77689  -0.77569
 Alpha  occ. eigenvalues --   -0.72166  -0.71329  -0.70541  -0.65086  -0.64830
 Alpha  occ. eigenvalues --   -0.64500  -0.62174  -0.60337  -0.58799  -0.57018
 Alpha  occ. eigenvalues --   -0.55334  -0.54679  -0.53156  -0.52918  -0.52094
 Alpha  occ. eigenvalues --   -0.51843  -0.49375  -0.48931  -0.48898  -0.47360
 Alpha  occ. eigenvalues --   -0.46078  -0.45231  -0.45124  -0.44934  -0.43212
 Alpha  occ. eigenvalues --   -0.37410  -0.36424
 Alpha virt. eigenvalues --    0.04936   0.11225   0.16418   0.21342   0.23384
 Alpha virt. eigenvalues --    0.24841   0.26979   0.27306   0.27866   0.28379
 Alpha virt. eigenvalues --    0.28530   0.30830   0.31898   0.32287   0.32403

 Mulliken charges:
               1
     1  C   -0.170480
     2  C   -0.218630
     3  C   -0.170400
     4  C    0.157760
     5  C   -0.170728
     6  C   -0.218489
     7  H    0.225926
     8  H    0.223791
     9  H    0.276147
    10  H    0.275439
    11  H    0.223764
    12  N    0.486715
    13  O   -0.460541
    14  O   -0.457395
    15  C   -0.298029
    16  C   -0.298913
    17  C   -0.475399
    18  H    0.152071
    19  H    0.148034
    20  H    0.150456
    21  H    0.149560
    22  H    0.154794
    23  H    0.156020
    24  H    0.157935
    25  C   -0.299237
    26  C   -0.298905
    27  C   -0.476680
    28  H    0.152616
    29  H    0.144987
    30  H    0.157471
    31  H    0.147662
    32  H    0.146887
    33  H    0.163390
    34  H    0.162398
 Sum of Mulliken charges =  -0.00000

 Dipole moment (field-independent basis, Debye):
    X=             -2.6586    Y=              3.7595    Z=             -2.4256  Tot=              5.2043
 Quadrupole moment (field-independent basis, Debye-Ang):
   XX=            -82.1811   YY=            -93.0288   ZZ=            -95.2384
   XY=             -8.8623   XZ=              6.9983   YZ=              3.3262

 Normal termination of Gaussian 16 at Wed May  5 17:28:16 2021.
