 Gaussian 16, Revision A.03,
 Gaussian 16:  EM64L-G16RevA.03 25-Dec-2016

 -------------
 #p 6-31g* mp2
 -------------

 ------------------------------------------------------
 Input file generated by CHIRIPA (05-May-2021 14:55:19)
 ------------------------------------------------------
 Symbolic Z-matrix:
 Charge =  0 Multiplicity = 1

                         Standard orientation:
 ---------------------------------------------------------------------
 Center     Atomic      Atomic             Coordinates (Angstroms)
 Number     Number       Type             X           Y           Z
 ---------------------------------------------------------------------
      1          6           0       -4.187693   -0.200596   -1.322605
      2          6           0       -3.992454    0.827176   -0.394119
      3          6           0       -2.920437    0.780229    0.502052
      4          6           0       -2.059166   -0.314239    0.441692
      5          6           0       -2.227157   -1.353754   -0.471806
      6          6           0       -3.305977   -1.285868   -1.358422
      7          1           0       -5.023104   -0.155993   -2.015062
      8          1           0       -4.675615    1.671232   -0.364021
      9          1           0       -2.745879    1.562202    1.231070
     10          1           0       -1.529381   -2.182300   -0.477761
     11          1           0       -3.455149   -2.085484   -2.078426
     12          7           0       -0.920669   -0.375023    1.385371
     13          8           0       -0.176044   -1.350099    1.311890
     14          8           0       -0.794497    0.553560    2.180638
     15          6           0        2.323715    0.907168   -0.264147
     16          6           0        2.762809    2.334658   -0.591947
     17          6           0        1.647207    3.359077   -0.382691
     18          1           0        1.459738    0.643389   -0.889373
     19          1           0        1.978884    0.867327    0.778398
     20          1           0        3.108009    2.371489   -1.633147
     21          1           0        3.625962    2.595002    0.033997
     22          1           0        1.307634    3.351660    0.658095
     23          1           0        0.786739    3.126878   -1.018521
     24          1           0        1.982774    4.372773   -0.622850
     25          6           0        3.428103   -0.128363   -0.468429
     26          6           0        2.989008   -1.555853   -0.140628
     27          6           0        4.104612   -2.580273   -0.349884
     28          1           0        3.772934   -0.088522   -1.510973
     29          1           0        4.292080    0.135416    0.156798
     30          1           0        2.125856   -1.816196   -0.766572
     31          1           0        2.643808   -1.592684    0.900572
     32          1           0        4.965079   -2.348073    0.285945
     33          1           0        4.444184   -2.572855   -1.390670
     34          1           0        3.769044   -3.593968   -0.109724
 ---------------------------------------------------------------------

 SCF Done:  E(RHF) =  -669.536317466     A.U. after   15 cycles
 E2 =    -0.2093206579D+01 EUMP2 =    -0.67162952404518D+03

 The electronic state is 1-A.
 Alpha  occ. eigenvalues --  -20.60988 -20.60964 -15.85967 -11.31295 -11.27853
 Alpha  occ. eigenvalues --  -11.27846 -11.27589 -11.26857 -11.26847 -11.20834
 Alpha  occ. eigenvalues --  -11.20430 -11.20390 -11.20322 -11.20232 -11.20111
 Alpha  occ. eigenvalues --   -1.60013  -1.39573  -1.19457  -1.08864  -1.07428
 Alpha  occ. eigenvalues --   -1.04851  -1.02583  -0.95709  -0.95086  -0.86253
 Alpha  occ. eigenvalues --   -0.86105  -0.82550  -0.78639  -0.77614  -0.77209
 Alpha  occ. eigenvalues --   -0.72201  -0.71289  -0.70566  -0.65114  -0.64857
 Alpha  occ. eigenvalues --   -0.64063  -0.62198  -0.59986  -0.58449  -0.56675
 Alpha  occ. eigenvalues --   -0.55359  -0.54388  -0.53183  -0.52943  -0.51805
 Alpha  occ. eigenvalues --   -0.51503  -0.49071  -0.49014  -0.48942  -0.46984
 Alpha  occ. eigenvalues --   -0.45674  -0.45164  -0.44617  -0.44446  -0.42830
 Alpha  occ. eigenvalues --   -0.37429  -0.36451
 Alpha virt. eigenvalues --    0.04888   0.11190   0.16365   0.21265   0.23780
 Alpha virt. eigenvalues --    0.25080   0.26836   0.27522   0.27960   0.28791
 Alpha virt. eigenvalues --    0.28974   0.30974   0.31832   0.32422   0.32746

 Mulliken charges:
               1
     1  C   -0.170532
     2  C   -0.218681
     3  C   -0.170342
     4  C    0.158930
     5  C   -0.171501
     6  C   -0.218654
     7  H    0.226019
     8  H    0.223948
     9  H    0.276091
    10  H    0.276110
    11  H    0.223830
    12  N    0.491099
    13  O   -0.458817
    14  O   -0.460725
    15  C   -0.304179
    16  C   -0.298112
    17  C   -0.476915
    18  H    0.138927
    19  H    0.170123
    20  H    0.147428
    21  H    0.151566
    22  H    0.162519
    23  H    0.148885
    24  H    0.156330
    25  C   -0.298246
    26  C   -0.299188
    27  C   -0.475905
    28  H    0.142665
    29  H    0.147562
    30  H    0.145413
    31  H    0.174606
    32  H    0.152912
    33  H    0.148949
    34  H    0.157882
 Sum of Mulliken charges =  -0.00000

 Dipole moment (field-independent basis, Debye):
    X=             -4.2467    Y=              0.1464    Z=             -3.0356  Tot=              5.2222
 Quadrupole moment (field-independent basis, Debye-Ang):
   XX=            -79.5606   YY=            -92.5588   ZZ=            -96.7426
   XY=              0.0883   XZ=              5.7755   YZ=              3.3079

 Normal termination of Gaussian 16 at Wed May  5 15:50:08 2021.
