 Gaussian 16, Revision A.03,
 Gaussian 16:  EM64L-G16RevA.03 25-Dec-2016

 -------------
 #p 6-31g* mp2
 -------------

 ------------------------------------------------------
 Input file generated by CHIRIPA (05-May-2021 14:51:12)
 ------------------------------------------------------
 Symbolic Z-matrix:
 Charge =  0 Multiplicity = 1

                         Standard orientation:
 ---------------------------------------------------------------------
 Center     Atomic      Atomic             Coordinates (Angstroms)
 Number     Number       Type             X           Y           Z
 ---------------------------------------------------------------------
      1          6           0        3.501724   -0.518928   -0.250559
      2          6           0        3.735593   -1.823192    0.512451
      3          6           0        2.914798   -2.987869   -0.042182
      4          1           0        2.433120   -0.266587   -0.213767
      5          1           0        3.750381   -0.672304   -1.309823
      6          1           0        3.487887   -1.667015    1.570216
      7          1           0        4.803794   -2.072357    0.474001
      8          1           0        3.167711   -3.172244   -1.091297
      9          1           0        1.844327   -2.764598    0.011147
     10          1           0        3.097289   -3.910262    0.517951
     11          6           0        4.315310    0.654656    0.292127
     12          6           0        4.081442    1.958920   -0.470883
     13          6           0        4.902236    3.123597    0.083749
     14          1           0        4.066653    0.808032    1.351391
     15          1           0        5.383915    0.402314    0.255335
     16          1           0        3.013240    2.208085   -0.432433
     17          1           0        4.329147    1.802743   -1.528648
     18          1           0        5.972707    2.900326    0.030421
     19          1           0        4.649323    3.307972    1.132864
     20          1           0        4.719745    4.045990   -0.476384
     21          6           0       -3.153275   -0.029954    0.086938
     22          6           0       -2.416429   -1.302679   -0.331646
     23          6           0       -0.906331   -1.211478   -0.110100
     24          1           0       -2.749354    0.822167   -0.476696
     25          1           0       -2.948872    0.171725    1.147570
     26          1           0       -2.623275   -1.502661   -1.390814
     27          1           0       -2.822282   -2.151899    0.232911
     28          1           0       -0.681974   -1.035702    0.946956
     29          1           0       -0.481837   -0.382775   -0.685996
     30          1           0       -0.399373   -2.131952   -0.416013
     31          6           0       -4.663759   -0.105774   -0.128505
     32          6           0       -5.400606    1.166952    0.290079
     33          6           0       -6.910703    1.075750    0.068532
     34          1           0       -4.868162   -0.307454   -1.189138
     35          1           0       -5.067680   -0.957894    0.435128
     36          1           0       -4.994752    2.016172   -0.274479
     37          1           0       -5.193759    1.366933    1.349247
     38          1           0       -7.335197    0.247046    0.644428
     39          1           0       -7.135061    0.899975   -0.988524
     40          1           0       -7.417661    1.996223    0.374445
 ---------------------------------------------------------------------

 SCF Done:  E(RHF) =  -470.733175078     A.U. after   11 cycles
 E2 =    -0.1582752258D+01 EUMP2 =    -0.47231592733551D+03

 The electronic state is 1-A.
 Alpha  occ. eigenvalues --  -11.21657 -11.21626 -11.21562 -11.21517 -11.21444
 Alpha  occ. eigenvalues --  -11.21382 -11.21331 -11.21259 -11.21154 -11.21090
 Alpha  occ. eigenvalues --  -11.21041 -11.20946  -1.08471  -1.08358  -1.03581
 Alpha  occ. eigenvalues --   -1.03458  -0.96039  -0.95905  -0.87067  -0.86918
 Alpha  occ. eigenvalues --   -0.79676  -0.79500  -0.78288  -0.78161  -0.65099
 Alpha  occ. eigenvalues --   -0.64990  -0.60972  -0.60884  -0.59446  -0.59249
 Alpha  occ. eigenvalues --   -0.57703  -0.57470  -0.55339  -0.55187  -0.52818
 Alpha  occ. eigenvalues --   -0.52610  -0.52493  -0.52227  -0.49990  -0.49816
 Alpha  occ. eigenvalues --   -0.47958  -0.47832  -0.46671  -0.46562  -0.45870
 Alpha  occ. eigenvalues --   -0.45749  -0.45693  -0.45600  -0.43778  -0.43711
 Alpha virt. eigenvalues --    0.21761   0.22939   0.23668   0.24674   0.25703
 Alpha virt. eigenvalues --    0.26595   0.27003   0.27216   0.27861   0.29123
 Alpha virt. eigenvalues --    0.30207   0.31220   0.31487   0.31814   0.32085

 Mulliken charges:
               1
     1  C   -0.302362
     2  C   -0.298519
     3  C   -0.483455
     4  H    0.154903
     5  H    0.148887
     6  H    0.151446
     7  H    0.151412
     8  H    0.154373
     9  H    0.163574
    10  H    0.159465
    11  C   -0.298103
    12  C   -0.299562
    13  C   -0.475636
    14  H    0.149339
    15  H    0.149422
    16  H    0.151703
    17  H    0.151740
    18  H    0.155126
    19  H    0.155133
    20  H    0.160024
    21  C   -0.298794
    22  C   -0.300063
    23  C   -0.480790
    24  H    0.149692
    25  H    0.149475
    26  H    0.152432
    27  H    0.152333
    28  H    0.154946
    29  H    0.156364
    30  H    0.165000
    31  C   -0.298291
    32  C   -0.299647
    33  C   -0.475726
    34  H    0.149677
    35  H    0.149761
    36  H    0.151983
    37  H    0.151927
    38  H    0.155227
    39  H    0.155251
    40  H    0.160332
 Sum of Mulliken charges =  -0.00000

 Dipole moment (field-independent basis, Debye):
    X=             -0.0615    Y=              0.0007    Z=             -0.0064  Tot=              0.0618
 Quadrupole moment (field-independent basis, Debye-Ang):
   XX=            -85.8598   YY=            -85.5699   ZZ=            -83.5715
   XY=             -0.4536   XZ=             -0.8554   YZ=             -0.4641

 Normal termination of Gaussian 16 at Thu May  6 05:31:09 2021.
