 Gaussian 16, Revision A.03,
 Gaussian 16:  EM64L-G16RevA.03 25-Dec-2016

 -------------
 #p 6-31g* mp2
 -------------

 ------------------------------------------------------
 Input file generated by CHIRIPA (05-May-2021 14:53:16)
 ------------------------------------------------------
 Symbolic Z-matrix:
 Charge =  0 Multiplicity = 1

                         Standard orientation:
 ---------------------------------------------------------------------
 Center     Atomic      Atomic             Coordinates (Angstroms)
 Number     Number       Type             X           Y           Z
 ---------------------------------------------------------------------
      1          6           0        3.773127    1.034153   -0.241704
      2          6           0        2.997369    1.923032    0.730961
      3          6           0        2.961190    3.387524    0.293069
      4          1           0        4.799101    1.415024   -0.337935
      5          1           0        3.317295    1.108551   -1.238738
      6          1           0        3.453687    1.845907    1.726170
      7          1           0        1.973178    1.539888    0.825034
      8          1           0        2.486735    3.484413   -0.688820
      9          1           0        3.975656    3.792171    0.217435
     10          1           0        2.401662    4.005013    1.002643
     11          6           0        3.818181   -0.432752    0.182426
     12          6           0        4.593940   -1.321631   -0.790240
     13          6           0        4.630118   -2.786123   -0.352348
     14          1           0        4.274014   -0.507150    1.179459
     15          1           0        2.792208   -0.813623    0.278656
     16          1           0        5.618131   -0.938487   -0.884313
     17          1           0        4.137622   -1.244506   -1.785449
     18          1           0        3.615653   -3.190770   -0.276714
     19          1           0        5.104573   -2.883012    0.629541
     20          1           0        5.189647   -3.403612   -1.061921
     21          6           0       -0.575179   -0.915653    0.458575
     22          6           0       -0.854379    0.322435   -0.129392
     23          6           0       -2.174935    0.710015   -0.375280
     24          6           0       -3.196429   -0.169111   -0.018939
     25          6           0       -2.950400   -1.409233    0.568308
     26          6           0       -1.622234   -1.776019    0.804937
     27          1           0        0.453616   -1.208658    0.645991
     28          1           0       -0.043231    0.992634   -0.399422
     29          1           0       -2.419447    1.662693   -0.829194
     30          1           0       -3.780155   -2.055955    0.826521
     31          1           0       -1.408377   -2.738144    1.261693
     32          7           0       -4.598470    0.230194   -0.274349
     33          8           0       -5.480539   -0.562355    0.048846
     34          8           0       -4.788773    1.328160   -0.792899
 ---------------------------------------------------------------------

 SCF Done:  E(RHF) =  -669.535038596     A.U. after   15 cycles
 E2 =    -0.2092432769D+01 EUMP2 =    -0.67162747136472D+03

 The electronic state is 1-A.
 Alpha  occ. eigenvalues --  -20.60747 -20.60742 -15.85800 -11.31167 -11.27739
 Alpha  occ. eigenvalues --  -11.27735 -11.27460 -11.26747 -11.26728 -11.22718
 Alpha  occ. eigenvalues --  -11.22620 -11.22534 -11.22456 -11.21988 -11.21953
 Alpha  occ. eigenvalues --   -1.59822  -1.39376  -1.19340  -1.09530  -1.08733
 Alpha  occ. eigenvalues --   -1.04747  -1.04533  -0.96975  -0.95571  -0.87986
 Alpha  occ. eigenvalues --   -0.86146  -0.82405  -0.80598  -0.79362  -0.77450
 Alpha  occ. eigenvalues --   -0.72019  -0.71145  -0.70475  -0.66238  -0.64988
 Alpha  occ. eigenvalues --   -0.64718  -0.62218  -0.61811  -0.60332  -0.58588
 Alpha  occ. eigenvalues --   -0.56315  -0.55238  -0.53626  -0.53382  -0.53070
 Alpha  occ. eigenvalues --   -0.52844  -0.50913  -0.48917  -0.48774  -0.48758
 Alpha  occ. eigenvalues --   -0.47635  -0.46880  -0.46795  -0.44809  -0.44781
 Alpha  occ. eigenvalues --   -0.37315  -0.36345
 Alpha virt. eigenvalues --    0.05086   0.11226   0.16572   0.18142   0.22252
 Alpha virt. eigenvalues --    0.23084   0.24829   0.25964   0.26993   0.27680
 Alpha virt. eigenvalues --    0.29604   0.30559   0.30911   0.31378   0.31656

 Mulliken charges:
               1
     1  C   -0.299793
     2  C   -0.305180
     3  C   -0.476984
     4  H    0.155422
     5  H    0.149097
     6  H    0.157058
     7  H    0.144779
     8  H    0.153853
     9  H    0.159782
    10  H    0.164281
    11  C   -0.303391
    12  C   -0.300117
    13  C   -0.475739
    14  H    0.153792
    15  H    0.141196
    16  H    0.156066
    17  H    0.153816
    18  H    0.151046
    19  H    0.156959
    20  H    0.164483
    21  C   -0.177892
    22  C   -0.225711
    23  C   -0.171252
    24  C    0.158422
    25  C   -0.170652
    26  C   -0.220039
    27  H    0.235587
    28  H    0.228591
    29  H    0.275852
    30  H    0.275530
    31  H    0.224072
    32  N    0.487957
    33  O   -0.460443
    34  O   -0.460447
 Sum of Mulliken charges =  -0.00000

 Dipole moment (field-independent basis, Debye):
    X=              5.2177    Y=             -1.3509    Z=              0.8952  Tot=              5.4636
 Quadrupole moment (field-independent basis, Debye-Ang):
   XX=           -124.3237   YY=            -91.4181   ZZ=            -94.5014
   XY=              5.7230   XZ=             -3.3007   YZ=             -1.6960

 Normal termination of Gaussian 16 at Thu May  6 20:29:21 2021.
