 Gaussian 16, Revision A.03,
 Gaussian 16:  EM64L-G16RevA.03 25-Dec-2016

 -------------
 #p 6-31g* mp2
 -------------

 ------------------------------------------------------
 Input file generated by CHIRIPA (05-May-2021 14:51:08)
 ------------------------------------------------------
 Symbolic Z-matrix:
 Charge =  0 Multiplicity = 1

                         Standard orientation:
 ---------------------------------------------------------------------
 Center     Atomic      Atomic             Coordinates (Angstroms)
 Number     Number       Type             X           Y           Z
 ---------------------------------------------------------------------
      1          6           0        3.064507   -0.378772   -0.669232
      2          6           0        2.182206   -1.626989   -0.630703
      3          6           0        2.862243   -2.850794   -1.245233
      4          1           0        3.338538   -0.163232   -1.711054
      5          1           0        4.002633   -0.584755   -0.135485
      6          1           0        1.245443   -1.418265   -1.163173
      7          1           0        1.910086   -1.839473    0.411131
      8          1           0        3.787418   -3.086956   -0.709621
      9          1           0        3.118999   -2.663355   -2.292870
     10          1           0        2.213895   -3.731736   -1.207210
     11          6           0        2.398495    0.852960   -0.058502
     12          6           0        3.280796    2.101177   -0.097031
     13          6           0        2.600759    3.324982    0.517499
     14          1           0        1.460369    1.058943   -0.592248
     15          1           0        2.124464    0.637420    0.983321
     16          1           0        3.552916    2.313661   -1.138865
     17          1           0        4.217559    1.892453    0.435440
     18          1           0        2.344004    3.137543    1.565137
     19          1           0        1.675584    3.561144   -0.018113
     20          1           0        3.249107    4.205924    0.479476
     21          6           0       -3.018137   -0.068072   -0.323667
     22          6           0       -4.398872    0.585855   -0.260924
     23          6           0       -4.959049    0.918061   -1.644265
     24          1           0       -2.325327    0.602721   -0.849971
     25          1           0       -3.081727   -0.985804   -0.924600
     26          1           0       -4.332989    1.501347    0.340865
     27          1           0       -5.088429   -0.086489    0.265460
     28          1           0       -5.053498    0.010792   -2.249693
     29          1           0       -4.293768    1.607651   -2.173859
     30          1           0       -5.946693    1.384707   -1.575993
     31          6           0       -2.444865   -0.406116    1.051402
     32          6           0       -1.064131   -1.060043    0.988657
     33          6           0       -0.503953   -1.392250    2.372000
     34          1           0       -2.381275    0.511615    1.652334
     35          1           0       -3.137676   -1.076909    1.577705
     36          1           0       -0.374573   -0.387698    0.462274
     37          1           0       -1.130012   -1.975535    0.386869
     38          1           0       -1.169234   -2.081839    2.901592
     39          1           0       -0.409503   -0.484980    2.977426
     40          1           0        0.483690   -1.858895    2.303727
 ---------------------------------------------------------------------

 SCF Done:  E(RHF) =  -470.731461181     A.U. after   11 cycles
 E2 =    -0.1585213677D+01 EUMP2 =    -0.47231667485794D+03

 The electronic state is 1-A.
 Alpha  occ. eigenvalues --  -11.21642 -11.21585 -11.21504 -11.21440 -11.21417
 Alpha  occ. eigenvalues --  -11.21367 -11.21364 -11.21281 -11.21119 -11.21066
 Alpha  occ. eigenvalues --  -11.21038 -11.21035  -1.08496  -1.08345  -1.03584
 Alpha  occ. eigenvalues --   -1.03440  -0.95998  -0.95953  -0.87014  -0.86966
 Alpha  occ. eigenvalues --   -0.79745  -0.79488  -0.78495  -0.77943  -0.65097
 Alpha  occ. eigenvalues --   -0.65012  -0.60960  -0.60892  -0.59577  -0.59148
 Alpha  occ. eigenvalues --   -0.57659  -0.57507  -0.55300  -0.55225  -0.52726
 Alpha  occ. eigenvalues --   -0.52625  -0.52449  -0.52358  -0.49945  -0.49884
 Alpha  occ. eigenvalues --   -0.48075  -0.47827  -0.46722  -0.46604  -0.46129
 Alpha  occ. eigenvalues --   -0.45721  -0.45647  -0.45055  -0.43792  -0.43724
 Alpha virt. eigenvalues --    0.21269   0.23149   0.23643   0.24270   0.24718
 Alpha virt. eigenvalues --    0.26362   0.26840   0.27850   0.28937   0.29890
 Alpha virt. eigenvalues --    0.29947   0.31056   0.31535   0.31966   0.32085

 Mulliken charges:
               1
     1  C   -0.297306
     2  C   -0.307257
     3  C   -0.475071
     4  H    0.149366
     5  H    0.149144
     6  H    0.155090
     7  H    0.158519
     8  H    0.154562
     9  H    0.154828
    10  H    0.159862
    11  C   -0.302759
    12  C   -0.299015
    13  C   -0.475753
    14  H    0.149595
    15  H    0.152295
    16  H    0.152111
    17  H    0.152246
    18  H    0.155157
    19  H    0.154717
    20  H    0.160565
    21  C   -0.298101
    22  C   -0.299529
    23  C   -0.475666
    24  H    0.148416
    25  H    0.149229
    26  H    0.151981
    27  H    0.152039
    28  H    0.155093
    29  H    0.154908
    30  H    0.160248
    31  C   -0.297870
    32  C   -0.306381
    33  C   -0.479485
    34  H    0.149071
    35  H    0.148876
    36  H    0.163732
    37  H    0.151261
    38  H    0.155109
    39  H    0.154545
    40  H    0.161628
 Sum of Mulliken charges =  -0.00000

 Dipole moment (field-independent basis, Debye):
    X=              0.0310    Y=              0.0090    Z=             -0.0059  Tot=              0.0328
 Quadrupole moment (field-independent basis, Debye-Ang):
   XX=            -85.0132   YY=            -84.9713   ZZ=            -85.0538
   XY=              0.8742   XZ=              0.0870   YZ=             -0.2978

 Normal termination of Gaussian 16 at Wed May  5 19:40:56 2021.
