 Gaussian 16, Revision A.03,
 Gaussian 16:  EM64L-G16RevA.03 25-Dec-2016

 -------------
 #p 6-31g* mp2
 -------------

 ------------------------------------------------------
 Input file generated by CHIRIPA (05-May-2021 14:57:22)
 ------------------------------------------------------
 Symbolic Z-matrix:
 Charge =  0 Multiplicity = 1

                         Standard orientation:
 ---------------------------------------------------------------------
 Center     Atomic      Atomic             Coordinates (Angstroms)
 Number     Number       Type             X           Y           Z
 ---------------------------------------------------------------------
      1          6           0       -6.436357    0.173508   -1.296572
      2          6           0       -5.619543    1.297101   -1.132636
      3          6           0       -4.442685    1.215980   -0.382320
      4          6           0       -4.111539   -0.009997    0.192668
      5          6           0       -4.904574   -1.147240    0.047525
      6          6           0       -6.076899   -1.042931   -0.707009
      7          1           0       -7.348808    0.245531   -1.881074
      8          1           0       -5.896206    2.243100   -1.589351
      9          1           0       -3.792001    2.070140   -0.239354
     10          1           0       -4.602477   -2.076606    0.514895
     11          1           0       -6.709326   -1.917172   -0.832642
     12          7           0       -2.868052   -0.108150    0.989226
     13          8           0       -2.598520   -1.199764    1.485581
     14          8           0       -2.186484    0.908390    1.102130
     15          6           0        1.913372    0.070938    0.703495
     16          6           0        2.715701    1.212628    0.800092
     17          6           0        4.048571    1.181425    0.379343
     18          6           0        4.548805   -0.013635   -0.135331
     19          6           0        3.774658   -1.167799   -0.244386
     20          6           0        2.444475   -1.113545    0.182483
     21          1           0        0.879010    0.104130    1.032721
     22          1           0        2.305914    2.133894    1.204307
     23          1           0        4.691972    2.050576    0.442818
     24          1           0        4.211337   -2.071611   -0.651638
     25          1           0        1.823710   -2.001738    0.106281
     26          7           0        5.958433   -0.058871   -0.583999
     27          8           0        6.375345   -1.124004   -1.033789
     28          8           0        6.619695    0.971665   -0.477380
 ---------------------------------------------------------------------

 SCF Done:  E(RHF) =  -868.341164130     A.U. after   16 cycles
 E2 =    -0.2598103241D+01 EUMP2 =    -0.87093926737169D+03

 The electronic state is 1-A.
 Alpha  occ. eigenvalues --  -20.62017 -20.62009 -20.60038 -20.60033 -15.87010
 Alpha  occ. eigenvalues --  -15.85086 -11.32026 -11.30227 -11.28551 -11.28545
 Alpha  occ. eigenvalues --  -11.28220 -11.27479 -11.27470 -11.26803 -11.26799
 Alpha  occ. eigenvalues --  -11.26216 -11.25664 -11.25651  -1.61067  -1.59120
 Alpha  occ. eigenvalues --   -1.40626  -1.38680  -1.20163  -1.18365  -1.09624
 Alpha  occ. eigenvalues --   -1.07746  -1.05510  -1.03751  -0.96516  -0.94624
 Alpha  occ. eigenvalues --   -0.86924  -0.85126  -0.83360  -0.81486  -0.78447
 Alpha  occ. eigenvalues --   -0.76612  -0.73239  -0.72358  -0.71307  -0.71262
 Alpha  occ. eigenvalues --   -0.70443  -0.69315  -0.65816  -0.65506  -0.63989
 Alpha  occ. eigenvalues --   -0.63725  -0.62860  -0.61118  -0.56022  -0.54051
 Alpha  occ. eigenvalues --   -0.53852  -0.53594  -0.52083  -0.51818  -0.50008
 Alpha  occ. eigenvalues --   -0.49975  -0.48076  -0.48041  -0.46103  -0.44137
 Alpha  occ. eigenvalues --   -0.38119  -0.37096  -0.36257  -0.35388
 Alpha virt. eigenvalues --    0.04039   0.05938   0.10565   0.12289   0.15610
 Alpha virt. eigenvalues --    0.17512   0.20747   0.22702   0.26684   0.27607
 Alpha virt. eigenvalues --    0.28340   0.29709   0.30393   0.31790   0.32503

 Mulliken charges:
               1
     1  C   -0.169393
     2  C   -0.218472
     3  C   -0.170203
     4  C    0.157623
     5  C   -0.170422
     6  C   -0.218533
     7  H    0.228598
     8  H    0.226024
     9  H    0.275562
    10  H    0.276138
    11  H    0.226015
    12  N    0.488971
    13  O   -0.460543
    14  O   -0.466812
    15  C   -0.179322
    16  C   -0.221346
    17  C   -0.172302
    18  C    0.156686
    19  C   -0.172185
    20  C   -0.221430
    21  H    0.251300
    22  H    0.224096
    23  H    0.272028
    24  H    0.271954
    25  H    0.224206
    26  N    0.488351
    27  O   -0.463332
    28  O   -0.463256
 Sum of Mulliken charges =  -0.00000

 Dipole moment (field-independent basis, Debye):
    X=            -10.0499    Y=              0.5026    Z=             -1.2104  Tot=             10.1350
 Quadrupole moment (field-independent basis, Debye-Ang):
   XX=           -115.2108   YY=            -95.6314   ZZ=           -107.3555
   XY=              1.1342   XZ=             19.3925   YZ=              0.3907

 Normal termination of Gaussian 16 at Fri May  7 06:20:45 2021.
