 Gaussian 16, Revision A.03,
 Gaussian 16:  EM64L-G16RevA.03 25-Dec-2016

 -------------
 #p 6-31g* mp2
 -------------

 ------------------------------------------------------
 Input file generated by CHIRIPA (05-May-2021 14:55:20)
 ------------------------------------------------------
 Symbolic Z-matrix:
 Charge =  0 Multiplicity = 1

                         Standard orientation:
 ---------------------------------------------------------------------
 Center     Atomic      Atomic             Coordinates (Angstroms)
 Number     Number       Type             X           Y           Z
 ---------------------------------------------------------------------
      1          6           0       -3.559501   -1.599259   -0.976436
      2          6           0       -4.088206   -0.760577    0.010278
      3          6           0       -3.399347    0.388808    0.408943
      4          6           0       -2.178851    0.670482   -0.202890
      5          6           0       -1.625977   -0.145391   -1.188776
      6          6           0       -2.332237   -1.289535   -1.571764
      7          1           0       -4.101382   -2.490093   -1.280039
      8          1           0       -5.041107   -0.998624    0.474347
      9          1           0       -3.785613    1.055492    1.170355
     10          1           0       -0.673879    0.118133   -1.633166
     11          1           0       -1.919222   -1.939041   -2.338319
     12          7           0       -1.440375    1.884510    0.210860
     13          8           0       -0.366975    2.110523   -0.343546
     14          8           0       -1.948942    2.587065    1.081730
     15          6           0        2.320027   -0.554177    0.783901
     16          6           0        1.547001   -1.869697    0.883021
     17          6           0        0.299863   -1.757844    1.760477
     18          1           0        2.607849   -0.228469    1.792869
     19          1           0        1.656228    0.223698    0.381811
     20          1           0        2.212460   -2.645192    1.283507
     21          1           0        1.261152   -2.192410   -0.126317
     22          1           0       -0.386156   -1.004119    1.360632
     23          1           0        0.570558   -1.459473    2.778465
     24          1           0       -0.237585   -2.709559    1.817477
     25          6           0        3.569408   -0.650035   -0.089932
     26          6           0        4.342434    0.665485   -0.189053
     27          6           0        5.589572    0.553632   -1.066509
     28          1           0        4.233208   -1.427911    0.312157
     29          1           0        3.281586   -0.975743   -1.098902
     30          1           0        4.628283    0.988198    0.820285
     31          1           0        3.676975    1.440979   -0.589538
     32          1           0        5.318878    0.255260   -2.084497
     33          1           0        6.275591   -0.200095   -0.666664
     34          1           0        6.127020    1.505347   -1.123509
 ---------------------------------------------------------------------

 SCF Done:  E(RHF) =  -669.535314647     A.U. after   15 cycles
 E2 =    -0.2094418482D+01 EUMP2 =    -0.67162973312904D+03

 The electronic state is 1-A.
 Alpha  occ. eigenvalues --  -20.61010 -20.61003 -15.86020 -11.31303 -11.27888
 Alpha  occ. eigenvalues --  -11.27882 -11.27621 -11.26890 -11.26880 -11.21396
 Alpha  occ. eigenvalues --  -11.21034 -11.20955 -11.20840 -11.20758 -11.20648
 Alpha  occ. eigenvalues --   -1.60059  -1.39617  -1.19505  -1.08906  -1.07998
 Alpha  occ. eigenvalues --   -1.04890  -1.03162  -0.95749  -0.95605  -0.86632
 Alpha  occ. eigenvalues --   -0.86292  -0.82583  -0.79220  -0.77807  -0.77614
 Alpha  occ. eigenvalues --   -0.72250  -0.71381  -0.70604  -0.65156  -0.64904
 Alpha  occ. eigenvalues --   -0.64623  -0.62236  -0.60595  -0.58981  -0.57221
 Alpha  occ. eigenvalues --   -0.55391  -0.55045  -0.53186  -0.52977  -0.52318
 Alpha  occ. eigenvalues --   -0.51985  -0.49531  -0.49018  -0.49000  -0.47536
 Alpha  occ. eigenvalues --   -0.46272  -0.45527  -0.45341  -0.44632  -0.43384
 Alpha  occ. eigenvalues --   -0.37431  -0.36466
 Alpha virt. eigenvalues --    0.04822   0.11119   0.16289   0.20852   0.23056
 Alpha virt. eigenvalues --    0.24550   0.26410   0.27385   0.27887   0.27954
 Alpha virt. eigenvalues --    0.29006   0.30959   0.31542   0.32057   0.32278

 Mulliken charges:
               1
     1  C   -0.170427
     2  C   -0.217254
     3  C   -0.171555
     4  C    0.157576
     5  C   -0.172443
     6  C   -0.215423
     7  H    0.226349
     8  H    0.224169
     9  H    0.276224
    10  H    0.275870
    11  H    0.224219
    12  N    0.489910
    13  O   -0.460016
    14  O   -0.457940
    15  C   -0.311554
    16  C   -0.297960
    17  C   -0.477062
    18  H    0.150693
    19  H    0.168814
    20  H    0.150726
    21  H    0.141849
    22  H    0.156290
    23  H    0.156791
    24  H    0.155404
    25  C   -0.296445
    26  C   -0.301355
    27  C   -0.475386
    28  H    0.146734
    29  H    0.143380
    30  H    0.152477
    31  H    0.161082
    32  H    0.152714
    33  H    0.152990
    34  H    0.160560
 Sum of Mulliken charges =  -0.00000

 Dipole moment (field-independent basis, Debye):
    X=             -2.8053    Y=             -4.0743    Z=             -1.4477  Tot=              5.1542
 Quadrupole moment (field-independent basis, Debye-Ang):
   XX=            -81.7573   YY=           -101.0635   ZZ=            -92.2504
   XY=              7.0737   XZ=              2.1766   YZ=              0.7672

 Normal termination of Gaussian 16 at Thu May  6 07:43:05 2021.
