 Gaussian 16, Revision A.03,
 Gaussian 16:  EM64L-G16RevA.03 25-Dec-2016

 -------------
 #p 6-31g* mp2
 -------------

 ------------------------------------------------------
 Input file generated by CHIRIPA (05-May-2021 14:53:18)
 ------------------------------------------------------
 Symbolic Z-matrix:
 Charge =  0 Multiplicity = 1

                         Standard orientation:
 ---------------------------------------------------------------------
 Center     Atomic      Atomic             Coordinates (Angstroms)
 Number     Number       Type             X           Y           Z
 ---------------------------------------------------------------------
      1          6           0       -4.429781   -0.376424   -0.294259
      2          6           0       -5.636003    0.412290    0.216569
      3          6           0       -6.731887    0.565714   -0.838558
      4          1           0       -4.019518    0.126537   -1.180633
      5          1           0       -4.763355   -1.369796   -0.624919
      6          1           0       -5.300034    1.403378    0.547454
      7          1           0       -6.043325   -0.092502    1.101944
      8          1           0       -7.095041   -0.415077   -1.162237
      9          1           0       -6.347527    1.089303   -1.719877
     10          1           0       -7.584631    1.132650   -0.452200
     11          6           0       -3.325763   -0.538236    0.749143
     12          6           0       -2.119541   -1.326950    0.238316
     13          6           0       -1.023657   -1.480374    1.293443
     14          1           0       -2.992189    0.455135    1.079804
     15          1           0       -3.736026   -1.041197    1.635518
     16          1           0       -1.712219   -0.822158   -0.647059
     17          1           0       -2.455510   -2.318039   -0.092569
     18          1           0       -1.408017   -2.003963    2.174762
     19          1           0       -0.660503   -0.499583    1.617122
     20          1           0       -0.170913   -2.047310    0.907085
     21          6           0        1.190105    2.081408   -0.078054
     22          6           0        0.989674    0.883265   -0.771453
     23          6           0        2.001818   -0.079177   -0.833256
     24          6           0        3.207336    0.190607   -0.187322
     25          6           0        3.437409    1.374700    0.511450
     26          6           0        2.411180    2.322876    0.560060
     27          1           0        0.398375    2.823514   -0.035168
     28          1           0        0.042394    0.693036   -1.267960
     29          1           0        1.873458   -1.015251   -1.363073
     30          1           0        4.392492    1.535868    0.996485
     31          1           0        2.569647    3.252477    1.099295
     32          7           0        4.286303   -0.820735   -0.245766
     33          8           0        5.339259   -0.559026    0.331668
     34          8           0        4.058613   -1.855984   -0.867903
 ---------------------------------------------------------------------

 SCF Done:  E(RHF) =  -669.534905574     A.U. after   15 cycles
 E2 =    -0.2092685561D+01 EUMP2 =    -0.67162759113459D+03

 The electronic state is 1-A.
 Alpha  occ. eigenvalues --  -20.60775 -20.60769 -15.85828 -11.31205 -11.27765
 Alpha  occ. eigenvalues --  -11.27761 -11.27520 -11.26799 -11.26772 -11.22308
 Alpha  occ. eigenvalues --  -11.22138 -11.22045 -11.21972 -11.21533 -11.21463
 Alpha  occ. eigenvalues --   -1.59849  -1.39403  -1.19379  -1.09048  -1.08773
 Alpha  occ. eigenvalues --   -1.04792  -1.04081  -0.96505  -0.95606  -0.87515
 Alpha  occ. eigenvalues --   -0.86185  -0.82440  -0.80161  -0.78867  -0.77483
 Alpha  occ. eigenvalues --   -0.72047  -0.71172  -0.70489  -0.65755  -0.65032
 Alpha  occ. eigenvalues --   -0.64772  -0.62220  -0.61410  -0.59873  -0.58123
 Alpha  occ. eigenvalues --   -0.55828  -0.55283  -0.53281  -0.52982  -0.52950
 Alpha  occ. eigenvalues --   -0.52846  -0.50426  -0.48813  -0.48800  -0.48453
 Alpha  occ. eigenvalues --   -0.47203  -0.46394  -0.46333  -0.44806  -0.44346
 Alpha  occ. eigenvalues --   -0.37355  -0.36334
 Alpha virt. eigenvalues --    0.05033   0.11185   0.16459   0.19794   0.22718
 Alpha virt. eigenvalues --    0.23947   0.25279   0.26367   0.27011   0.28390
 Alpha virt. eigenvalues --    0.28639   0.29900   0.31101   0.31282   0.32155

 Mulliken charges:
               1
     1  C   -0.297912
     2  C   -0.299739
     3  C   -0.475921
     4  H    0.145366
     5  H    0.152221
     6  H    0.150346
     7  H    0.153908
     8  H    0.156711
     9  H    0.154467
    10  H    0.161653
    11  C   -0.297939
    12  C   -0.302084
    13  C   -0.476679
    14  H    0.145562
    15  H    0.153575
    16  H    0.139871
    17  H    0.156425
    18  H    0.157410
    19  H    0.156579
    20  H    0.162786
    21  C   -0.173659
    22  C   -0.216129
    23  C   -0.170956
    24  C    0.158434
    25  C   -0.171037
    26  C   -0.218196
    27  H    0.225493
    28  H    0.227349
    29  H    0.275538
    30  H    0.275683
    31  H    0.223513
    32  N    0.488128
    33  O   -0.460299
    34  O   -0.460464
 Sum of Mulliken charges =  -0.00000

 Dipole moment (field-independent basis, Debye):
    X=             -3.8602    Y=              3.5123    Z=              0.2763  Tot=              5.2262
 Quadrupole moment (field-independent basis, Debye-Ang):
   XX=           -118.0134   YY=            -91.2237   ZZ=            -94.2400
   XY=             13.5153   XZ=              2.4118   YZ=              1.0473

 Normal termination of Gaussian 16 at Thu May  6 20:34:25 2021.
