 Gaussian 16, Revision A.03,
 Gaussian 16:  EM64L-G16RevA.03 25-Dec-2016

 -------------
 #p 6-31g* mp2
 -------------

 ------------------------------------------------------
 Input file generated by CHIRIPA (05-May-2021 14:55:21)
 ------------------------------------------------------
 Symbolic Z-matrix:
 Charge =  0 Multiplicity = 1

                         Standard orientation:
 ---------------------------------------------------------------------
 Center     Atomic      Atomic             Coordinates (Angstroms)
 Number     Number       Type             X           Y           Z
 ---------------------------------------------------------------------
      1          6           0       -2.364776    2.396692   -0.017038
      2          6           0       -1.728574    1.170269   -0.235335
      3          6           0       -2.463265   -0.019146   -0.243667
      4          6           0       -3.838710    0.054971   -0.029309
      5          6           0       -4.501424    1.261442    0.190983
      6          6           0       -3.746734    2.438291    0.195050
      7          1           0       -1.786282    3.315777   -0.012223
      8          1           0       -0.655459    1.134941   -0.400328
      9          1           0       -1.996196   -0.982230   -0.410197
     10          1           0       -5.572556    1.264819    0.352484
     11          1           0       -4.243485    3.389319    0.364841
     12          7           0       -4.627081   -1.197557   -0.035872
     13          8           0       -5.837668   -1.105379    0.155487
     14          8           0       -4.019491   -2.247751   -0.232250
     15          6           0        5.449397   -0.296213    0.334334
     16          6           0        6.409536    0.567342   -0.484443
     17          6           0        7.810268    0.634373    0.124860
     18          1           0        5.387686    0.103043    1.355965
     19          1           0        5.862064   -1.311009    0.419725
     20          1           0        5.994513    1.579838   -0.569436
     21          1           0        6.468822    0.166096   -1.504297
     22          1           0        8.248331   -0.366544    0.194620
     23          1           0        7.771327    1.055230    1.134793
     24          1           0        8.480267    1.256782   -0.476445
     25          6           0        4.045071   -0.372979   -0.262072
     26          6           0        3.084933   -1.236533    0.556703
     27          6           0        1.684201   -1.303565   -0.052599
     28          1           0        3.632405    0.641817   -0.347465
     29          1           0        4.106783   -0.772235   -1.283704
     30          1           0        3.025646   -0.835289    1.576558
     31          1           0        3.499955   -2.249030    0.641696
     32          1           0        1.723141   -1.724422   -1.062532
     33          1           0        1.246138   -0.302648   -0.122358
     34          1           0        1.014201   -1.925974    0.548707
 ---------------------------------------------------------------------

 SCF Done:  E(RHF) =  -669.535509413     A.U. after   15 cycles
 E2 =    -0.2090957409D+01 EUMP2 =    -0.67162646682210D+03

 The electronic state is 1-A.
 Alpha  occ. eigenvalues --  -20.60710 -20.60705 -15.85763 -11.31116 -11.27693
 Alpha  occ. eigenvalues --  -11.27663 -11.27435 -11.26710 -11.26669 -11.22241
 Alpha  occ. eigenvalues --  -11.22003 -11.21967 -11.21960 -11.21822 -11.21400
 Alpha  occ. eigenvalues --   -1.59786  -1.39339  -1.19289  -1.08961  -1.08690
 Alpha  occ. eigenvalues --   -1.04690  -1.04080  -0.96550  -0.95525  -0.87575
 Alpha  occ. eigenvalues --   -0.86092  -0.82358  -0.80151  -0.78756  -0.77402
 Alpha  occ. eigenvalues --   -0.71982  -0.71109  -0.70402  -0.65600  -0.64942
 Alpha  occ. eigenvalues --   -0.64713  -0.62091  -0.61439  -0.59909  -0.58141
 Alpha  occ. eigenvalues --   -0.55864  -0.55195  -0.53238  -0.53065  -0.53019
 Alpha  occ. eigenvalues --   -0.52701  -0.50479  -0.48743  -0.48736  -0.48454
 Alpha  occ. eigenvalues --   -0.47166  -0.46303  -0.46214  -0.44748  -0.44323
 Alpha  occ. eigenvalues --   -0.37279  -0.36290
 Alpha virt. eigenvalues --    0.05127   0.11352   0.16605   0.19989   0.22503
 Alpha virt. eigenvalues --    0.23790   0.25251   0.26214   0.26876   0.27819
 Alpha virt. eigenvalues --    0.29033   0.29199   0.31212   0.31511   0.32167

 Mulliken charges:
               1
     1  C   -0.171673
     2  C   -0.223267
     3  C   -0.173992
     4  C    0.158616
     5  C   -0.171019
     6  C   -0.218631
     7  H    0.225490
     8  H    0.230193
     9  H    0.277899
    10  H    0.275319
    11  H    0.223047
    12  N    0.488123
    13  O   -0.460798
    14  O   -0.460437
    15  C   -0.298777
    16  C   -0.299869
    17  C   -0.475989
    18  H    0.150131
    19  H    0.151510
    20  H    0.150895
    21  H    0.152773
    22  H    0.156305
    23  H    0.155449
    24  H    0.161119
    25  C   -0.298262
    26  C   -0.299670
    27  C   -0.482355
    28  H    0.145653
    29  H    0.151288
    30  H    0.153526
    31  H    0.156577
    32  H    0.159838
    33  H    0.145054
    34  H    0.165935
 Sum of Mulliken charges =  -0.00000

 Dipole moment (field-independent basis, Debye):
    X=              2.9734    Y=              4.3243    Z=              0.0433  Tot=              5.2481
 Quadrupole moment (field-independent basis, Debye-Ang):
   XX=           -113.2516   YY=            -92.5403   ZZ=            -95.2781
   XY=            -20.0430   XZ=             -1.4645   YZ=              0.8159

 Normal termination of Gaussian 16 at Thu May  6 06:10:40 2021.
