 Gaussian 16, Revision A.03,
 Gaussian 16:  EM64L-G16RevA.03 25-Dec-2016

 -------------
 #p 6-31g* mp2
 -------------

 ------------------------------------------------------
 Input file generated by CHIRIPA (05-May-2021 14:51:14)
 ------------------------------------------------------
 Symbolic Z-matrix:
 Charge =  0 Multiplicity = 1

                         Standard orientation:
 ---------------------------------------------------------------------
 Center     Atomic      Atomic             Coordinates (Angstroms)
 Number     Number       Type             X           Y           Z
 ---------------------------------------------------------------------
      1          6           0       -4.355027   -0.118661   -0.218807
      2          6           0       -5.169088    0.978975    0.467112
      3          6           0       -6.668783    0.861164    0.193565
      4          1           0       -4.535975   -0.078135   -1.301655
      5          1           0       -4.714865   -1.099448    0.121735
      6          1           0       -4.806899    1.957427    0.126427
      7          1           0       -4.986032    0.935953    1.548434
      8          1           0       -7.050899   -0.101034    0.549604
      9          1           0       -6.870747    0.926244   -0.880482
     10          1           0       -7.231667    1.655657    0.693368
     11          6           0       -2.853984   -0.014330    0.045228
     12          6           0       -2.039923   -1.111966   -0.640691
     13          6           0       -0.540228   -0.994155   -0.367143
     14          1           0       -2.494146    0.966457   -0.295314
     15          1           0       -2.673036   -0.054856    1.128076
     16          1           0       -2.222979   -1.068944   -1.722012
     17          1           0       -2.402112   -2.090418   -0.300006
     18          1           0       -0.338264   -1.059235    0.706903
     19          1           0       -0.158112   -0.031957   -0.723182
     20          1           0        0.022656   -1.788648   -0.866946
     21          6           0        3.745653    0.741057    0.416148
     22          6           0        4.015327    1.861755   -0.588491
     23          6           0        4.295997    3.205092    0.085650
     24          1           0        2.891754    1.021333    1.048008
     25          1           0        4.611099    0.642476    1.085983
     26          1           0        3.150200    1.957268   -1.257109
     27          1           0        4.868562    1.578695   -1.218159
     28          1           0        5.171727    3.132868    0.738704
     29          1           0        3.443602    3.513592    0.699533
     30          1           0        4.486051    3.991976   -0.650933
     31          6           0        3.463358   -0.608066   -0.242569
     32          6           0        3.193685   -1.728764    0.762069
     33          6           0        2.913015   -3.072101    0.087929
     34          1           0        2.597912   -0.509485   -0.912404
     35          1           0        4.317257   -0.888341   -0.874429
     36          1           0        2.340449   -1.445703    1.391737
     37          1           0        4.058810   -1.824276    1.430687
     38          1           0        3.765410   -3.380601   -0.525954
     39          1           0        2.037285   -2.999876   -0.565126
     40          1           0        2.722960   -3.858984    0.824511
 ---------------------------------------------------------------------

 SCF Done:  E(RHF) =  -470.732733357     A.U. after   11 cycles
 E2 =    -0.1583540765D+01 EUMP2 =    -0.47231627412209D+03

 The electronic state is 1-A.
 Alpha  occ. eigenvalues --  -11.21673 -11.21637 -11.21554 -11.21484 -11.21460
 Alpha  occ. eigenvalues --  -11.21397 -11.21307 -11.21225 -11.21175 -11.21098
 Alpha  occ. eigenvalues --  -11.21036 -11.20972  -1.08490  -1.08337  -1.03607
 Alpha  occ. eigenvalues --   -1.03441  -0.96054  -0.95899  -0.87073  -0.86922
 Alpha  occ. eigenvalues --   -0.79668  -0.79516  -0.78299  -0.78152  -0.65116
 Alpha  occ. eigenvalues --   -0.64978  -0.61035  -0.60877  -0.59433  -0.59228
 Alpha  occ. eigenvalues --   -0.57707  -0.57481  -0.55430  -0.55114  -0.52753
 Alpha  occ. eigenvalues --   -0.52600  -0.52503  -0.52290  -0.50004  -0.49836
 Alpha  occ. eigenvalues --   -0.47969  -0.47833  -0.46741  -0.46495  -0.45867
 Alpha  occ. eigenvalues --   -0.45783  -0.45664  -0.45562  -0.43793  -0.43695
 Alpha virt. eigenvalues --    0.20837   0.22957   0.23674   0.24771   0.25991
 Alpha virt. eigenvalues --    0.26055   0.26742   0.27508   0.27865   0.29386
 Alpha virt. eigenvalues --    0.30128   0.30637   0.31818   0.31969   0.32292

 Mulliken charges:
               1
     1  C   -0.298286
     2  C   -0.299667
     3  C   -0.475737
     4  H    0.149776
     5  H    0.149702
     6  H    0.151956
     7  H    0.151992
     8  H    0.155261
     9  H    0.155242
    10  H    0.160376
    11  C   -0.298860
    12  C   -0.300294
    13  C   -0.480670
    14  H    0.149485
    15  H    0.149677
    16  H    0.152181
    17  H    0.152460
    18  H    0.156630
    19  H    0.155290
    20  H    0.164858
    21  C   -0.298401
    22  C   -0.299468
    23  C   -0.475648
    24  H    0.149805
    25  H    0.149101
    26  H    0.151257
    27  H    0.151837
    28  H    0.155153
    29  H    0.155065
    30  H    0.159967
    31  C   -0.301901
    32  C   -0.300124
    33  C   -0.479235
    34  H    0.154854
    35  H    0.148669
    36  H    0.154069
    37  H    0.151211
    38  H    0.154635
    39  H    0.158213
    40  H    0.159571
 Sum of Mulliken charges =  -0.00000

 Dipole moment (field-independent basis, Debye):
    X=             -0.0608    Y=             -0.0034    Z=             -0.0048  Tot=              0.0611
 Quadrupole moment (field-independent basis, Debye-Ang):
   XX=            -85.2283   YY=            -85.5677   ZZ=            -84.2240
   XY=             -0.2791   XZ=             -0.2704   YZ=             -0.8372

 Normal termination of Gaussian 16 at Wed May  5 20:01:35 2021.
