 Gaussian 16, Revision A.03,
 Gaussian 16:  EM64L-G16RevA.03 25-Dec-2016

 -------------
 #p 6-31g* mp2
 -------------

 ------------------------------------------------------
 Input file generated by CHIRIPA (05-May-2021 14:57:26)
 ------------------------------------------------------
 Symbolic Z-matrix:
 Charge =  0 Multiplicity = 1

                         Standard orientation:
 ---------------------------------------------------------------------
 Center     Atomic      Atomic             Coordinates (Angstroms)
 Number     Number       Type             X           Y           Z
 ---------------------------------------------------------------------
      1          6           0        2.787942    2.338774    1.257068
      2          6           0        3.886228    1.999692    0.460002
      3          6           0        3.946146    0.755078   -0.173948
      4          6           0        2.885478   -0.130237    0.011771
      5          6           0        1.777646    0.178354    0.799661
      6          6           0        1.739006    1.428627    1.424059
      7          1           0        2.749662    3.307818    1.745825
      8          1           0        4.702288    2.704537    0.328526
      9          1           0        4.784417    0.466767   -0.796520
     10          1           0        0.979348   -0.545211    0.911874
     11          1           0        0.884807    1.689257    2.042492
     12          7           0        2.937647   -1.450850   -0.654307
     13          8           0        1.990373   -2.213134   -0.474774
     14          8           0        3.924824   -1.698656   -1.343300
     15          6           0       -2.517228   -2.153158    1.281762
     16          6           0       -1.820837   -1.993882    0.079185
     17          6           0       -2.012225   -0.853386   -0.706427
     18          6           0       -2.911650    0.112293   -0.257216
     19          6           0       -3.620349   -0.017502    0.936178
     20          6           0       -3.413182   -1.166199    1.705673
     21          1           0       -2.362424   -3.042308    1.885785
     22          1           0       -1.124401   -2.758735   -0.252513
     23          1           0       -1.486221   -0.704583   -1.641626
     24          1           0       -4.307999    0.762145    1.240656
     25          1           0       -3.955384   -1.287222    2.639170
     26          7           0       -3.122616    1.324026   -1.080378
     27          8           0       -3.920575    2.160265   -0.662523
     28          8           0       -2.486018    1.414599   -2.127839
 ---------------------------------------------------------------------

 SCF Done:  E(RHF) =  -868.340157276     A.U. after   16 cycles
 E2 =    -0.2599891012D+01 EUMP2 =    -0.87094004828813D+03

 The electronic state is 1-A.
 Alpha  occ. eigenvalues --  -20.61270 -20.61198 -20.60886 -20.60870 -15.86280
 Alpha  occ. eigenvalues --  -15.85929 -11.31363 -11.31259 -11.27902 -11.27883
 Alpha  occ. eigenvalues --  -11.27840 -11.27717 -11.27594 -11.27486 -11.26860
 Alpha  occ. eigenvalues --  -11.26850 -11.26846 -11.26607  -1.60301  -1.59960
 Alpha  occ. eigenvalues --   -1.39868  -1.39512  -1.19513  -1.19418  -1.08958
 Alpha  occ. eigenvalues --   -1.08807  -1.04882  -1.04767  -0.95841  -0.95648
 Alpha  occ. eigenvalues --   -0.86291  -0.86155  -0.82696  -0.82446  -0.77788
 Alpha  occ. eigenvalues --   -0.77494  -0.72519  -0.72140  -0.71609  -0.71293
 Alpha  occ. eigenvalues --   -0.70623  -0.70477  -0.65178  -0.65032  -0.64882
 Alpha  occ. eigenvalues --   -0.64685  -0.62252  -0.62054  -0.55391  -0.55249
 Alpha  occ. eigenvalues --   -0.53283  -0.53189  -0.52869  -0.52786  -0.49273
 Alpha  occ. eigenvalues --   -0.49224  -0.48904  -0.48893  -0.45337  -0.44923
 Alpha  occ. eigenvalues --   -0.37477  -0.37415  -0.36553  -0.36299
 Alpha virt. eigenvalues --    0.04690   0.05010   0.11051   0.11339   0.16282
 Alpha virt. eigenvalues --    0.16445   0.21235   0.21712   0.27076   0.27461
 Alpha virt. eigenvalues --    0.28392   0.28416   0.30816   0.31323   0.32285

 Mulliken charges:
               1
     1  C   -0.168811
     2  C   -0.218364
     3  C   -0.169806
     4  C    0.157194
     5  C   -0.173755
     6  C   -0.219025
     7  H    0.227578
     8  H    0.224675
     9  H    0.275720
    10  H    0.275399
    11  H    0.224967
    12  N    0.490694
    13  O   -0.473547
    14  O   -0.456350
    15  C   -0.175192
    16  C   -0.226780
    17  C   -0.176838
    18  C    0.156747
    19  C   -0.174330
    20  C   -0.219826
    21  H    0.228416
    22  H    0.246546
    23  H    0.280573
    24  H    0.274351
    25  H    0.222879
    26  N    0.487734
    27  O   -0.462235
    28  O   -0.458613
 Sum of Mulliken charges =  -0.00000

 Dipole moment (field-independent basis, Debye):
    X=              0.6933    Y=              0.3572    Z=              5.1700  Tot=              5.2285
 Quadrupole moment (field-independent basis, Debye-Ang):
   XX=           -104.6927   YY=           -106.8185   ZZ=           -104.2300
   XY=             26.7290   XZ=             -6.3583   YZ=              2.1625

 Normal termination of Gaussian 16 at Thu May  6 14:49:04 2021.
