 Gaussian 16, Revision A.03,
 Gaussian 16:  EM64L-G16RevA.03 25-Dec-2016

 -------------
 #p 6-31g* mp2
 -------------

 ------------------------------------------------------
 Input file generated by CHIRIPA (05-May-2021 14:55:20)
 ------------------------------------------------------
 Symbolic Z-matrix:
 Charge =  0 Multiplicity = 1

                         Standard orientation:
 ---------------------------------------------------------------------
 Center     Atomic      Atomic             Coordinates (Angstroms)
 Number     Number       Type             X           Y           Z
 ---------------------------------------------------------------------
      1          6           0       -0.812702    0.638092    1.340227
      2          6           0       -0.725081   -0.191145    0.217191
      3          6           0       -1.882425   -0.641387   -0.424980
      4          6           0       -3.116532   -0.241152    0.085003
      5          6           0       -3.236607    0.584247    1.201958
      6          6           0       -2.065975    1.022464    1.828166
      7          1           0        0.091512    0.983180    1.832881
      8          1           0        0.246881   -0.491251   -0.163954
      9          1           0       -1.843513   -1.284051   -1.296121
     10          1           0       -4.219698    0.866571    1.558670
     11          1           0       -2.137054    1.666387    2.700150
     12          7           0       -4.348793   -0.711438   -0.586385
     13          8           0       -5.424062   -0.344615   -0.117475
     14          8           0       -4.216039   -1.437965   -1.568816
     15          6           0        3.412322    0.663851   -0.776319
     16          6           0        2.775056    1.922112   -0.185845
     17          6           0        2.145313    2.821071   -1.250312
     18          1           0        4.176226    0.956918   -1.509468
     19          1           0        2.648697    0.099428   -1.329221
     20          1           0        3.539338    2.483285    0.366941
     21          1           0        2.012713    1.626016    0.546123
     22          1           0        1.363279    2.282816   -1.795571
     23          1           0        2.898578    3.144955   -1.975771
     24          1           0        1.695638    3.714658   -0.806291
     25          6           0        4.046085   -0.244925    0.275440
     26          6           0        4.683350   -1.503185   -0.315034
     27          6           0        5.313094   -2.402144    0.749432
     28          1           0        4.809710    0.319498    0.828341
     29          1           0        3.282181   -0.537992    1.008588
     30          1           0        5.445694   -1.207091   -1.047002
     31          1           0        3.919068   -2.064359   -0.867820
     32          1           0        4.559828   -2.726029    1.474891
     33          1           0        6.095127   -1.863889    1.294691
     34          1           0        5.762768   -3.295733    0.305412
 ---------------------------------------------------------------------

 SCF Done:  E(RHF) =  -669.535135933     A.U. after   15 cycles
 E2 =    -0.2092491697D+01 EUMP2 =    -0.67162762763016D+03

 The electronic state is 1-A.
 Alpha  occ. eigenvalues --  -20.60767 -20.60761 -15.85821 -11.31193 -11.27767
 Alpha  occ. eigenvalues --  -11.27762 -11.27492 -11.26776 -11.26766 -11.22711
 Alpha  occ. eigenvalues --  -11.22456 -11.22406 -11.22345 -11.21887 -11.21724
 Alpha  occ. eigenvalues --   -1.59842  -1.39395  -1.19367  -1.09422  -1.08759
 Alpha  occ. eigenvalues --   -1.04774  -1.04411  -0.96835  -0.95597  -0.87846
 Alpha  occ. eigenvalues --   -0.86171  -0.82432  -0.80494  -0.79233  -0.77475
 Alpha  occ. eigenvalues --   -0.72039  -0.71165  -0.70508  -0.66168  -0.65017
 Alpha  occ. eigenvalues --   -0.64711  -0.62165  -0.61741  -0.60210  -0.58452
 Alpha  occ. eigenvalues --   -0.56143  -0.55284  -0.53496  -0.53248  -0.53088
 Alpha  occ. eigenvalues --   -0.52859  -0.50774  -0.48804  -0.48797  -0.48777
 Alpha  occ. eigenvalues --   -0.47542  -0.46750  -0.46701  -0.44799  -0.44689
 Alpha  occ. eigenvalues --   -0.37333  -0.36373
 Alpha virt. eigenvalues --    0.05049   0.11195   0.16496   0.18129   0.22670
 Alpha virt. eigenvalues --    0.23772   0.24823   0.25165   0.26958   0.28312
 Alpha virt. eigenvalues --    0.29350   0.30499   0.31068   0.31393   0.31906

 Mulliken charges:
               1
     1  C   -0.173658
     2  C   -0.223055
     3  C   -0.171960
     4  C    0.158656
     5  C   -0.170787
     6  C   -0.218753
     7  H    0.228862
     8  H    0.228980
     9  H    0.275747
    10  H    0.275660
    11  H    0.223669
    12  N    0.488079
    13  O   -0.460375
    14  O   -0.460434
    15  C   -0.301230
    16  C   -0.303621
    17  C   -0.475706
    18  H    0.156179
    19  H    0.145109
    20  H    0.156164
    21  H    0.141961
    22  H    0.157323
    23  H    0.158903
    24  H    0.162289
    25  C   -0.298991
    26  C   -0.299837
    27  C   -0.476267
    28  H    0.153197
    29  H    0.142829
    30  H    0.155083
    31  H    0.150958
    32  H    0.155098
    33  H    0.156570
    34  H    0.163358
 Sum of Mulliken charges =  -0.00000

 Dipole moment (field-independent basis, Debye):
    X=              4.5326    Y=              1.7058    Z=              2.3034  Tot=              5.3628
 Quadrupole moment (field-independent basis, Debye-Ang):
   XX=           -119.1706   YY=            -94.8977   ZZ=            -92.9000
   XY=             -7.0117   XZ=             -9.8255   YZ=              1.8484

 Normal termination of Gaussian 16 at Wed May  5 15:53:20 2021.
