 Gaussian 16, Revision A.03,
 Gaussian 16:  EM64L-G16RevA.03 25-Dec-2016

 -------------
 #p 6-31g* mp2
 -------------

 ------------------------------------------------------
 Input file generated by CHIRIPA (05-May-2021 14:57:26)
 ------------------------------------------------------
 Symbolic Z-matrix:
 Charge =  0 Multiplicity = 1

                         Standard orientation:
 ---------------------------------------------------------------------
 Center     Atomic      Atomic             Coordinates (Angstroms)
 Number     Number       Type             X           Y           Z
 ---------------------------------------------------------------------
      1          6           0       -2.591016   -2.380535   -0.759809
      2          6           0       -3.908572   -1.911144   -0.775270
      3          6           0       -4.194695   -0.587097   -0.429464
      4          6           0       -3.134181    0.243908   -0.071653
      5          6           0       -1.811016   -0.194152   -0.046604
      6          6           0       -1.548281   -1.522055   -0.396166
      7          1           0       -2.377834   -3.410584   -1.029898
      8          1           0       -4.720373   -2.575602   -1.057264
      9          1           0       -5.205481   -0.197588   -0.432924
     10          1           0       -1.022835    0.491914    0.238882
     11          1           0       -0.524083   -1.883852   -0.383267
     12          7           0       -3.424706    1.647658    0.296424
     13          8           0       -2.472609    2.359765    0.607958
     14          8           0       -4.599015    2.009231    0.266420
     15          6           0        3.848502    2.153344   -0.913560
     16          6           0        2.928806    2.170396    0.140190
     17          6           0        2.499462    0.976428    0.727261
     18          6           0        3.012612   -0.221944    0.233428
     19          6           0        3.929961   -0.271731   -0.815038
     20          6           0        4.345269    0.934484   -1.386975
     21          1           0        4.176575    3.085604   -1.363733
     22          1           0        2.541326    3.115499    0.509901
     23          1           0        1.788375    0.960690    1.544284
     24          1           0        4.298475   -1.229458   -1.161990
     25          1           0        5.059613    0.918207   -2.205201
     26          7           0        2.565515   -1.492427    0.846924
     27          8           0        3.032582   -2.535024    0.393626
     28          8           0        1.756478   -1.421579    1.769462
 ---------------------------------------------------------------------

 SCF Done:  E(RHF) =  -868.339754779     A.U. after   16 cycles
 E2 =    -0.2599450945D+01 EUMP2 =    -0.87093920572440D+03

 The electronic state is 1-A.
 Alpha  occ. eigenvalues --  -20.61590 -20.61584 -20.60624 -20.60600 -15.86609
 Alpha  occ. eigenvalues --  -15.85659 -11.31723 -11.30810 -11.28237 -11.28209
 Alpha  occ. eigenvalues --  -11.27873 -11.27354 -11.27326 -11.27191 -11.27120
 Alpha  occ. eigenvalues --  -11.26993 -11.26338 -11.26204  -1.60678  -1.59689
 Alpha  occ. eigenvalues --   -1.40228  -1.39252  -1.19851  -1.18943  -1.09289
 Alpha  occ. eigenvalues --   -1.08372  -1.05192  -1.04305  -0.96165  -0.95251
 Alpha  occ. eigenvalues --   -0.86602  -0.85714  -0.82988  -0.82089  -0.78084
 Alpha  occ. eigenvalues --   -0.77174  -0.72810  -0.72022  -0.71889  -0.71003
 Alpha  occ. eigenvalues --   -0.70926  -0.70048  -0.65485  -0.65164  -0.64591
 Alpha  occ. eigenvalues --   -0.64289  -0.62534  -0.61656  -0.55678  -0.54802
 Alpha  occ. eigenvalues --   -0.53557  -0.53257  -0.52650  -0.52383  -0.49598
 Alpha  occ. eigenvalues --   -0.49558  -0.48654  -0.48616  -0.45669  -0.44705
 Alpha  occ. eigenvalues --   -0.37809  -0.36903  -0.36785  -0.35888
 Alpha virt. eigenvalues --    0.04366   0.05348   0.10780   0.11762   0.15952
 Alpha virt. eigenvalues --    0.16910   0.20735   0.21922   0.26034   0.27358
 Alpha virt. eigenvalues --    0.28131   0.28984   0.30881   0.30989   0.31918

 Mulliken charges:
               1
     1  C   -0.171552
     2  C   -0.218599
     3  C   -0.172018
     4  C    0.158109
     5  C   -0.170010
     6  C   -0.215717
     7  H    0.227706
     8  H    0.222178
     9  H    0.273663
    10  H    0.269189
    11  H    0.231430
    12  N    0.488612
    13  O   -0.466128
    14  O   -0.460736
    15  C   -0.169983
    16  C   -0.217149
    17  C   -0.177746
    18  C    0.154809
    19  C   -0.171761
    20  C   -0.217899
    21  H    0.229144
    22  H    0.231749
    23  H    0.278614
    24  H    0.275311
    25  H    0.225259
    26  N    0.484493
    27  O   -0.459707
    28  O   -0.461260
 Sum of Mulliken charges =  -0.00000

 Dipole moment (field-independent basis, Debye):
    X=              2.8740    Y=             -0.4369    Z=             -3.4885  Tot=              4.5410
 Quadrupole moment (field-independent basis, Debye-Ang):
   XX=            -95.5405   YY=           -108.3472   ZZ=           -104.7907
   XY=             29.1869   XZ=             -3.6601   YZ=              3.5377

 Normal termination of Gaussian 16 at Thu May  6 19:43:58 2021.
