 Gaussian 16, Revision A.03,
 Gaussian 16:  EM64L-G16RevA.03 25-Dec-2016

 -------------
 #p 6-31g* mp2
 -------------

 ------------------------------------------------------
 Input file generated by CHIRIPA (05-May-2021 14:57:26)
 ------------------------------------------------------
 Symbolic Z-matrix:
 Charge =  0 Multiplicity = 1

                         Standard orientation:
 ---------------------------------------------------------------------
 Center     Atomic      Atomic             Coordinates (Angstroms)
 Number     Number       Type             X           Y           Z
 ---------------------------------------------------------------------
      1          6           0        1.812634    0.488607    0.963771
      2          6           0        2.135016   -0.819958    0.589275
      3          6           0        3.412728   -1.127679    0.112506
      4          6           0        4.347809   -0.097695    0.022799
      5          6           0        4.056990    1.215799    0.388105
      6          6           0        2.772957    1.500525    0.862170
      7          1           0        0.817622    0.718721    1.333086
      8          1           0        1.391225   -1.607842    0.667114
      9          1           0        3.689110   -2.132134   -0.184311
     10          1           0        4.819599    1.979969    0.299283
     11          1           0        2.525401    2.517675    1.152286
     12          7           0        5.703811   -0.411294   -0.480504
     13          8           0        6.509754    0.514047   -0.550057
     14          8           0        5.935027   -1.576496   -0.795910
     15          6           0       -3.237743    2.397430   -0.330967
     16          6           0       -4.600263    2.142162   -0.517773
     17          6           0       -5.102568    0.843211   -0.395453
     18          6           0       -4.210035   -0.181316   -0.083976
     19          6           0       -2.847343    0.041126    0.108067
     20          6           0       -2.367166    1.347947   -0.019193
     21          1           0       -2.856135    3.409544   -0.427907
     22          1           0       -5.278692    2.955252   -0.759980
     23          1           0       -6.152817    0.617454   -0.534845
     24          1           0       -2.195569   -0.789965    0.348684
     25          1           0       -1.308535    1.543243    0.126431
     26          7           0       -4.730090   -1.560624    0.048134
     27          8           0       -3.923067   -2.445873    0.323244
     28          8           0       -5.934883   -1.730359   -0.125931
 ---------------------------------------------------------------------

 SCF Done:  E(RHF) =  -868.336706440     A.U. after   16 cycles
 E2 =    -0.2599762825D+01 EUMP2 =    -0.87093646926552D+03

 The electronic state is 1-A.
 Alpha  occ. eigenvalues --  -20.61414 -20.61397 -20.61152 -20.61143 -15.86468
 Alpha  occ. eigenvalues --  -15.86207 -11.31934 -11.31721 -11.28607 -11.28471
 Alpha  occ. eigenvalues --  -11.28294 -11.28273 -11.28257 -11.28189 -11.27650
 Alpha  occ. eigenvalues --  -11.27486 -11.27417 -11.27362  -1.60481  -1.60221
 Alpha  occ. eigenvalues --   -1.40033  -1.39770  -1.20120  -1.19912  -1.09490
 Alpha  occ. eigenvalues --   -1.09312  -1.05557  -1.05322  -0.96309  -0.96118
 Alpha  occ. eigenvalues --   -0.86946  -0.86732  -0.83163  -0.82925  -0.78194
 Alpha  occ. eigenvalues --   -0.77926  -0.72684  -0.72424  -0.71804  -0.71545
 Alpha  occ. eigenvalues --   -0.71235  -0.71100  -0.65780  -0.65592  -0.65570
 Alpha  occ. eigenvalues --   -0.65331  -0.62921  -0.62652  -0.56093  -0.55881
 Alpha  occ. eigenvalues --   -0.53852  -0.53707  -0.53588  -0.53421  -0.49450
 Alpha  occ. eigenvalues --   -0.49433  -0.49195  -0.49168  -0.45417  -0.45142
 Alpha  occ. eigenvalues --   -0.38084  -0.37948  -0.37155  -0.36908
 Alpha virt. eigenvalues --    0.04372   0.04554   0.10494   0.10724   0.15800
 Alpha virt. eigenvalues --    0.15839   0.18119   0.22039   0.25018   0.25583
 Alpha virt. eigenvalues --    0.27778   0.29014   0.29972   0.31311   0.32638

 Mulliken charges:
               1
     1  C   -0.176779
     2  C   -0.218542
     3  C   -0.169966
     4  C    0.159809
     5  C   -0.170395
     6  C   -0.218456
     7  H    0.220125
     8  H    0.226697
     9  H    0.279001
    10  H    0.277082
    11  H    0.222057
    12  N    0.487858
    13  O   -0.459324
    14  O   -0.457913
    15  C   -0.170278
    16  C   -0.217997
    17  C   -0.169641
    18  C    0.159365
    19  C   -0.170356
    20  C   -0.220762
    21  H    0.227178
    22  H    0.226288
    23  H    0.278172
    24  H    0.269485
    25  H    0.217839
    26  N    0.488280
    27  O   -0.461392
    28  O   -0.457434
 Sum of Mulliken charges =  -0.00000

 Dipole moment (field-independent basis, Debye):
    X=             -2.9640    Y=              5.9197    Z=              1.2179  Tot=              6.7314
 Quadrupole moment (field-independent basis, Debye-Ang):
   XX=           -155.7313   YY=           -101.9800   ZZ=           -106.1244
   XY=            -16.3405   XZ=             10.8466   YZ=             -0.3344

 Normal termination of Gaussian 16 at Thu May  6 16:28:48 2021.
