 Gaussian 16, Revision A.03,
 Gaussian 16:  EM64L-G16RevA.03 25-Dec-2016

 -------------
 #p 6-31g* mp2
 -------------

 ------------------------------------------------------
 Input file generated by CHIRIPA (05-May-2021 14:51:09)
 ------------------------------------------------------
 Symbolic Z-matrix:
 Charge =  0 Multiplicity = 1

                         Standard orientation:
 ---------------------------------------------------------------------
 Center     Atomic      Atomic             Coordinates (Angstroms)
 Number     Number       Type             X           Y           Z
 ---------------------------------------------------------------------
      1          6           0       -3.479242    1.012087    0.148493
      2          6           0       -2.548509    2.021720   -0.524085
      3          6           0       -2.551812    3.383358    0.171418
      4          1           0       -4.500653    1.416443    0.161206
      5          1           0       -3.178553    0.889399    1.198221
      6          1           0       -2.850005    2.141428   -1.572602
      7          1           0       -1.529230    1.614830   -0.535371
      8          1           0       -2.230004    3.284599    1.213189
      9          1           0       -3.558283    3.814189    0.170065
     10          1           0       -1.879731    4.089744   -0.325758
     11          6           0       -3.486842   -0.353938   -0.535354
     12          6           0       -4.417575   -1.363571    0.137224
     13          6           0       -4.414272   -2.725209   -0.558280
     14          1           0       -3.787531   -0.231250   -1.585082
     15          1           0       -2.465431   -0.758294   -0.548067
     16          1           0       -5.436854   -0.956681    0.148509
     17          1           0       -4.116079   -1.483279    1.185740
     18          1           0       -3.407801   -3.156040   -0.556926
     19          1           0       -4.736081   -2.626451   -1.600051
     20          1           0       -5.086353   -3.431595   -0.061103
     21          6           0        2.814222   -0.070554    0.456639
     22          6           0        1.759499   -1.166544    0.612690
     23          6           0        0.426931   -0.633781    1.140155
     24          1           0        2.971816    0.418736    1.427569
     25          1           0        2.431849    0.702306   -0.224444
     26          1           0        2.144300   -1.937791    1.292190
     27          1           0        1.604537   -1.653408   -0.358683
     28          1           0        0.017443    0.120510    0.460476
     29          1           0        0.560273   -0.165489    2.120729
     30          1           0       -0.312495   -1.433975    1.244072
     31          6           0        4.151862   -0.587595   -0.069778
     32          6           0        5.206585    0.508395   -0.225828
     33          6           0        6.539153   -0.024367   -0.753295
     34          1           0        4.534235   -1.360455    0.611306
     35          1           0        3.994269   -1.076885   -1.040708
     36          1           0        5.361547    0.995260    0.745545
     37          1           0        4.821784    1.279643   -0.905328
     38          1           0        6.405811   -0.492660   -1.733867
     39          1           0        6.948641   -0.778659   -0.073614
     40          1           0        7.278579    0.775826   -0.857211
 ---------------------------------------------------------------------

 SCF Done:  E(RHF) =  -470.733093873     A.U. after   11 cycles
 E2 =    -0.1583255349D+01 EUMP2 =    -0.47231634922210D+03

 The electronic state is 1-A.
 Alpha  occ. eigenvalues --  -11.21673 -11.21628 -11.21566 -11.21556 -11.21451
 Alpha  occ. eigenvalues --  -11.21389 -11.21333 -11.21269 -11.21161 -11.21091
 Alpha  occ. eigenvalues --  -11.21046 -11.21041  -1.08482  -1.08375  -1.03587
 Alpha  occ. eigenvalues --   -1.03491  -0.96043  -0.95932  -0.87060  -0.86954
 Alpha  occ. eigenvalues --   -0.79660  -0.79552  -0.78298  -0.78181  -0.65180
 Alpha  occ. eigenvalues --   -0.64963  -0.61049  -0.60845  -0.59408  -0.59304
 Alpha  occ. eigenvalues --   -0.57648  -0.57544  -0.55354  -0.55202  -0.52736
 Alpha  occ. eigenvalues --   -0.52645  -0.52473  -0.52349  -0.50035  -0.49856
 Alpha  occ. eigenvalues --   -0.48041  -0.47815  -0.46799  -0.46521  -0.45882
 Alpha  occ. eigenvalues --   -0.45789  -0.45694  -0.45457  -0.43829  -0.43736
 Alpha virt. eigenvalues --    0.20669   0.23026   0.23659   0.24452   0.26039
 Alpha virt. eigenvalues --    0.26610   0.27224   0.27581   0.27920   0.29574
 Alpha virt. eigenvalues --    0.29907   0.31512   0.31780   0.31949   0.32267

 Mulliken charges:
               1
     1  C   -0.297950
     2  C   -0.305298
     3  C   -0.475453
     4  H    0.149399
     5  H    0.150767
     6  H    0.151766
     7  H    0.156120
     8  H    0.155618
     9  H    0.155159
    10  H    0.159817
    11  C   -0.302181
    12  C   -0.299732
    13  C   -0.475590
    14  H    0.148730
    15  H    0.154368
    16  H    0.151756
    17  H    0.151934
    18  H    0.154723
    19  H    0.155109
    20  H    0.160110
    21  C   -0.298494
    22  C   -0.299572
    23  C   -0.484256
    24  H    0.149836
    25  H    0.149497
    26  H    0.152272
    27  H    0.152199
    28  H    0.162494
    29  H    0.155500
    30  H    0.160847
    31  C   -0.298374
    32  C   -0.299721
    33  C   -0.475745
    34  H    0.149641
    35  H    0.149812
    36  H    0.152000
    37  H    0.152057
    38  H    0.155252
    39  H    0.155214
    40  H    0.160368
 Sum of Mulliken charges =  -0.00000

 Dipole moment (field-independent basis, Debye):
    X=              0.0382    Y=             -0.0004    Z=              0.0132  Tot=              0.0405
 Quadrupole moment (field-independent basis, Debye-Ang):
   XX=            -85.2121   YY=            -85.8656   ZZ=            -83.7819
   XY=             -0.1760   XZ=              1.0767   YZ=             -0.8241

 Normal termination of Gaussian 16 at Thu May  6 06:53:36 2021.
