 Gaussian 16, Revision A.03,
 Gaussian 16:  EM64L-G16RevA.03 25-Dec-2016

 -------------
 #p 6-31g* mp2
 -------------

 ------------------------------------------------------
 Input file generated by CHIRIPA (05-May-2021 14:55:25)
 ------------------------------------------------------
 Symbolic Z-matrix:
 Charge =  0 Multiplicity = 1

                         Standard orientation:
 ---------------------------------------------------------------------
 Center     Atomic      Atomic             Coordinates (Angstroms)
 Number     Number       Type             X           Y           Z
 ---------------------------------------------------------------------
      1          6           0       -4.665146    1.085605   -0.897616
      2          6           0       -3.405941    1.686709   -0.799654
      3          6           0       -2.333725    0.998910   -0.223604
      4          6           0       -2.557194   -0.294362    0.246289
      5          6           0       -3.799976   -0.920343    0.163039
      6          6           0       -4.857805   -0.213712   -0.416805
      7          1           0       -5.492481    1.627218   -1.346579
      8          1           0       -3.253404    2.695658   -1.172212
      9          1           0       -1.348482    1.440365   -0.135101
     10          1           0       -3.921316   -1.927350    0.543342
     11          1           0       -5.834630   -0.683042   -0.491556
     12          7           0       -1.429702   -1.032472    0.858135
     13          8           0       -1.652511   -2.170802    1.264581
     14          8           0       -0.344514   -0.458697    0.919669
     15          6           0        3.878786   -0.445352   -0.122215
     16          6           0        3.240814   -1.570615   -0.937543
     17          6           0        3.987791   -2.897535   -0.799336
     18          1           0        4.921862   -0.315584   -0.441741
     19          1           0        3.910398   -0.740944    0.935623
     20          1           0        3.209154   -1.272416   -1.993332
     21          1           0        2.199077   -1.697591   -0.616172
     22          1           0        4.007674   -3.221334    0.246303
     23          1           0        5.023490   -2.793743   -1.138681
     24          1           0        3.514746   -3.687988   -1.390329
     25          6           0        3.143340    0.887497   -0.250133
     26          6           0        3.781313    2.012759    0.565193
     27          6           0        3.034335    3.339680    0.426987
     28          1           0        3.111728    1.183088   -1.307971
     29          1           0        2.100263    0.757729    0.069392
     30          1           0        4.823049    2.139735    0.243823
     31          1           0        3.812971    1.714561    1.620983
     32          1           0        1.998636    3.235887    0.766333
     33          1           0        3.014453    3.663477   -0.618652
     34          1           0        3.507380    4.130132    1.017980
 ---------------------------------------------------------------------

 SCF Done:  E(RHF) =  -669.536592051     A.U. after   15 cycles
 E2 =    -0.2091470391D+01 EUMP2 =    -0.67162806244205D+03

 The electronic state is 1-A.
 Alpha  occ. eigenvalues --  -20.61047 -20.61041 -15.86074 -11.31338 -11.27896
 Alpha  occ. eigenvalues --  -11.27892 -11.27625 -11.26892 -11.26881 -11.20864
 Alpha  occ. eigenvalues --  -11.20631 -11.20428 -11.20337 -11.20278 -11.20090
 Alpha  occ. eigenvalues --   -1.60100  -1.39659  -1.19502  -1.08917  -1.07442
 Alpha  occ. eigenvalues --   -1.04891  -1.02651  -0.95768  -0.95123  -0.86294
 Alpha  occ. eigenvalues --   -0.86153  -0.82607  -0.78717  -0.77681  -0.77222
 Alpha  occ. eigenvalues --   -0.72302  -0.71406  -0.70612  -0.65165  -0.64893
 Alpha  occ. eigenvalues --   -0.64034  -0.62239  -0.60038  -0.58513  -0.56733
 Alpha  occ. eigenvalues --   -0.55398  -0.54405  -0.53225  -0.52982  -0.51862
 Alpha  occ. eigenvalues --   -0.51570  -0.49142  -0.49048  -0.48994  -0.47047
 Alpha  occ. eigenvalues --   -0.45712  -0.45196  -0.44795  -0.44498  -0.42868
 Alpha  occ. eigenvalues --   -0.37478  -0.36489
 Alpha virt. eigenvalues --    0.04841   0.11166   0.16330   0.20974   0.23600
 Alpha virt. eigenvalues --    0.24881   0.26404   0.27452   0.27975   0.28758
 Alpha virt. eigenvalues --    0.29189   0.31001   0.31712   0.32408   0.32765

 Mulliken charges:
               1
     1  C   -0.170415
     2  C   -0.218702
     3  C   -0.170404
     4  C    0.157542
     5  C   -0.170709
     6  C   -0.218601
     7  H    0.226228
     8  H    0.224383
     9  H    0.276210
    10  H    0.275879
    11  H    0.223973
    12  N    0.495348
    13  O   -0.458172
    14  O   -0.468088
    15  C   -0.295350
    16  C   -0.305264
    17  C   -0.474988
    18  H    0.143587
    19  H    0.152696
    20  H    0.144578
    21  H    0.169273
    22  H    0.157197
    23  H    0.150326
    24  H    0.157527
    25  C   -0.310104
    26  C   -0.298160
    27  C   -0.474934
    28  H    0.141490
    29  H    0.173365
    30  H    0.148755
    31  H    0.153980
    32  H    0.152137
    33  H    0.151294
    34  H    0.158120
 Sum of Mulliken charges =  -0.00000

 Dipole moment (field-independent basis, Debye):
    X=             -4.3069    Y=              2.4903    Z=             -2.0269  Tot=              5.3721
 Quadrupole moment (field-independent basis, Debye-Ang):
   XX=            -73.7860   YY=            -94.9993   ZZ=            -96.0910
   XY=             -2.4915   XZ=              4.2135   YZ=              0.1216

 Normal termination of Gaussian 16 at Thu May  6 04:46:50 2021.
