 Gaussian 16, Revision A.03,
 Gaussian 16:  EM64L-G16RevA.03 25-Dec-2016

 -------------
 #p 6-31g* mp2
 -------------

 ------------------------------------------------------
 Input file generated by CHIRIPA (05-May-2021 14:51:09)
 ------------------------------------------------------
 Symbolic Z-matrix:
 Charge =  0 Multiplicity = 1

                         Standard orientation:
 ---------------------------------------------------------------------
 Center     Atomic      Atomic             Coordinates (Angstroms)
 Number     Number       Type             X           Y           Z
 ---------------------------------------------------------------------
      1          6           0       -2.365553    0.991115    0.008778
      2          6           0       -3.229763    2.218639    0.299144
      3          6           0       -2.415111    3.408052    0.808489
      4          1           0       -1.827896    0.704552    0.922973
      5          1           0       -1.600302    1.257360   -0.733447
      6          1           0       -3.994028    1.949787    1.039573
      7          1           0       -3.765572    2.502197   -0.615798
      8          1           0       -1.662910    3.704233    0.070200
      9          1           0       -1.892663    3.148684    1.734976
     10          1           0       -3.052631    4.274624    1.009688
     11          6           0       -3.165659   -0.206172   -0.501187
     12          6           0       -2.301449   -1.433696   -0.791553
     13          6           0       -3.116101   -2.623109   -1.300898
     14          1           0       -3.930910   -0.472417    0.241039
     15          1           0       -3.703316    0.080391   -1.415381
     16          1           0       -1.765640   -1.717254    0.123389
     17          1           0       -1.537184   -1.164844   -1.531981
     18          1           0       -3.638549   -2.363741   -2.227385
     19          1           0       -3.868302   -2.919290   -0.562608
     20          1           0       -2.478581   -3.489681   -1.502096
     21          6           0        2.978881    0.055622   -0.334449
     22          6           0        4.397807    0.605804   -0.186347
     23          6           0        4.810008    1.500432   -1.355759
     24          1           0        2.907967   -0.510118   -1.273520
     25          1           0        2.274895    0.894833   -0.421196
     26          1           0        5.098755   -0.234181   -0.098516
     27          1           0        4.465404    1.170139    0.752574
     28          1           0        4.133877    2.357138   -1.442374
     29          1           0        4.770827    0.944840   -2.298300
     30          1           0        5.827685    1.882830   -1.229406
     31          6           0        2.552331   -0.840565    0.826858
     32          6           0        1.133405   -1.390747    0.678756
     33          6           0        0.721204   -2.285375    1.848168
     34          1           0        3.256317   -1.679775    0.913605
     35          1           0        2.623246   -0.274825    1.765928
     36          1           0        1.065808   -1.955082   -0.260166
     37          1           0        0.432456   -0.550762    0.590924
     38          1           0        0.760385   -1.729783    2.790708
     39          1           0        1.397334   -3.142081    1.934783
     40          1           0       -0.296473   -2.667773    1.721815
 ---------------------------------------------------------------------

 SCF Done:  E(RHF) =  -470.731990500     A.U. after   11 cycles
 E2 =    -0.1584656587D+01 EUMP2 =    -0.47231664708726D+03

 The electronic state is 1-A.
 Alpha  occ. eigenvalues --  -11.21634 -11.21581 -11.21490 -11.21477 -11.21428
 Alpha  occ. eigenvalues --  -11.21365 -11.21350 -11.21300 -11.21113 -11.21073
 Alpha  occ. eigenvalues --  -11.21060 -11.21038  -1.08475  -1.08361  -1.03585
 Alpha  occ. eigenvalues --   -1.03450  -0.95998  -0.95960  -0.87006  -0.86976
 Alpha  occ. eigenvalues --   -0.79726  -0.79489  -0.78454  -0.77978  -0.65134
 Alpha  occ. eigenvalues --   -0.64979  -0.60990  -0.60890  -0.59555  -0.59159
 Alpha  occ. eigenvalues --   -0.57700  -0.57468  -0.55290  -0.55240  -0.52710
 Alpha  occ. eigenvalues --   -0.52641  -0.52446  -0.52367  -0.49928  -0.49897
 Alpha  occ. eigenvalues --   -0.48027  -0.47809  -0.46694  -0.46589  -0.46093
 Alpha  occ. eigenvalues --   -0.45768  -0.45613  -0.45194  -0.43784  -0.43752
 Alpha virt. eigenvalues --    0.21374   0.23187   0.23560   0.24417   0.25498
 Alpha virt. eigenvalues --    0.26123   0.26770   0.27660   0.28483   0.29641
 Alpha virt. eigenvalues --    0.30443   0.30939   0.31576   0.31885   0.32041

 Mulliken charges:
               1
     1  C   -0.301512
     2  C   -0.299299
     3  C   -0.475777
     4  H    0.151304
     5  H    0.149843
     6  H    0.152102
     7  H    0.152245
     8  H    0.154985
     9  H    0.154852
    10  H    0.160543
    11  C   -0.297485
    12  C   -0.308216
    13  C   -0.475409
    14  H    0.149003
    15  H    0.149406
    16  H    0.162488
    17  H    0.152766
    18  H    0.154909
    19  H    0.154555
    20  H    0.159803
    21  C   -0.298319
    22  C   -0.299575
    23  C   -0.475682
    24  H    0.149254
    25  H    0.149586
    26  H    0.151889
    27  H    0.151963
    28  H    0.155080
    29  H    0.155029
    30  H    0.160217
    31  C   -0.297869
    32  C   -0.306279
    33  C   -0.480398
    34  H    0.148958
    35  H    0.149087
    36  H    0.152867
    37  H    0.160560
    38  H    0.154749
    39  H    0.155776
    40  H    0.162003
 Sum of Mulliken charges =  -0.00000

 Dipole moment (field-independent basis, Debye):
    X=             -0.0141    Y=              0.0088    Z=             -0.0021  Tot=              0.0168
 Quadrupole moment (field-independent basis, Debye-Ang):
   XX=            -85.2043   YY=            -85.4131   ZZ=            -84.3951
   XY=             -1.0277   XZ=             -0.1958   YZ=              0.2606

 Normal termination of Gaussian 16 at Thu May  6 05:21:15 2021.
