 Gaussian 16, Revision A.03,
 Gaussian 16:  EM64L-G16RevA.03 25-Dec-2016

 -------------
 #p 6-31g* mp2
 -------------

 ------------------------------------------------------
 Input file generated by CHIRIPA (05-May-2021 14:57:21)
 ------------------------------------------------------
 Symbolic Z-matrix:
 Charge =  0 Multiplicity = 1

                         Standard orientation:
 ---------------------------------------------------------------------
 Center     Atomic      Atomic             Coordinates (Angstroms)
 Number     Number       Type             X           Y           Z
 ---------------------------------------------------------------------
      1          6           0        2.972018    2.579975   -0.337823
      2          6           0        3.985008    1.999604    0.432593
      3          6           0        4.020617    0.616432    0.632883
      4          6           0        3.022882   -0.159887    0.045394
      5          6           0        2.000551    0.388671   -0.727402
      6          6           0        1.984763    1.774077   -0.914346
      7          1           0        2.952054    3.655324   -0.488229
      8          1           0        4.753028    2.623013    0.881538
      9          1           0        4.793313    0.140939    1.224715
     10          1           0        1.248701   -0.258714   -1.162180
     11          1           0        1.196854    2.222056   -1.513143
     12          7           0        3.050088   -1.625372    0.250368
     13          8           0        2.159474   -2.287410   -0.277978
     14          8           0        3.961511   -2.084232    0.935490
     15          6           0       -3.685432    2.308300    0.445736
     16          6           0       -2.509033    2.032483   -0.258916
     17          6           0       -2.129616    0.712088   -0.518051
     18          6           0       -2.953912   -0.312693   -0.055827
     19          6           0       -4.131937   -0.070077    0.648931
     20          6           0       -4.491707    1.257992    0.896616
     21          1           0       -3.972540    3.336994    0.642592
     22          1           0       -1.880928    2.846162   -0.610277
     23          1           0       -1.224141    0.470159   -1.061190
     24          1           0       -4.737615   -0.902310    0.986514
     25          1           0       -5.405864    1.469217    1.444107
     26          7           0       -2.562640   -1.714597   -0.324100
     27          8           0       -3.306109   -2.599604    0.093816
     28          8           0       -1.519901   -1.901858   -0.947211
 ---------------------------------------------------------------------

 SCF Done:  E(RHF) =  -868.335180392     A.U. after   16 cycles
 E2 =    -0.2601857065D+01 EUMP2 =    -0.87093703745680D+03

 The electronic state is 1-A.
 Alpha  occ. eigenvalues --  -20.60785 -20.60743 -20.60370 -20.60288 -15.85814
 Alpha  occ. eigenvalues --  -15.85393 -11.31439 -11.31125 -11.28147 -11.27977
 Alpha  occ. eigenvalues --  -11.27801 -11.27757 -11.27749 -11.27626 -11.27179
 Alpha  occ. eigenvalues --  -11.27043 -11.26966 -11.26831  -1.59821  -1.59412
 Alpha  occ. eigenvalues --   -1.39373  -1.38946  -1.19630  -1.19361  -1.08968
 Alpha  occ. eigenvalues --   -1.08693  -1.05096  -1.04831  -0.95768  -0.95454
 Alpha  occ. eigenvalues --   -0.86477  -0.86205  -0.82614  -0.82289  -0.77672
 Alpha  occ. eigenvalues --   -0.77220  -0.72030  -0.71589  -0.71144  -0.70775
 Alpha  occ. eigenvalues --   -0.70752  -0.70442  -0.65293  -0.65157  -0.64996
 Alpha  occ. eigenvalues --   -0.64832  -0.62618  -0.62006  -0.55569  -0.55320
 Alpha  occ. eigenvalues --   -0.53380  -0.53258  -0.53101  -0.52898  -0.48794
 Alpha  occ. eigenvalues --   -0.48779  -0.48409  -0.48324  -0.44717  -0.44263
 Alpha  occ. eigenvalues --   -0.37598  -0.37365  -0.36745  -0.36390
 Alpha virt. eigenvalues --    0.04885   0.05322   0.10893   0.11246   0.16344
 Alpha virt. eigenvalues --    0.16627   0.18619   0.22277   0.24857   0.26206
 Alpha virt. eigenvalues --    0.28108   0.29038   0.30881   0.31538   0.32503

 Mulliken charges:
               1
     1  C   -0.170833
     2  C   -0.218806
     3  C   -0.169814
     4  C    0.158703
     5  C   -0.180520
     6  C   -0.221215
     7  H    0.223100
     8  H    0.223285
     9  H    0.276716
    10  H    0.290483
    11  H    0.213007
    12  N    0.486066
    13  O   -0.446920
    14  O   -0.463643
    15  C   -0.170805
    16  C   -0.218643
    17  C   -0.168861
    18  C    0.159333
    19  C   -0.169436
    20  C   -0.218158
    21  H    0.225492
    22  H    0.216675
    23  H    0.268590
    24  H    0.277838
    25  H    0.224796
    26  N    0.488963
    27  O   -0.457616
    28  O   -0.457774
 Sum of Mulliken charges =  -0.00000

 Dipole moment (field-independent basis, Debye):
    X=             -1.5745    Y=              9.7262    Z=              0.3189  Tot=              9.8579
 Quadrupole moment (field-independent basis, Debye-Ang):
   XX=            -90.3832   YY=           -110.2154   ZZ=           -103.6925
   XY=              3.3515   XZ=             -4.7826   YZ=             -0.4653

 Normal termination of Gaussian 16 at Thu May  6 17:51:37 2021.
