 Gaussian 16, Revision A.03,
 Gaussian 16:  EM64L-G16RevA.03 25-Dec-2016

 -------------
 #p 6-31g* mp2
 -------------

 ------------------------------------------------------
 Input file generated by CHIRIPA (05-May-2021 14:57:23)
 ------------------------------------------------------
 Symbolic Z-matrix:
 Charge =  0 Multiplicity = 1

                         Standard orientation:
 ---------------------------------------------------------------------
 Center     Atomic      Atomic             Coordinates (Angstroms)
 Number     Number       Type             X           Y           Z
 ---------------------------------------------------------------------
      1          6           0        2.788182    2.423122    0.571794
      2          6           0        2.005386    1.290421    0.818248
      3          6           0        2.471669    0.017244    0.477442
      4          6           0        3.731106   -0.087061   -0.110970
      5          6           0        4.534586    1.022449   -0.369227
      6          6           0        4.048062    2.285763   -0.020114
      7          1           0        2.418100    3.408325    0.839767
      8          1           0        1.026559    1.394085    1.277809
      9          1           0        1.886445   -0.876446    0.657025
     10          1           0        5.506249    0.887390   -0.828627
     11          1           0        4.658171    3.163674   -0.212689
     12          7           0        4.235453   -1.429695   -0.476164
     13          8           0        5.348463   -1.494806   -0.993469
     14          8           0        3.508199   -2.391519   -0.238182
     15          6           0       -1.684639   -0.633982    1.554590
     16          6           0       -1.469685   -0.255447    0.225295
     17          6           0       -2.550017    0.023841   -0.616981
     18          6           0       -3.837793   -0.085907   -0.094601
     19          6           0       -4.084396   -0.460679    1.225256
     20          6           0       -2.989008   -0.735211    2.049456
     21          1           0       -0.839563   -0.849092    2.201869
     22          1           0       -0.457786   -0.176008   -0.161737
     23          1           0       -2.412232    0.318983   -1.650095
     24          1           0       -5.104610   -0.531204    1.582481
     25          1           0       -3.158945   -1.028968    3.081384
     26          7           0       -4.989461    0.207244   -0.976713
     27          8           0       -6.114282    0.103244   -0.492360
     28          8           0       -4.745511    0.535468   -2.135762
 ---------------------------------------------------------------------

 SCF Done:  E(RHF) =  -868.336504331     A.U. after   16 cycles
 E2 =    -0.2601441743D+01 EUMP2 =    -0.87093794607330D+03

 The electronic state is 1-A.
 Alpha  occ. eigenvalues --  -20.61507 -20.61493 -20.61129 -20.61124 -15.86563
 Alpha  occ. eigenvalues --  -15.86185 -11.32084 -11.31678 -11.28760 -11.28587
 Alpha  occ. eigenvalues --  -11.28343 -11.28258 -11.28237 -11.28108 -11.27727
 Alpha  occ. eigenvalues --  -11.27604 -11.27325 -11.27295  -1.60575  -1.60201
 Alpha  occ. eigenvalues --   -1.40126  -1.39751  -1.20256  -1.19871  -1.09596
 Alpha  occ. eigenvalues --   -1.09269  -1.05716  -1.05273  -0.96419  -0.96073
 Alpha  occ. eigenvalues --   -0.87063  -0.86710  -0.83272  -0.82886  -0.78346
 Alpha  occ. eigenvalues --   -0.77870  -0.72775  -0.72404  -0.71902  -0.71525
 Alpha  occ. eigenvalues --   -0.71353  -0.71006  -0.65955  -0.65710  -0.65524
 Alpha  occ. eigenvalues --   -0.65312  -0.63131  -0.62454  -0.56114  -0.55854
 Alpha  occ. eigenvalues --   -0.54034  -0.53873  -0.53516  -0.53311  -0.49545
 Alpha  occ. eigenvalues --   -0.49523  -0.49172  -0.49148  -0.45499  -0.45127
 Alpha  occ. eigenvalues --   -0.38191  -0.37893  -0.37304  -0.36859
 Alpha virt. eigenvalues --    0.04196   0.04615   0.10231   0.10736   0.15549
 Alpha virt. eigenvalues --    0.16079   0.18656   0.21951   0.24964   0.26995
 Alpha virt. eigenvalues --    0.27560   0.29945   0.30053   0.30941   0.31472

 Mulliken charges:
               1
     1  C   -0.170724
     2  C   -0.222476
     3  C   -0.179549
     4  C    0.159922
     5  C   -0.169782
     6  C   -0.217476
     7  H    0.229848
     8  H    0.224295
     9  H    0.270158
    10  H    0.278885
    11  H    0.227510
    12  N    0.488161
    13  O   -0.456690
    14  O   -0.460804
    15  C   -0.176649
    16  C   -0.225845
    17  C   -0.171351
    18  C    0.159323
    19  C   -0.170370
    20  C   -0.217617
    21  H    0.222620
    22  H    0.226571
    23  H    0.278524
    24  H    0.277598
    25  H    0.225755
    26  N    0.487877
    27  O   -0.458908
    28  O   -0.458803
 Sum of Mulliken charges =  -0.00000

 Dipole moment (field-independent basis, Debye):
    X=              2.3701    Y=              3.8072    Z=              4.3016  Tot=              6.2142
 Quadrupole moment (field-independent basis, Debye-Ang):
   XX=           -142.1246   YY=           -105.3023   ZZ=           -103.2009
   XY=             24.8187   XZ=            -11.9544   YZ=             -2.5103

 Normal termination of Gaussian 16 at Thu May  6 12:58:44 2021.
