 Gaussian 16, Revision A.03,
 Gaussian 16:  EM64L-G16RevA.03 25-Dec-2016

 -------------
 #p 6-31g* mp2
 -------------

 ------------------------------------------------------
 Input file generated by CHIRIPA (05-May-2021 14:51:12)
 ------------------------------------------------------
 Symbolic Z-matrix:
 Charge =  0 Multiplicity = 1

                         Standard orientation:
 ---------------------------------------------------------------------
 Center     Atomic      Atomic             Coordinates (Angstroms)
 Number     Number       Type             X           Y           Z
 ---------------------------------------------------------------------
      1          6           0        4.006742    0.374765   -0.111853
      2          6           0        5.378576   -0.267512   -0.320508
      3          6           0        6.367086    0.664412   -1.022049
      4          1           0        3.598950    0.678012   -1.085861
      5          1           0        4.126073    1.294676    0.477146
      6          1           0        5.256528   -1.186672   -0.907759
      7          1           0        5.783066   -0.569438    0.654092
      8          1           0        6.518300    1.576949   -0.436378
      9          1           0        5.988771    0.956209   -2.007104
     10          1           0        7.341192    0.185189   -1.161058
     11          6           0        3.007576   -0.544568    0.588305
     12          6           0        1.635742    0.097709    0.796960
     13          6           0        0.647231   -0.834215    1.498502
     14          1           0        2.888245   -1.464479   -0.000693
     15          1           0        3.415368   -0.847815    1.562314
     16          1           0        1.231252    0.399635   -0.177639
     17          1           0        1.757790    1.016869    1.384212
     18          1           0        1.025547   -1.126012    2.483556
     19          1           0        0.496017   -1.746753    0.912831
     20          1           0       -0.326874   -0.354992    1.637510
     21          6           0       -3.368910   -0.605316    0.058284
     22          6           0       -3.627523   -1.749490   -0.922516
     23          6           0       -3.346468   -3.124035   -0.314711
     24          1           0       -2.325204   -0.651055    0.398187
     25          1           0       -3.994641   -0.747746    0.950230
     26          1           0       -3.002508   -1.604199   -1.812945
     27          1           0       -4.670681   -1.700908   -1.260270
     28          1           0       -3.979903   -3.294485    0.561820
     29          1           0       -2.302252   -3.197227    0.006006
     30          1           0       -3.537864   -3.927351   -1.032980
     31          6           0       -3.645408    0.775119   -0.534737
     32          6           0       -3.386794    1.919294    0.446063
     33          6           0       -3.667850    3.293839   -0.161742
     34          1           0       -3.019675    0.917549   -1.426683
     35          1           0       -4.689113    0.820858   -0.874640
     36          1           0       -2.343637    1.870711    0.783817
     37          1           0       -4.011808    1.774003    1.336493
     38          1           0       -4.712065    3.367030   -0.482458
     39          1           0       -3.034414    3.464288   -1.038273
     40          1           0       -3.476454    4.097155    0.556527
 ---------------------------------------------------------------------

 SCF Done:  E(RHF) =  -470.733215656     A.U. after   11 cycles
 E2 =    -0.1582927833D+01 EUMP2 =    -0.47231614348813D+03

 The electronic state is 1-A.
 Alpha  occ. eigenvalues --  -11.21679 -11.21632 -11.21603 -11.21565 -11.21453
 Alpha  occ. eigenvalues --  -11.21392 -11.21363 -11.21278 -11.21144 -11.21095
 Alpha  occ. eigenvalues --  -11.21067 -11.21036  -1.08482  -1.08399  -1.03586
 Alpha  occ. eigenvalues --   -1.03505  -0.96042  -0.95947  -0.87061  -0.86962
 Alpha  occ. eigenvalues --   -0.79660  -0.79560  -0.78293  -0.78214  -0.65135
 Alpha  occ. eigenvalues --   -0.65025  -0.61003  -0.60882  -0.59425  -0.59317
 Alpha  occ. eigenvalues --   -0.57700  -0.57519  -0.55330  -0.55232  -0.52795
 Alpha  occ. eigenvalues --   -0.52639  -0.52483  -0.52325  -0.49985  -0.49887
 Alpha  occ. eigenvalues --   -0.47971  -0.47887  -0.46714  -0.46576  -0.45833
 Alpha  occ. eigenvalues --   -0.45773  -0.45735  -0.45652  -0.43791  -0.43733
 Alpha virt. eigenvalues --    0.20761   0.23134   0.23744   0.24131   0.26120
 Alpha virt. eigenvalues --    0.26505   0.26971   0.27102   0.27907   0.29315
 Alpha virt. eigenvalues --    0.30381   0.31598   0.31683   0.31890   0.32246

 Mulliken charges:
               1
     1  C   -0.298333
     2  C   -0.299708
     3  C   -0.475737
     4  H    0.149619
     5  H    0.149657
     6  H    0.151995
     7  H    0.152046
     8  H    0.155245
     9  H    0.155200
    10  H    0.160376
    11  C   -0.298438
    12  C   -0.300045
    13  C   -0.482479
    14  H    0.149651
    15  H    0.149997
    16  H    0.151680
    17  H    0.152315
    18  H    0.156192
    19  H    0.155197
    20  H    0.166126
    21  C   -0.307547
    22  C   -0.298895
    23  C   -0.476541
    24  H    0.159875
    25  H    0.148959
    26  H    0.151312
    27  H    0.151713
    28  H    0.155257
    29  H    0.156009
    30  H    0.159900
    31  C   -0.297583
    32  C   -0.301179
    33  C   -0.475602
    34  H    0.149054
    35  H    0.149556
    36  H    0.152465
    37  H    0.151967
    38  H    0.155293
    39  H    0.155212
    40  H    0.160219
 Sum of Mulliken charges =  -0.00000

 Dipole moment (field-independent basis, Debye):
    X=              0.0350    Y=              0.0013    Z=              0.0215  Tot=              0.0411
 Quadrupole moment (field-independent basis, Debye-Ang):
   XX=            -84.5021   YY=            -86.1350   ZZ=            -84.1678
   XY=             -0.1401   XZ=              0.3140   YZ=              0.8858

 Normal termination of Gaussian 16 at Wed May  5 16:47:41 2021.
