 Gaussian 16, Revision A.03,
 Gaussian 16:  EM64L-G16RevA.03 25-Dec-2016

 -------------
 #p 6-31g* mp2
 -------------

 ------------------------------------------------------
 Input file generated by CHIRIPA (05-May-2021 14:53:16)
 ------------------------------------------------------
 Symbolic Z-matrix:
 Charge =  0 Multiplicity = 1

                         Standard orientation:
 ---------------------------------------------------------------------
 Center     Atomic      Atomic             Coordinates (Angstroms)
 Number     Number       Type             X           Y           Z
 ---------------------------------------------------------------------
      1          6           0       -3.817759    0.211129    0.362841
      2          6           0       -2.707456   -0.836293    0.452946
      3          6           0       -1.383116   -0.252960    0.946545
      4          1           0       -3.497697    1.018549   -0.309899
      5          1           0       -3.962961    0.667420    1.351835
      6          1           0       -2.565341   -1.291451   -0.535614
      7          1           0       -3.030277   -1.641407    1.125400
      8          1           0       -1.502436    0.184470    1.943048
      9          1           0       -1.034859    0.536415    0.272597
     10          1           0       -0.603423   -1.018926    1.003409
     11          6           0       -5.147867   -0.356775   -0.129122
     12          6           0       -6.258170    0.690647   -0.219227
     13          6           0       -7.582510    0.107314   -0.712826
     14          1           0       -5.002666   -0.813066   -1.118116
     15          1           0       -5.467930   -1.164194    0.543618
     16          1           0       -5.935350    1.495762   -0.891681
     17          1           0       -6.400285    1.145805    0.769333
     18          1           0       -7.930768   -0.682061   -0.038878
     19          1           0       -7.463191   -0.330116   -1.709329
     20          1           0       -8.362204    0.873280   -0.769690
     21          6           0        3.517508   -2.465045   -0.165579
     22          6           0        4.704203   -1.751679   -0.364034
     23          6           0        4.707521   -0.354176   -0.325047
     24          6           0        3.500718    0.300704   -0.084115
     25          6           0        2.302033   -0.381811    0.117424
     26          6           0        2.322318   -1.779044    0.074095
     27          1           0        3.524097   -3.550555   -0.197551
     28          1           0        5.633883   -2.281792   -0.550366
     29          1           0        5.611793    0.222997   -0.475321
     30          1           0        1.390880    0.174505    0.301085
     31          1           0        1.399203   -2.330442    0.228572
     32          7           0        3.491737    1.780036   -0.040542
     33          8           0        2.415372    2.333454    0.173478
     34          8           0        4.561233    2.358106   -0.221236
 ---------------------------------------------------------------------

 SCF Done:  E(RHF) =  -669.534766522     A.U. after   15 cycles
 E2 =    -0.2091971313D+01 EUMP2 =    -0.67162673783459D+03

 The electronic state is 1-A.
 Alpha  occ. eigenvalues --  -20.60691 -20.60685 -15.85740 -11.31061 -11.27665
 Alpha  occ. eigenvalues --  -11.27550 -11.27417 -11.26676 -11.26649 -11.22156
 Alpha  occ. eigenvalues --  -11.21857 -11.21746 -11.21694 -11.21601 -11.21190
 Alpha  occ. eigenvalues --   -1.59765  -1.39319  -1.19251  -1.08753  -1.08660
 Alpha  occ. eigenvalues --   -1.04664  -1.03908  -0.96390  -0.95492  -0.87426
 Alpha  occ. eigenvalues --   -0.86054  -0.82336  -0.79996  -0.78527  -0.77373
 Alpha  occ. eigenvalues --   -0.71963  -0.71087  -0.70377  -0.65379  -0.64915
 Alpha  occ. eigenvalues --   -0.64678  -0.62158  -0.61262  -0.59715  -0.57966
 Alpha  occ. eigenvalues --   -0.55664  -0.55160  -0.53131  -0.52991  -0.52912
 Alpha  occ. eigenvalues --   -0.52583  -0.50275  -0.48717  -0.48715  -0.48284
 Alpha  occ. eigenvalues --   -0.46976  -0.46076  -0.45975  -0.44733  -0.44156
 Alpha  occ. eigenvalues --   -0.37247  -0.36254
 Alpha virt. eigenvalues --    0.05148   0.11389   0.16627   0.20464   0.22724
 Alpha virt. eigenvalues --    0.23900   0.26099   0.26237   0.26668   0.27891
 Alpha virt. eigenvalues --    0.28766   0.29621   0.31247   0.31637   0.32401

 Mulliken charges:
               1
     1  C   -0.299905
     2  C   -0.299308
     3  C   -0.487846
     4  H    0.153790
     5  H    0.151847
     6  H    0.151356
     7  H    0.152459
     8  H    0.164278
     9  H    0.164139
    10  H    0.149702
    11  C   -0.298700
    12  C   -0.300159
    13  C   -0.475922
    14  H    0.149468
    15  H    0.149328
    16  H    0.153623
    17  H    0.152889
    18  H    0.154929
    19  H    0.155176
    20  H    0.161369
    21  C   -0.170356
    22  C   -0.219431
    23  C   -0.169971
    24  C    0.157487
    25  C   -0.178334
    26  C   -0.226596
    27  H    0.225204
    28  H    0.222974
    29  H    0.275170
    30  H    0.290538
    31  H    0.225086
    32  N    0.487613
    33  O   -0.461100
    34  O   -0.460798
 Sum of Mulliken charges =  -0.00000

 Dipole moment (field-independent basis, Debye):
    X=             -0.1920    Y=             -5.1160    Z=             -0.1361  Tot=              5.1215
 Quadrupole moment (field-independent basis, Debye-Ang):
   XX=            -90.2557   YY=            -98.6884   ZZ=            -94.5768
   XY=            -18.7712   XZ=             -2.2590   YZ=              0.1576

 Normal termination of Gaussian 16 at Thu May  6 09:05:45 2021.
