 Gaussian 16, Revision A.03,
 Gaussian 16:  EM64L-G16RevA.03 25-Dec-2016

 -------------
 #p 6-31g* mp2
 -------------

 ------------------------------------------------------
 Input file generated by CHIRIPA (05-May-2021 14:51:10)
 ------------------------------------------------------
 Symbolic Z-matrix:
 Charge =  0 Multiplicity = 1

                         Standard orientation:
 ---------------------------------------------------------------------
 Center     Atomic      Atomic             Coordinates (Angstroms)
 Number     Number       Type             X           Y           Z
 ---------------------------------------------------------------------
      1          6           0        2.355024   -1.191216    0.495352
      2          6           0        1.088790   -1.739948   -0.163077
      3          6           0        0.210945   -2.528340    0.809353
      4          1           0        2.931570   -2.025214    0.918419
      5          1           0        2.071482   -0.547327    1.339393
      6          1           0        1.374603   -2.381506   -1.006481
      7          1           0        0.515286   -0.904565   -0.584793
      8          1           0       -0.102737   -1.894945    1.645424
      9          1           0        0.761463   -3.380278    1.221341
     10          1           0       -0.688751   -2.911457    0.317795
     11          6           0        3.242894   -0.400703   -0.464077
     12          6           0        4.509128    0.148030    0.194351
     13          6           0        5.386974    0.936422   -0.778078
     14          1           0        3.526436   -1.044591   -1.308119
     15          1           0        2.666348    0.433296   -0.887144
     16          1           0        5.082632   -0.687353    0.616068
     17          1           0        4.223315    0.789587    1.037755
     18          1           0        4.836455    1.788359   -1.190066
     19          1           0        5.700655    0.303027   -1.614150
     20          1           0        6.286670    1.319538   -0.286520
     21          6           0       -3.544267    0.658971    0.080193
     22          6           0       -4.026802   -0.600563   -0.640026
     23          6           0       -5.519910   -0.861228   -0.438845
     24          1           0       -3.760303    0.565554    1.153294
     25          1           0       -4.120053    1.522530   -0.280546
     26          1           0       -3.449327   -1.461277   -0.279040
     27          1           0       -3.809419   -0.504218   -1.711510
     28          1           0       -6.111901   -0.021076   -0.816063
     29          1           0       -5.749763   -0.983574    0.624545
     30          1           0       -5.843528   -1.766334   -0.962213
     31          6           0       -2.053652    0.932947   -0.111468
     32          6           0       -1.571116    2.192481    0.608751
     33          6           0       -0.078008    2.453146    0.407571
     34          1           0       -1.477865    0.069389    0.249271
     35          1           0       -1.837616    1.026364   -1.184570
     36          1           0       -1.788499    2.096136    1.680236
     37          1           0       -2.148592    3.053196    0.247766
     38          1           0        0.151845    2.575492   -0.655821
     39          1           0        0.513983    1.612995    0.784789
     40          1           0        0.245609    3.358253    0.930939
 ---------------------------------------------------------------------

 SCF Done:  E(RHF) =  -470.732725662     A.U. after   11 cycles
 E2 =    -0.1584818181D+01 EUMP2 =    -0.47231754384371D+03

 The electronic state is 1-A.
 Alpha  occ. eigenvalues --  -11.21660 -11.21611 -11.21560 -11.21536 -11.21413
 Alpha  occ. eigenvalues --  -11.21381 -11.21351 -11.21308 -11.21166 -11.21125
 Alpha  occ. eigenvalues --  -11.21076 -11.21032  -1.08491  -1.08381  -1.03586
 Alpha  occ. eigenvalues --   -1.03503  -0.96053  -0.95944  -0.87042  -0.86987
 Alpha  occ. eigenvalues --   -0.79658  -0.79559  -0.78356  -0.78148  -0.65323
 Alpha  occ. eigenvalues --   -0.64861  -0.61103  -0.60794  -0.59377  -0.59338
 Alpha  occ. eigenvalues --   -0.57682  -0.57544  -0.55522  -0.55079  -0.52726
 Alpha  occ. eigenvalues --   -0.52659  -0.52472  -0.52353  -0.50040  -0.49842
 Alpha  occ. eigenvalues --   -0.48062  -0.47828  -0.46715  -0.46614  -0.46044
 Alpha  occ. eigenvalues --   -0.45768  -0.45686  -0.45292  -0.43818  -0.43761
 Alpha virt. eigenvalues --    0.19744   0.22257   0.24005   0.24262   0.25977
 Alpha virt. eigenvalues --    0.26135   0.26599   0.27509   0.29351   0.29659
 Alpha virt. eigenvalues --    0.30337   0.31031   0.31487   0.31779   0.32293

 Mulliken charges:
               1
     1  C   -0.299564
     2  C   -0.307241
     3  C   -0.478167
     4  H    0.149937
     5  H    0.149313
     6  H    0.152268
     7  H    0.159606
     8  H    0.153720
     9  H    0.156147
    10  H    0.161297
    11  C   -0.300447
    12  C   -0.299522
    13  C   -0.475760
    14  H    0.149328
    15  H    0.152733
    16  H    0.151629
    17  H    0.152061
    18  H    0.155531
    19  H    0.154953
    20  H    0.160084
    21  C   -0.297345
    22  C   -0.301168
    23  C   -0.475704
    24  H    0.149558
    25  H    0.149466
    26  H    0.153167
    27  H    0.151901
    28  H    0.155207
    29  H    0.155301
    30  H    0.160282
    31  C   -0.308047
    32  C   -0.299215
    33  C   -0.481797
    34  H    0.161294
    35  H    0.149039
    36  H    0.151766
    37  H    0.152264
    38  H    0.155287
    39  H    0.160050
    40  H    0.160788
 Sum of Mulliken charges =  -0.00000

 Dipole moment (field-independent basis, Debye):
    X=             -0.0179    Y=              0.0082    Z=             -0.0104  Tot=              0.0223
 Quadrupole moment (field-independent basis, Debye-Ang):
   XX=            -86.2567   YY=            -84.2136   ZZ=            -84.3818
   XY=             -1.3011   XZ=              0.5090   YZ=              0.1226

 Normal termination of Gaussian 16 at Thu May  6 03:47:47 2021.
