 Gaussian 16, Revision A.03,
 Gaussian 16:  EM64L-G16RevA.03 25-Dec-2016

 -------------
 #p 6-31g* mp2
 -------------

 ------------------------------------------------------
 Input file generated by CHIRIPA (05-May-2021 14:51:13)
 ------------------------------------------------------
 Symbolic Z-matrix:
 Charge =  0 Multiplicity = 1

                         Standard orientation:
 ---------------------------------------------------------------------
 Center     Atomic      Atomic             Coordinates (Angstroms)
 Number     Number       Type             X           Y           Z
 ---------------------------------------------------------------------
      1          6           0       -4.512469    0.609555    0.220782
      2          6           0       -5.830336    0.570503   -0.553614
      3          6           0       -6.687182    1.816121   -0.325481
      4          1           0       -4.727495    0.717137    1.292759
      5          1           0       -3.947252    1.503918   -0.075934
      6          1           0       -6.392279   -0.324251   -0.256542
      7          1           0       -5.612153    0.462808   -1.623854
      8          1           0       -6.149299    2.716505   -0.639475
      9          1           0       -6.933858    1.924973    0.735605
     10          1           0       -7.624507    1.767241   -0.888413
     11          6           0       -3.644881   -0.628818    0.002949
     12          6           0       -2.327014   -0.589765    0.777344
     13          6           0       -1.470169   -1.835384    0.549212
     14          1           0       -4.210098   -1.523180    0.299665
     15          1           0       -3.429855   -0.736400   -1.069028
     16          1           0       -2.545198   -0.482071    1.847585
     17          1           0       -1.765071    0.304989    0.480273
     18          1           0       -1.223493   -1.944236   -0.511874
     19          1           0       -2.008051   -2.735767    0.863206
     20          1           0       -0.532844   -1.786504    1.112144
     21          6           0        3.637459   -0.539693    0.183099
     22          6           0        3.388497   -1.700368   -0.780662
     23          6           0        2.504157   -2.791388   -0.176168
     24          1           0        4.104155   -0.926066    1.099535
     25          1           0        2.672638   -0.107128    0.482103
     26          1           0        4.353564   -2.129731   -1.078840
     27          1           0        2.922514   -1.311160   -1.694988
     28          1           0        1.527689   -2.383946    0.105085
     29          1           0        2.966869   -3.207168    0.724734
     30          1           0        2.339080   -3.611326   -0.882078
     31          6           0        4.519891    0.558955   -0.406829
     32          6           0        4.768854    1.719631    0.556931
     33          6           0        5.653193    2.810650   -0.047563
     34          1           0        5.484712    0.126391   -0.705834
     35          1           0        4.053195    0.945329   -1.323265
     36          1           0        5.234837    1.330422    1.471257
     37          1           0        3.803787    2.148993    0.855110
     38          1           0        5.190481    3.226432   -0.948465
     39          1           0        6.629662    2.403209   -0.328816
     40          1           0        5.818271    3.630589    0.658348
 ---------------------------------------------------------------------

 SCF Done:  E(RHF) =  -470.733088631     A.U. after   11 cycles
 E2 =    -0.1582407894D+01 EUMP2 =    -0.47231549652554D+03

 The electronic state is 1-A.
 Alpha  occ. eigenvalues --  -11.21646 -11.21622 -11.21590 -11.21543 -11.21435
 Alpha  occ. eigenvalues --  -11.21382 -11.21375 -11.21322 -11.21113 -11.21088
 Alpha  occ. eigenvalues --  -11.21063 -11.20926  -1.08463  -1.08398  -1.03571
 Alpha  occ. eigenvalues --   -1.03482  -0.96038  -0.95915  -0.87079  -0.86911
 Alpha  occ. eigenvalues --   -0.79665  -0.79517  -0.78274  -0.78213  -0.65099
 Alpha  occ. eigenvalues --   -0.65027  -0.61009  -0.60864  -0.59429  -0.59282
 Alpha  occ. eigenvalues --   -0.57675  -0.57502  -0.55385  -0.55158  -0.52831
 Alpha  occ. eigenvalues --   -0.52621  -0.52445  -0.52252  -0.50030  -0.49773
 Alpha  occ. eigenvalues --   -0.47971  -0.47836  -0.46694  -0.46541  -0.45816
 Alpha  occ. eigenvalues --   -0.45757  -0.45736  -0.45678  -0.43774  -0.43745
 Alpha virt. eigenvalues --    0.21955   0.23066   0.23595   0.24950   0.26321
 Alpha virt. eigenvalues --    0.26655   0.27132   0.27369   0.27814   0.28952
 Alpha virt. eigenvalues --    0.30496   0.31311   0.31750   0.31808   0.32061

 Mulliken charges:
               1
     1  C   -0.298303
     2  C   -0.299664
     3  C   -0.475718
     4  H    0.149752
     5  H    0.149457
     6  H    0.152015
     7  H    0.151960
     8  H    0.155173
     9  H    0.155227
    10  H    0.160333
    11  C   -0.298685
    12  C   -0.299390
    13  C   -0.480131
    14  H    0.149754
    15  H    0.149724
    16  H    0.152208
    17  H    0.151522
    18  H    0.156118
    19  H    0.156130
    20  H    0.163809
    21  C   -0.298368
    22  C   -0.298981
    23  C   -0.484058
    24  H    0.149547
    25  H    0.149009
    26  H    0.151553
    27  H    0.151330
    28  H    0.164994
    29  H    0.154177
    30  H    0.159749
    31  C   -0.298214
    32  C   -0.299632
    33  C   -0.475680
    34  H    0.149577
    35  H    0.149474
    36  H    0.151932
    37  H    0.151820
    38  H    0.155089
    39  H    0.155191
    40  H    0.160201
 Sum of Mulliken charges =  -0.00000

 Dipole moment (field-independent basis, Debye):
    X=             -0.0512    Y=             -0.0069    Z=              0.0113  Tot=              0.0529
 Quadrupole moment (field-independent basis, Debye-Ang):
   XX=            -84.9033   YY=            -85.8474   ZZ=            -84.1115
   XY=             -0.0321   XZ=              0.1744   YZ=             -0.3721

 Normal termination of Gaussian 16 at Wed May  5 18:23:36 2021.
