 Gaussian 16, Revision A.03,
 Gaussian 16:  EM64L-G16RevA.03 25-Dec-2016

 -------------
 #p 6-31g* mp2
 -------------

 ------------------------------------------------------
 Input file generated by CHIRIPA (05-May-2021 14:53:12)
 ------------------------------------------------------
 Symbolic Z-matrix:
 Charge =  0 Multiplicity = 1

                         Standard orientation:
 ---------------------------------------------------------------------
 Center     Atomic      Atomic             Coordinates (Angstroms)
 Number     Number       Type             X           Y           Z
 ---------------------------------------------------------------------
      1          6           0        2.556910    1.585828   -0.107172
      2          6           0        1.236378    2.310668    0.155100
      3          6           0        1.397493    3.830009    0.213731
      4          1           0        3.275461    1.849645    0.680883
      5          1           0        2.983808    1.946985   -1.053068
      6          1           0        0.811412    1.947249    1.099529
      7          1           0        0.520826    2.044944   -0.633565
      8          1           0        1.798651    4.211599   -0.730759
      9          1           0        2.090888    4.113349    1.012182
     10          1           0        0.441340    4.328145    0.402128
     11          6           0        2.412117    0.066290   -0.168551
     12          6           0        3.732650   -0.658550   -0.430823
     13          6           0        3.571535   -2.177891   -0.489455
     14          1           0        1.985220   -0.294866    0.777345
     15          1           0        1.693566   -0.197527   -0.956606
     16          1           0        4.448202   -0.392826    0.357842
     17          1           0        4.157616   -0.295131   -1.375252
     18          1           0        2.878140   -2.461230   -1.287905
     19          1           0        3.170377   -2.559481    0.455036
     20          1           0        4.527687   -2.676027   -0.677852
     21          6           0       -3.757873    0.892173   -0.729546
     22          6           0       -3.371337    0.931936    0.614154
     23          6           0       -2.365814    0.084633    1.089075
     24          6           0       -1.765380   -0.794001    0.188647
     25          6           0       -2.128429   -0.857277   -1.155780
     26          6           0       -3.136281   -0.000732   -1.608675
     27          1           0       -4.539893    1.553966   -1.089921
     28          1           0       -3.852327    1.624361    1.299164
     29          1           0       -2.047099    0.094541    2.124324
     30          1           0       -1.630560   -1.558229   -1.814725
     31          1           0       -3.434430   -0.033801   -2.652733
     32          7           0       -0.699645   -1.695894    0.679765
     33          8           0       -0.186191   -2.460931   -0.133697
     34          8           0       -0.397955   -1.620684    1.868868
 ---------------------------------------------------------------------

 SCF Done:  E(RHF) =  -669.536475782     A.U. after   15 cycles
 E2 =    -0.2094121078D+01 EUMP2 =    -0.67163059685941D+03

 The electronic state is 1-A.
 Alpha  occ. eigenvalues --  -20.60968 -20.60950 -15.85940 -11.31272 -11.27838
 Alpha  occ. eigenvalues --  -11.27830 -11.27568 -11.26844 -11.26831 -11.21311
 Alpha  occ. eigenvalues --  -11.20936 -11.20818 -11.20622 -11.20426 -11.19662
 Alpha  occ. eigenvalues --   -1.59989  -1.39552  -1.19436  -1.08840  -1.07749
 Alpha  occ. eigenvalues --   -1.04834  -1.02815  -0.95687  -0.95244  -0.86268
 Alpha  occ. eigenvalues --   -0.86226  -0.82529  -0.78944  -0.77610  -0.77517
 Alpha  occ. eigenvalues --   -0.72188  -0.71251  -0.70550  -0.65098  -0.64841
 Alpha  occ. eigenvalues --   -0.64385  -0.62186  -0.60219  -0.58703  -0.56840
 Alpha  occ. eigenvalues --   -0.55342  -0.54520  -0.53167  -0.52930  -0.51982
 Alpha  occ. eigenvalues --   -0.51636  -0.49190  -0.48966  -0.48953  -0.47210
 Alpha  occ. eigenvalues --   -0.45989  -0.45437  -0.44944  -0.44443  -0.43072
 Alpha  occ. eigenvalues --   -0.37396  -0.36424
 Alpha virt. eigenvalues --    0.04900   0.11164   0.16375   0.21294   0.23434
 Alpha virt. eigenvalues --    0.25103   0.26933   0.27316   0.27565   0.28451
 Alpha virt. eigenvalues --    0.28824   0.31025   0.32021   0.32163   0.32259

 Mulliken charges:
               1
     1  C   -0.296582
     2  C   -0.301272
     3  C   -0.474660
     4  H    0.149160
     5  H    0.146373
     6  H    0.151307
     7  H    0.149126
     8  H    0.154443
     9  H    0.155902
    10  H    0.155222
    11  C   -0.308542
    12  C   -0.299386
    13  C   -0.474586
    14  H    0.164691
    15  H    0.146607
    16  H    0.148846
    17  H    0.145744
    18  H    0.159840
    19  H    0.168025
    20  H    0.151604
    21  C   -0.170531
    22  C   -0.218382
    23  C   -0.169760
    24  C    0.161178
    25  C   -0.172091
    26  C   -0.218621
    27  H    0.225954
    28  H    0.223790
    29  H    0.275442
    30  H    0.275462
    31  H    0.223701
    32  N    0.489597
    33  O   -0.457369
    34  O   -0.460232
 Sum of Mulliken charges =  -0.00000

 Dipole moment (field-independent basis, Debye):
    X=             -3.9268    Y=              2.9505    Z=             -1.6373  Tot=              5.1775
 Quadrupole moment (field-independent basis, Debye-Ang):
   XX=            -82.6476   YY=           -101.1811   ZZ=            -90.3160
   XY=             -3.2092   XZ=              2.4208   YZ=              3.8444

 Normal termination of Gaussian 16 at Thu May  6 05:43:12 2021.
