 Gaussian 16, Revision A.03,
 Gaussian 16:  EM64L-G16RevA.03 25-Dec-2016

 -------------
 #p 6-31g* mp2
 -------------

 ------------------------------------------------------
 Input file generated by CHIRIPA (05-May-2021 14:51:13)
 ------------------------------------------------------
 Symbolic Z-matrix:
 Charge =  0 Multiplicity = 1

                         Standard orientation:
 ---------------------------------------------------------------------
 Center     Atomic      Atomic             Coordinates (Angstroms)
 Number     Number       Type             X           Y           Z
 ---------------------------------------------------------------------
      1          6           0       -3.366552   -0.277641   -0.130049
      2          6           0       -3.283794   -1.801635   -0.037433
      3          6           0       -1.863811   -2.330114   -0.242740
      4          1           0       -2.992168    0.044577   -1.111353
      5          1           0       -2.697387    0.165231    0.620602
      6          1           0       -3.953961   -2.241500   -0.787107
      7          1           0       -3.658598   -2.120276    0.943692
      8          1           0       -1.186670   -1.918773    0.512826
      9          1           0       -1.483712   -2.040686   -1.227807
     10          1           0       -1.827634   -3.421724   -0.172458
     11          6           0       -4.779764    0.265782    0.073057
     12          6           0       -4.862522    1.789776   -0.019560
     13          6           0       -6.282505    2.318255    0.185748
     14          1           0       -5.448929   -0.177090   -0.677595
     15          1           0       -5.154148   -0.056436    1.054360
     16          1           0       -4.487719    2.108417   -1.000685
     17          1           0       -4.192356    2.229641    0.730114
     18          1           0       -6.662605    2.028827    1.170815
     19          1           0       -6.959646    1.906914   -0.569819
     20          1           0       -6.318682    3.409865    0.115466
     21          6           0        4.718286    0.369328    0.216069
     22          6           0        4.800873    1.788240   -0.347714
     23          6           0        6.097229    2.502333    0.036118
     24          1           0        4.805576    0.410774    1.310423
     25          1           0        5.578544   -0.211587   -0.144332
     26          1           0        3.939975    2.365904    0.012527
     27          1           0        4.713184    1.743428   -1.440838
     28          1           0        6.966050    1.950507   -0.337031
     29          1           0        6.188447    2.576521    1.124592
     30          1           0        6.135334    3.514987   -0.377330
     31          6           0        3.428030   -0.357469   -0.159076
     32          6           0        3.345443   -1.776380    0.404707
     33          6           0        2.049088   -2.490473    0.020874
     34          1           0        2.567772    0.223446    0.201324
     35          1           0        3.340740   -0.398915   -1.253430
     36          1           0        3.433133   -1.731568    1.497830
     37          1           0        4.206341   -2.354045    0.044465
     38          1           0        1.957869   -2.564662   -1.067600
     39          1           0        1.180267   -1.938649    0.394023
     40          1           0        2.010982   -3.503128    0.434323
 ---------------------------------------------------------------------

 SCF Done:  E(RHF) =  -470.732967719     A.U. after   11 cycles
 E2 =    -0.1582373259D+01 EUMP2 =    -0.47231534097812D+03

 The electronic state is 1-A.
 Alpha  occ. eigenvalues --  -11.21598 -11.21580 -11.21563 -11.21532 -11.21395
 Alpha  occ. eigenvalues --  -11.21369 -11.21335 -11.21309 -11.21069 -11.21055
 Alpha  occ. eigenvalues --  -11.21002 -11.20933  -1.08417  -1.08387  -1.03522
 Alpha  occ. eigenvalues --   -1.03467  -0.96000  -0.95887  -0.87055  -0.86865
 Alpha  occ. eigenvalues --   -0.79656  -0.79462  -0.78243  -0.78187  -0.65060
 Alpha  occ. eigenvalues --   -0.65011  -0.60980  -0.60819  -0.59337  -0.59283
 Alpha  occ. eigenvalues --   -0.57671  -0.57456  -0.55396  -0.55090  -0.52750
 Alpha  occ. eigenvalues --   -0.52572  -0.52553  -0.52140  -0.50069  -0.49704
 Alpha  occ. eigenvalues --   -0.48051  -0.47683  -0.46701  -0.46463  -0.45824
 Alpha  occ. eigenvalues --   -0.45711  -0.45702  -0.45589  -0.43785  -0.43713
 Alpha virt. eigenvalues --    0.22474   0.23009   0.23634   0.24769   0.26011
 Alpha virt. eigenvalues --    0.26690   0.26883   0.27602   0.27672   0.29211
 Alpha virt. eigenvalues --    0.30092   0.31390   0.31581   0.32013   0.32234

 Mulliken charges:
               1
     1  C   -0.298149
     2  C   -0.300274
     3  C   -0.476201
     4  H    0.149729
     5  H    0.148864
     6  H    0.151699
     7  H    0.151625
     8  H    0.156807
     9  H    0.155726
    10  H    0.160596
    11  C   -0.298219
    12  C   -0.299621
    13  C   -0.475695
    14  H    0.149577
    15  H    0.149593
    16  H    0.151963
    17  H    0.151772
    18  H    0.155153
    19  H    0.155205
    20  H    0.160216
    21  C   -0.298204
    22  C   -0.299606
    23  C   -0.475676
    24  H    0.149479
    25  H    0.149489
    26  H    0.151852
    27  H    0.151892
    28  H    0.155158
    29  H    0.155110
    30  H    0.160165
    31  C   -0.298106
    32  C   -0.299951
    33  C   -0.478545
    34  H    0.149223
    35  H    0.149549
    36  H    0.151294
    37  H    0.151448
    38  H    0.154811
    39  H    0.160685
    40  H    0.159568
 Sum of Mulliken charges =  -0.00000

 Dipole moment (field-independent basis, Debye):
    X=             -0.0187    Y=             -0.0159    Z=             -0.0086  Tot=              0.0260
 Quadrupole moment (field-independent basis, Debye-Ang):
   XX=            -86.4979   YY=            -85.3666   ZZ=            -83.0810
   XY=             -0.1752   XZ=             -0.2637   YZ=              0.2050

 Normal termination of Gaussian 16 at Thu May  6 00:48:42 2021.
