 Gaussian 16, Revision A.03,
 Gaussian 16:  EM64L-G16RevA.03 25-Dec-2016

 -------------
 #p 6-31g* mp2
 -------------

 ------------------------------------------------------
 Input file generated by CHIRIPA (05-May-2021 14:51:10)
 ------------------------------------------------------
 Symbolic Z-matrix:
 Charge =  0 Multiplicity = 1

                         Standard orientation:
 ---------------------------------------------------------------------
 Center     Atomic      Atomic             Coordinates (Angstroms)
 Number     Number       Type             X           Y           Z
 ---------------------------------------------------------------------
      1          6           0       -3.185741    0.238094   -0.045550
      2          6           0       -4.688742    0.369926    0.202633
      3          6           0       -5.148724    1.825708    0.285744
      4          1           0       -2.641307    0.750770    0.759248
      5          1           0       -2.928118    0.758815   -0.978221
      6          1           0       -4.943674   -0.152068    1.133840
      7          1           0       -5.229658   -0.143288   -0.602747
      8          1           0       -4.922874    2.354854   -0.645706
      9          1           0       -4.635266    2.346024    1.100749
     10          1           0       -6.226313    1.896724    0.463562
     11          6           0       -2.710688   -1.211296   -0.131110
     12          6           0       -1.207687   -1.343128   -0.379293
     13          6           0       -0.747705   -2.798911   -0.462404
     14          1           0       -2.968311   -1.732018    0.801560
     15          1           0       -3.255122   -1.723973   -0.935908
     16          1           0       -0.666771   -0.829914    0.426087
     17          1           0       -0.952755   -0.821134   -1.310501
     18          1           0       -1.261164   -3.319226   -1.277409
     19          1           0       -0.973555   -3.328056    0.469045
     20          1           0        0.329884   -2.869927   -0.640222
     21          6           0        3.246054   -0.179592   -0.137306
     22          6           0        2.779991   -1.368180    0.704137
     23          6           0        3.384414   -2.693889    0.240499
     24          1           0        2.981812   -0.356847   -1.188829
     25          1           0        4.342384   -0.117925   -0.096635
     26          1           0        1.684777   -1.426756    0.663014
     27          1           0        3.045202   -1.187988    1.753809
     28          1           0        4.477180   -2.660150    0.298180
     29          1           0        3.109025   -2.900275   -0.798812
     30          1           0        3.037863   -3.530086    0.855752
     31          6           0        2.650376    1.152794    0.313965
     32          6           0        3.116438    2.341382   -0.527477
     33          6           0        2.512015    3.667092   -0.063838
     34          1           0        1.554046    1.091127    0.273296
     35          1           0        2.914617    1.330049    1.365490
     36          1           0        2.851227    2.161190   -1.577148
     37          1           0        4.211652    2.399959   -0.486353
     38          1           0        2.787405    3.873478    0.975473
     39          1           0        1.419250    3.633352   -0.121519
     40          1           0        2.858566    4.503289   -0.679091
 ---------------------------------------------------------------------

 SCF Done:  E(RHF) =  -470.732466943     A.U. after   11 cycles
 E2 =    -0.1584206056D+01 EUMP2 =    -0.47231667299882D+03

 The electronic state is 1-A.
 Alpha  occ. eigenvalues --  -11.21683 -11.21635 -11.21574 -11.21501 -11.21459
 Alpha  occ. eigenvalues --  -11.21398 -11.21364 -11.21305 -11.21095 -11.21087
 Alpha  occ. eigenvalues --  -11.21063 -11.21048  -1.08500  -1.08383  -1.03626
 Alpha  occ. eigenvalues --   -1.03466  -0.96056  -0.95931  -0.87044  -0.86969
 Alpha  occ. eigenvalues --   -0.79667  -0.79556  -0.78354  -0.78160  -0.65204
 Alpha  occ. eigenvalues --   -0.64993  -0.61178  -0.60879  -0.59438  -0.59195
 Alpha  occ. eigenvalues --   -0.57677  -0.57492  -0.55335  -0.55230  -0.52709
 Alpha  occ. eigenvalues --   -0.52630  -0.52449  -0.52364  -0.49963  -0.49901
 Alpha  occ. eigenvalues --   -0.47974  -0.47874  -0.46805  -0.46521  -0.46019
 Alpha  occ. eigenvalues --   -0.45784  -0.45729  -0.45364  -0.43831  -0.43747
 Alpha virt. eigenvalues --    0.20734   0.23061   0.23543   0.24462   0.25691
 Alpha virt. eigenvalues --    0.26628   0.26917   0.27570   0.28215   0.29292
 Alpha virt. eigenvalues --    0.30925   0.31250   0.31673   0.31794   0.32282

 Mulliken charges:
               1
     1  C   -0.298548
     2  C   -0.299681
     3  C   -0.475781
     4  H    0.149739
     5  H    0.149345
     6  H    0.152094
     7  H    0.152048
     8  H    0.155188
     9  H    0.155332
    10  H    0.160410
    11  C   -0.297644
    12  C   -0.305495
    13  C   -0.482312
    14  H    0.149897
    15  H    0.149997
    16  H    0.155547
    17  H    0.151816
    18  H    0.155884
    19  H    0.155498
    20  H    0.167259
    21  C   -0.297122
    22  C   -0.311281
    23  C   -0.476662
    24  H    0.149030
    25  H    0.149341
    26  H    0.164440
    27  H    0.151513
    28  H    0.155618
    29  H    0.154418
    30  H    0.160813
    31  C   -0.301110
    32  C   -0.299468
    33  C   -0.475804
    34  H    0.152253
    35  H    0.149201
    36  H    0.151839
    37  H    0.151849
    38  H    0.155002
    39  H    0.155408
    40  H    0.160128
 Sum of Mulliken charges =  -0.00000

 Dipole moment (field-independent basis, Debye):
    X=             -0.0396    Y=             -0.0164    Z=              0.0050  Tot=              0.0432
 Quadrupole moment (field-independent basis, Debye-Ang):
   XX=            -84.5884   YY=            -86.8392   ZZ=            -83.4067
   XY=              0.9515   XZ=              0.7773   YZ=             -0.2325

 Normal termination of Gaussian 16 at Thu May  6 00:36:03 2021.
