 Gaussian 16, Revision A.03,
 Gaussian 16:  EM64L-G16RevA.03 25-Dec-2016

 -------------
 #p 6-31g* mp2
 -------------

 ------------------------------------------------------
 Input file generated by CHIRIPA (05-May-2021 14:51:10)
 ------------------------------------------------------
 Symbolic Z-matrix:
 Charge =  0 Multiplicity = 1

                         Standard orientation:
 ---------------------------------------------------------------------
 Center     Atomic      Atomic             Coordinates (Angstroms)
 Number     Number       Type             X           Y           Z
 ---------------------------------------------------------------------
      1          6           0        2.615560   -0.123712   -0.279490
      2          6           0        4.009135    0.486099   -0.434618
      3          6           0        4.366658    0.780655   -1.891741
      4          1           0        2.560451   -1.050629   -0.866630
      5          1           0        1.872680    0.562800   -0.708706
      6          1           0        4.749028   -0.200733   -0.003995
      7          1           0        4.060993    1.411571    0.153113
      8          1           0        3.650795    1.483892   -2.329463
      9          1           0        4.342740   -0.137573   -2.487464
     10          1           0        5.366938    1.216072   -1.979555
     11          6           0        2.243687   -0.423795    1.171505
     12          6           0        0.850112   -1.033606    1.326633
     13          6           0        0.492589   -1.328163    2.783756
     14          1           0        2.986567   -1.110307    1.600721
     15          1           0        2.298795    0.503122    1.758645
     16          1           0        0.798254   -1.959079    0.738902
     17          1           0        0.110218   -0.346775    0.896010
     18          1           0        0.516506   -0.409934    3.379479
     19          1           0        1.208451   -2.031399    3.221478
     20          1           0       -0.507692   -1.763580    2.871570
     21          6           0       -2.575231    0.814755    0.073173
     22          6           0       -2.121016    2.208987   -0.360174
     23          6           0       -2.419168    3.280522    0.688974
     24          1           0       -3.653663    0.835733    0.281712
     25          1           0       -2.079237    0.552297    1.017896
     26          1           0       -2.616661    2.468168   -1.304513
     27          1           0       -1.043576    2.184642   -0.567889
     28          1           0       -1.911946    3.048876    1.631135
     29          1           0       -3.493969    3.334015    0.890325
     30          1           0       -2.086257    4.269422    0.358660
     31          6           0       -2.284016   -0.267247   -0.965188
     32          6           0       -2.738230   -1.661479   -0.531841
     33          6           0       -2.440078   -2.733015   -1.580989
     34          1           0       -2.780010   -0.004789   -1.909911
     35          1           0       -1.205583   -0.288225   -1.173727
     36          1           0       -3.815671   -1.637134   -0.324126
     37          1           0       -2.242585   -1.920662    0.412498
     38          1           0       -1.365277   -2.786507   -1.782340
     39          1           0       -2.947300   -2.501369   -2.523150
     40          1           0       -2.772990   -3.721914   -1.250675
 ---------------------------------------------------------------------

 SCF Done:  E(RHF) =  -470.732575374     A.U. after   11 cycles
 E2 =    -0.1585122390D+01 EUMP2 =    -0.47231769776323D+03

 The electronic state is 1-A.
 Alpha  occ. eigenvalues --  -11.21655 -11.21653 -11.21634 -11.21560 -11.21480
 Alpha  occ. eigenvalues --  -11.21417 -11.21390 -11.21312 -11.21159 -11.21111
 Alpha  occ. eigenvalues --  -11.21106 -11.21044  -1.08548  -1.08394  -1.03605
 Alpha  occ. eigenvalues --   -1.03524  -0.96052  -0.95980  -0.87061  -0.86997
 Alpha  occ. eigenvalues --   -0.79682  -0.79590  -0.78334  -0.78244  -0.65448
 Alpha  occ. eigenvalues --   -0.64841  -0.61032  -0.60902  -0.59408  -0.59331
 Alpha  occ. eigenvalues --   -0.57658  -0.57585  -0.55425  -0.55197  -0.52737
 Alpha  occ. eigenvalues --   -0.52677  -0.52477  -0.52399  -0.49981  -0.49929
 Alpha  occ. eigenvalues --   -0.47989  -0.47906  -0.46819  -0.46520  -0.46137
 Alpha  occ. eigenvalues --   -0.45813  -0.45678  -0.45381  -0.43849  -0.43779
 Alpha virt. eigenvalues --    0.19612   0.22217   0.23663   0.23865   0.25168
 Alpha virt. eigenvalues --    0.26101   0.26750   0.27940   0.29443   0.29892
 Alpha virt. eigenvalues --    0.30593   0.30908   0.31618   0.31819   0.32553

 Mulliken charges:
               1
     1  C   -0.300251
     2  C   -0.299657
     3  C   -0.475822
     4  H    0.149698
     5  H    0.149997
     6  H    0.152296
     7  H    0.152148
     8  H    0.155354
     9  H    0.155313
    10  H    0.160484
    11  C   -0.297598
    12  C   -0.310138
    13  C   -0.477603
    14  H    0.149783
    15  H    0.149540
    16  H    0.152209
    17  H    0.163490
    18  H    0.155112
    19  H    0.155927
    20  H    0.161263
    21  C   -0.303237
    22  C   -0.300863
    23  C   -0.475553
    24  H    0.150837
    25  H    0.152112
    26  H    0.152651
    27  H    0.151247
    28  H    0.154934
    29  H    0.155594
    30  H    0.160270
    31  C   -0.302100
    32  C   -0.302225
    33  C   -0.476149
    34  H    0.150147
    35  H    0.152856
    36  H    0.151627
    37  H    0.155697
    38  H    0.155623
    39  H    0.155081
    40  H    0.159906
 Sum of Mulliken charges =  -0.00000

 Dipole moment (field-independent basis, Debye):
    X=              0.0147    Y=             -0.0017    Z=              0.0069  Tot=              0.0163
 Quadrupole moment (field-independent basis, Debye-Ang):
   XX=            -83.9338   YY=            -84.7501   ZZ=            -86.0405
   XY=             -0.5377   XZ=              0.8367   YZ=             -0.3117

 Normal termination of Gaussian 16 at Wed May  5 18:13:18 2021.
