 Gaussian 16, Revision A.03,
 Gaussian 16:  EM64L-G16RevA.03 25-Dec-2016

 -------------
 #p 6-31g* mp2
 -------------

 ------------------------------------------------------
 Input file generated by CHIRIPA (05-May-2021 14:51:12)
 ------------------------------------------------------
 Symbolic Z-matrix:
 Charge =  0 Multiplicity = 1

                         Standard orientation:
 ---------------------------------------------------------------------
 Center     Atomic      Atomic             Coordinates (Angstroms)
 Number     Number       Type             X           Y           Z
 ---------------------------------------------------------------------
      1          6           0        1.871620   -1.056356    0.087176
      2          6           0        1.568599   -2.495950   -0.329636
      3          6           0        0.106212   -2.881249   -0.104333
      4          1           0        1.616070   -0.926929    1.147783
      5          1           0        1.220628   -0.373987   -0.476717
      6          1           0        2.220936   -3.175313    0.233870
      7          1           0        1.825080   -2.622017   -1.389325
      8          1           0       -0.557446   -2.227211   -0.679132
      9          1           0       -0.159340   -2.783650    0.953285
     10          1           0       -0.088300   -3.914296   -0.409029
     11          6           0        3.329581   -0.656321   -0.132025
     12          6           0        3.632602    0.783273    0.284788
     13          6           0        5.094990    1.168572    0.059485
     14          1           0        3.980574   -1.338690    0.431869
     15          1           0        3.585131   -0.785748   -1.192632
     16          1           0        3.376122    0.909340    1.344477
     17          1           0        2.980266    1.462636   -0.278718
     18          1           0        5.360542    1.070973   -0.998134
     19          1           0        5.758647    0.514534    0.634284
     20          1           0        5.289501    2.201619    0.364181
     21          6           0       -2.525048    1.549554   -0.289307
     22          6           0       -1.406713    2.379608    0.341822
     23          6           0       -1.267929    3.763876   -0.292477
     24          1           0       -2.331670    1.443576   -1.365558
     25          1           0       -3.474649    2.094222   -0.194499
     26          1           0       -0.459736    1.832914    0.247082
     27          1           0       -1.602675    2.483460    1.416732
     28          1           0       -2.197787    4.331741   -0.185260
     29          1           0       -1.048353    3.677499   -1.361555
     30          1           0       -0.462752    4.340223    0.173754
     31          6           0       -2.676154    0.163123    0.334155
     32          6           0       -3.794488   -0.666931   -0.296974
     33          6           0       -3.933272   -2.051198    0.337326
     34          1           0       -1.726552   -0.381545    0.239348
     35          1           0       -2.869532    0.269101    1.410407
     36          1           0       -3.598526   -0.770783   -1.371882
     37          1           0       -4.741466   -0.120238   -0.202234
     38          1           0       -4.152848   -1.964821    1.406404
     39          1           0       -3.003415   -2.619064    0.230109
     40          1           0       -4.738450   -2.627546   -0.128906
 ---------------------------------------------------------------------

 SCF Done:  E(RHF) =  -470.732649940     A.U. after   11 cycles
 E2 =    -0.1584431300D+01 EUMP2 =    -0.47231708124035D+03

 The electronic state is 1-A.
 Alpha  occ. eigenvalues --  -11.21695 -11.21650 -11.21540 -11.21516 -11.21492
 Alpha  occ. eigenvalues --  -11.21425 -11.21322 -11.21221 -11.21168 -11.21106
 Alpha  occ. eigenvalues --  -11.21039 -11.20925  -1.08518  -1.08348  -1.03617
 Alpha  occ. eigenvalues --   -1.03448  -0.96067  -0.95898  -0.87088  -0.86917
 Alpha  occ. eigenvalues --   -0.79723  -0.79486  -0.78409  -0.78075  -0.65219
 Alpha  occ. eigenvalues --   -0.64933  -0.61054  -0.60833  -0.59440  -0.59273
 Alpha  occ. eigenvalues --   -0.57660  -0.57510  -0.55350  -0.55197  -0.52767
 Alpha  occ. eigenvalues --   -0.52599  -0.52506  -0.52310  -0.50029  -0.49827
 Alpha  occ. eigenvalues --   -0.48163  -0.47752  -0.46750  -0.46518  -0.46219
 Alpha  occ. eigenvalues --   -0.45799  -0.45683  -0.45066  -0.43859  -0.43701
 Alpha virt. eigenvalues --    0.20476   0.22492   0.23597   0.24427   0.25421
 Alpha virt. eigenvalues --    0.26637   0.26890   0.27310   0.28034   0.30228
 Alpha virt. eigenvalues --    0.30944   0.31095   0.31758   0.31880   0.32104

 Mulliken charges:
               1
     1  C   -0.302359
     2  C   -0.300836
     3  C   -0.479890
     4  H    0.150796
     5  H    0.152114
     6  H    0.152540
     7  H    0.152065
     8  H    0.158537
     9  H    0.157030
    10  H    0.161080
    11  C   -0.298291
    12  C   -0.300289
    13  C   -0.475747
    14  H    0.149992
    15  H    0.149725
    16  H    0.152372
    17  H    0.152269
    18  H    0.155242
    19  H    0.155318
    20  H    0.160543
    21  C   -0.297393
    22  C   -0.303539
    23  C   -0.475528
    24  H    0.148273
    25  H    0.149319
    26  H    0.155524
    27  H    0.151876
    28  H    0.155163
    29  H    0.154536
    30  H    0.160160
    31  C   -0.307023
    32  C   -0.298998
    33  C   -0.481851
    34  H    0.158807
    35  H    0.148993
    36  H    0.150512
    37  H    0.151619
    38  H    0.154346
    39  H    0.163617
    40  H    0.159376
 Sum of Mulliken charges =  -0.00000

 Dipole moment (field-independent basis, Debye):
    X=              0.0827    Y=             -0.0551    Z=              0.0187  Tot=              0.1012
 Quadrupole moment (field-independent basis, Debye-Ang):
   XX=            -85.5848   YY=            -85.7641   ZZ=            -83.5554
   XY=             -0.9828   XZ=             -0.0566   YZ=              0.3711

 Normal termination of Gaussian 16 at Thu May  6 03:54:43 2021.
