 Gaussian 16, Revision A.03,
 Gaussian 16:  EM64L-G16RevA.03 25-Dec-2016

 -------------
 #p 6-31g* mp2
 -------------

 ------------------------------------------------------
 Input file generated by CHIRIPA (05-May-2021 14:51:09)
 ------------------------------------------------------
 Symbolic Z-matrix:
 Charge =  0 Multiplicity = 1

                         Standard orientation:
 ---------------------------------------------------------------------
 Center     Atomic      Atomic             Coordinates (Angstroms)
 Number     Number       Type             X           Y           Z
 ---------------------------------------------------------------------
      1          6           0       -3.432498    0.775596   -0.530329
      2          6           0       -3.435755    1.943518    0.456552
      3          6           0       -3.426524    3.305146   -0.238918
      4          1           0       -2.547664    0.852676   -1.176914
      5          1           0       -4.308618    0.858216   -1.188342
      6          1           0       -2.560636    1.857955    1.113409
      7          1           0       -4.320583    1.863542    1.100989
      8          1           0       -4.306671    3.415989   -0.880523
      9          1           0       -2.536724    3.410370   -0.868032
     10          1           0       -3.429029    4.125823    0.485196
     11          6           0       -3.441640   -0.592270    0.149809
     12          6           0       -3.438383   -1.760192   -0.837071
     13          6           0       -3.447614   -3.121819   -0.141601
     14          1           0       -2.565520   -0.674890    0.807823
     15          1           0       -4.326474   -0.669350    0.796394
     16          1           0       -2.553555   -1.680216   -1.481508
     17          1           0       -4.313502   -1.674628   -1.493928
     18          1           0       -4.337414   -3.227044    0.487513
     19          1           0       -2.567467   -3.232663    0.500004
     20          1           0       -3.445109   -3.942497   -0.865716
     21          6           0        2.692344   -0.130364    0.024976
     22          6           0        1.813757   -0.405294    1.245830
     23          6           0        0.326477   -0.479887    0.899095
     24          1           0        2.375535    0.812226   -0.442038
     25          1           0        2.528074   -0.919748   -0.721538
     26          1           0        1.980666    0.383622    1.990390
     27          1           0        2.132819   -1.347241    1.710104
     28          1           0        0.139476   -1.278860    0.174338
     29          1           0       -0.013543    0.461839    0.456216
     30          1           0       -0.283202   -0.677159    1.786357
     31          6           0        4.181794   -0.052962    0.355543
     32          6           0        5.060380    0.221968   -0.865311
     33          6           0        6.547661    0.296560   -0.518575
     34          1           0        4.346064    0.736422    1.102057
     35          1           0        4.498602   -0.995552    0.822559
     36          1           0        4.741319    1.163915   -1.329585
     37          1           0        4.893472   -0.566948   -1.609870
     38          1           0        6.887680   -0.645165   -0.075695
     39          1           0        6.734663    1.095533    0.206183
     40          1           0        7.157340    0.493833   -1.405838
 ---------------------------------------------------------------------

 SCF Done:  E(RHF) =  -470.732962777     A.U. after   11 cycles
 E2 =    -0.1583536887D+01 EUMP2 =    -0.47231649966425D+03

 The electronic state is 1-A.
 Alpha  occ. eigenvalues --  -11.21696 -11.21645 -11.21532 -11.21498 -11.21476
 Alpha  occ. eigenvalues --  -11.21412 -11.21280 -11.21230 -11.21163 -11.21104
 Alpha  occ. eigenvalues --  -11.21036 -11.21002  -1.08507  -1.08319  -1.03615
 Alpha  occ. eigenvalues --   -1.03449  -0.96086  -0.95885  -0.87108  -0.86907
 Alpha  occ. eigenvalues --   -0.79701  -0.79505  -0.78322  -0.78119  -0.65136
 Alpha  occ. eigenvalues --   -0.64961  -0.61075  -0.60796  -0.59453  -0.59261
 Alpha  occ. eigenvalues --   -0.57679  -0.57504  -0.55384  -0.55171  -0.52818
 Alpha  occ. eigenvalues --   -0.52597  -0.52487  -0.52300  -0.50038  -0.49805
 Alpha  occ. eigenvalues --   -0.47994  -0.47832  -0.46702  -0.46542  -0.45910
 Alpha  occ. eigenvalues --   -0.45776  -0.45646  -0.45586  -0.43782  -0.43680
 Alpha virt. eigenvalues --    0.20482   0.22969   0.23587   0.24554   0.25964
 Alpha virt. eigenvalues --    0.26653   0.26947   0.27733   0.27934   0.29695
 Alpha virt. eigenvalues --    0.29977   0.30914   0.31806   0.31895   0.32317

 Mulliken charges:
               1
     1  C   -0.298211
     2  C   -0.301601
     3  C   -0.475491
     4  H    0.149703
     5  H    0.148972
     6  H    0.153139
     7  H    0.151778
     8  H    0.155229
     9  H    0.154444
    10  H    0.159902
    11  C   -0.306383
    12  C   -0.299561
    13  C   -0.476390
    14  H    0.162138
    15  H    0.148277
    16  H    0.151757
    17  H    0.151328
    18  H    0.154978
    19  H    0.155375
    20  H    0.159649
    21  C   -0.298734
    22  C   -0.300489
    23  C   -0.480621
    24  H    0.149620
    25  H    0.149645
    26  H    0.152417
    27  H    0.152457
    28  H    0.157022
    29  H    0.158077
    30  H    0.160882
    31  C   -0.298403
    32  C   -0.299685
    33  C   -0.475753
    34  H    0.149704
    35  H    0.149844
    36  H    0.152013
    37  H    0.152018
    38  H    0.155263
    39  H    0.155266
    40  H    0.160423
 Sum of Mulliken charges =  -0.00000

 Dipole moment (field-independent basis, Debye):
    X=              0.0733    Y=             -0.0058    Z=              0.0266  Tot=              0.0782
 Quadrupole moment (field-independent basis, Debye-Ang):
   XX=            -85.1431   YY=            -85.0007   ZZ=            -84.9112
   XY=             -0.2103   XZ=             -0.1579   YZ=              0.5158

 Normal termination of Gaussian 16 at Thu May  6 02:08:21 2021.
