 Gaussian 16, Revision A.03,
 Gaussian 16:  EM64L-G16RevA.03 25-Dec-2016

 -------------
 #p 6-31g* mp2
 -------------

 ------------------------------------------------------
 Input file generated by CHIRIPA (05-May-2021 14:51:08)
 ------------------------------------------------------
 Symbolic Z-matrix:
 Charge =  0 Multiplicity = 1

                         Standard orientation:
 ---------------------------------------------------------------------
 Center     Atomic      Atomic             Coordinates (Angstroms)
 Number     Number       Type             X           Y           Z
 ---------------------------------------------------------------------
      1          6           0        3.316506   -0.314921   -0.099260
      2          6           0        3.392644   -1.840634   -0.033020
      3          6           0        2.021317   -2.506602   -0.150248
      4          1           0        2.661006    0.048359    0.704040
      5          1           0        2.843938   -0.019104   -1.046133
      6          1           0        3.866183   -2.133448    0.912832
      7          1           0        4.048192   -2.200312   -0.836454
      8          1           0        1.545149   -2.243328   -1.100276
      9          1           0        1.362106   -2.176085    0.658950
     10          1           0        2.099062   -3.597169   -0.100473
     11          6           0        4.679469    0.365261    0.016554
     12          6           0        4.603330    1.890973   -0.049686
     13          6           0        5.974657    2.556941    0.067541
     14          1           0        5.152036    0.069444    0.963426
     15          1           0        5.334969    0.001980   -0.786747
     16          1           0        3.947782    2.250651    0.753747
     17          1           0        4.129791    2.183787   -0.995539
     18          1           0        6.633868    2.226424   -0.741657
     19          1           0        6.450825    2.293668    1.017569
     20          1           0        5.896912    3.647509    0.017767
     21          6           0       -4.671967    0.224206   -0.217482
     22          6           0       -5.036456    1.620635    0.287612
     23          6           0       -6.387514    2.105699   -0.238834
     24          1           0       -4.658203    0.230583   -1.315988
     25          1           0       -5.458210   -0.482921    0.081161
     26          1           0       -4.249075    2.324664   -0.010702
     27          1           0       -5.049165    1.610980    1.385046
     28          1           0       -7.188093    1.426097    0.070710
     29          1           0       -6.383458    2.143836   -1.332969
     30          1           0       -6.628257    3.105922    0.134605
     31          6           0       -3.324008   -0.274546    0.300188
     32          6           0       -2.959519   -1.670974   -0.204905
     33          6           0       -1.608459   -2.156038    0.321541
     34          1           0       -2.537765    0.432581    0.001546
     35          1           0       -3.337771   -0.280923    1.398695
     36          1           0       -2.946809   -1.661321   -1.302339
     37          1           0       -3.746899   -2.375003    0.093408
     38          1           0       -1.612517   -2.194176    1.415676
     39          1           0       -0.807881   -1.476437    0.011997
     40          1           0       -1.367717   -3.156262   -0.051898
 ---------------------------------------------------------------------

 SCF Done:  E(RHF) =  -470.732334255     A.U. after   11 cycles
 E2 =    -0.1582737458D+01 EUMP2 =    -0.47231507171283D+03

 The electronic state is 1-A.
 Alpha  occ. eigenvalues --  -11.21596 -11.21579 -11.21536 -11.21516 -11.21391
 Alpha  occ. eigenvalues --  -11.21367 -11.21332 -11.21307 -11.21067 -11.21054
 Alpha  occ. eigenvalues --  -11.20931 -11.20914  -1.08411  -1.08382  -1.03528
 Alpha  occ. eigenvalues --   -1.03445  -0.96030  -0.95847  -0.87112  -0.86805
 Alpha  occ. eigenvalues --   -0.79706  -0.79409  -0.78249  -0.78171  -0.65039
 Alpha  occ. eigenvalues --   -0.65017  -0.60911  -0.60872  -0.59341  -0.59272
 Alpha  occ. eigenvalues --   -0.57675  -0.57457  -0.55268  -0.55200  -0.52846
 Alpha  occ. eigenvalues --   -0.52618  -0.52448  -0.52090  -0.49915  -0.49835
 Alpha  occ. eigenvalues --   -0.48053  -0.47659  -0.46603  -0.46535  -0.45833
 Alpha  occ. eigenvalues --   -0.45713  -0.45679  -0.45552  -0.43797  -0.43674
 Alpha virt. eigenvalues --    0.22526   0.23000   0.23673   0.24786   0.26451
 Alpha virt. eigenvalues --    0.26635   0.26863   0.27530   0.27694   0.29328
 Alpha virt. eigenvalues --    0.30846   0.31208   0.31492   0.31745   0.32264

 Mulliken charges:
               1
     1  C   -0.298496
     2  C   -0.300244
     3  C   -0.477802
     4  H    0.149403
     5  H    0.148840
     6  H    0.151563
     7  H    0.151298
     8  H    0.154695
     9  H    0.162215
    10  H    0.159257
    11  C   -0.298083
    12  C   -0.299637
    13  C   -0.475694
    14  H    0.149593
    15  H    0.149674
    16  H    0.151914
    17  H    0.151736
    18  H    0.155170
    19  H    0.155213
    20  H    0.160193
    21  C   -0.298162
    22  C   -0.299598
    23  C   -0.475671
    24  H    0.149534
    25  H    0.149477
    26  H    0.151855
    27  H    0.151826
    28  H    0.155151
    29  H    0.155132
    30  H    0.160151
    31  C   -0.298367
    32  C   -0.300536
    33  C   -0.477118
    34  H    0.149403
    35  H    0.149292
    36  H    0.151428
    37  H    0.151221
    38  H    0.153128
    39  H    0.159606
    40  H    0.161439
 Sum of Mulliken charges =  -0.00000

 Dipole moment (field-independent basis, Debye):
    X=              0.0138    Y=             -0.0177    Z=              0.0075  Tot=              0.0237
 Quadrupole moment (field-independent basis, Debye-Ang):
   XX=            -86.6044   YY=            -85.2615   ZZ=            -83.1730
   XY=              0.0822   XZ=             -0.8060   YZ=             -0.2157

 Normal termination of Gaussian 16 at Thu May  6 14:52:04 2021.
