 Gaussian 16, Revision A.03,
 Gaussian 16:  EM64L-G16RevA.03 25-Dec-2016

 -------------
 #p 6-31g* mp2
 -------------

 ------------------------------------------------------
 Input file generated by CHIRIPA (05-May-2021 14:53:15)
 ------------------------------------------------------
 Symbolic Z-matrix:
 Charge =  0 Multiplicity = 1

                         Standard orientation:
 ---------------------------------------------------------------------
 Center     Atomic      Atomic             Coordinates (Angstroms)
 Number     Number       Type             X           Y           Z
 ---------------------------------------------------------------------
      1          6           0       -2.314156    1.023572   -0.385883
      2          6           0       -3.343407    0.204580    0.393785
      3          6           0       -4.434593   -0.381297   -0.502795
      4          1           0       -2.828243    1.835395   -0.918426
      5          1           0       -1.855435    0.386646   -1.154840
      6          1           0       -3.799059    0.842481    1.161951
      7          1           0       -2.826786   -0.605273    0.924687
      8          1           0       -3.998086   -1.039817   -1.260697
      9          1           0       -4.975884    0.416163   -1.022085
     10          1           0       -5.159635   -0.962914    0.075043
     11          6           0       -1.216880    1.615834    0.496692
     12          6           0       -0.187630    2.434826   -0.282975
     13          6           0        0.903557    3.020703    0.613604
     14          1           0       -1.675602    2.252760    1.265649
     15          1           0       -0.702793    0.804010    1.029235
     16          1           0       -0.704250    3.244678   -0.813878
     17          1           0        0.268023    1.796925   -1.051141
     18          1           0        1.444847    2.223242    1.132894
     19          1           0        0.467050    3.679222    1.371506
     20          1           0        1.628598    3.602320    0.035766
     21          6           0       -0.703112   -2.390950    0.381004
     22          6           0        0.125642   -2.028424    1.447899
     23          6           0        1.281968   -1.275052    1.224545
     24          6           0        1.580632   -0.899544   -0.084303
     25          6           0        0.774977   -1.245215   -1.168150
     26          6           0       -0.376376   -1.998880   -0.921319
     27          1           0       -1.599443   -2.976301    0.563629
     28          1           0       -0.125621   -2.331512    2.460346
     29          1           0        1.941256   -0.980700    2.032081
     30          1           0        1.051638   -0.928344   -2.166383
     31          1           0       -1.018141   -2.278986   -1.751813
     32          7           0        2.802151   -0.101829   -0.333185
     33          8           0        3.043164    0.216552   -1.495590
     34          8           0        3.495434    0.189936    0.638858
 ---------------------------------------------------------------------

 SCF Done:  E(RHF) =  -669.532143727     A.U. after   15 cycles
 E2 =    -0.2101426116D+01 EUMP2 =    -0.67163356984388D+03

 The electronic state is 1-A.
 Alpha  occ. eigenvalues --  -20.61041 -20.61021 -15.86035 -11.31401 -11.27985
 Alpha  occ. eigenvalues --  -11.27961 -11.27710 -11.27000 -11.26985 -11.21917
 Alpha  occ. eigenvalues --  -11.21660 -11.21401 -11.21278 -11.21136 -11.20518
 Alpha  occ. eigenvalues --   -1.60076  -1.39634  -1.19633  -1.09022  -1.08430
 Alpha  occ. eigenvalues --   -1.05028  -1.03560  -0.95998  -0.95825  -0.87009
 Alpha  occ. eigenvalues --   -0.86408  -0.82671  -0.79646  -0.78234  -0.77694
 Alpha  occ. eigenvalues --   -0.72271  -0.71453  -0.70720  -0.65284  -0.65248
 Alpha  occ. eigenvalues --   -0.64966  -0.62352  -0.60997  -0.59409  -0.57573
 Alpha  occ. eigenvalues --   -0.55515  -0.55438  -0.53167  -0.53093  -0.52667
 Alpha  occ. eigenvalues --   -0.52375  -0.50019  -0.49034  -0.49030  -0.47962
 Alpha  occ. eigenvalues --   -0.46780  -0.45943  -0.45623  -0.44793  -0.43739
 Alpha  occ. eigenvalues --   -0.37478  -0.36428
 Alpha virt. eigenvalues --    0.04750   0.10801   0.16132   0.20075   0.23425
 Alpha virt. eigenvalues --    0.23868   0.25714   0.27028   0.27827   0.28348
 Alpha virt. eigenvalues --    0.28811   0.29592   0.31060   0.31952   0.32554

 Mulliken charges:
               1
     1  C   -0.296407
     2  C   -0.302218
     3  C   -0.475186
     4  H    0.149173
     5  H    0.146932
     6  H    0.153478
     7  H    0.146861
     8  H    0.145735
     9  H    0.159483
    10  H    0.158585
    11  C   -0.304694
    12  C   -0.305536
    13  C   -0.480498
    14  H    0.147649
    15  H    0.155520
    16  H    0.151312
    17  H    0.151978
    18  H    0.157937
    19  H    0.152099
    20  H    0.168260
    21  C   -0.168619
    22  C   -0.217655
    23  C   -0.176518
    24  C    0.164512
    25  C   -0.171484
    26  C   -0.218141
    27  H    0.228549
    28  H    0.225378
    29  H    0.276779
    30  H    0.276787
    31  H    0.225766
    32  N    0.490066
    33  O   -0.458009
    34  O   -0.457873
 Sum of Mulliken charges =  -0.00000

 Dipole moment (field-independent basis, Debye):
    X=             -4.0407    Y=             -2.9117    Z=              0.8743  Tot=              5.0566
 Quadrupole moment (field-independent basis, Debye-Ang):
   XX=           -109.5734   YY=            -89.8390   ZZ=            -90.4047
   XY=             -1.3399   XZ=              2.3406   YZ=             -0.8899

 Normal termination of Gaussian 16 at Thu May  6 05:51:53 2021.
