 Gaussian 16, Revision A.03,
 Gaussian 16:  EM64L-G16RevA.03 25-Dec-2016

 -------------
 #p 6-31g* mp2
 -------------

 ------------------------------------------------------
 Input file generated by CHIRIPA (05-May-2021 14:55:21)
 ------------------------------------------------------
 Symbolic Z-matrix:
 Charge =  0 Multiplicity = 1

                         Standard orientation:
 ---------------------------------------------------------------------
 Center     Atomic      Atomic             Coordinates (Angstroms)
 Number     Number       Type             X           Y           Z
 ---------------------------------------------------------------------
      1          6           0       -1.696343   -1.459702   -2.228592
      2          6           0       -1.738477   -2.263961   -1.084951
      3          6           0       -1.863471   -1.688933    0.183224
      4          6           0       -1.944142   -0.300048    0.271426
      5          6           0       -1.904988    0.528080   -0.849271
      6          6           0       -1.779586   -0.068701   -2.107316
      7          1           0       -1.599086   -1.914847   -3.209805
      8          1           0       -1.674038   -3.344508   -1.176118
      9          1           0       -1.898583   -2.287894    1.085128
     10          1           0       -1.971432    1.602302   -0.726593
     11          1           0       -1.747126    0.558378   -2.993749
     12          7           0       -2.076684    0.320223    1.608623
     13          8           0       -2.145891    1.546298    1.659482
     14          8           0       -2.108855   -0.431430    2.580539
     15          6           0        2.160506    1.190372    0.127456
     16          6           0        1.498471    1.916382   -1.044124
     17          6           0        0.902897    3.266164   -0.642660
     18          1           0        1.419606    1.043155    0.925166
     19          1           0        2.949200    1.829826    0.547522
     20          1           0        0.712188    1.275177   -1.462732
     21          1           0        2.240984    2.061716   -1.839215
     22          1           0        1.679781    3.926960   -0.244664
     23          1           0        0.142298    3.135953    0.133958
     24          1           0        0.434770    3.767961   -1.495255
     25          6           0        2.760576   -0.160545   -0.258118
     26          6           0        3.422611   -0.886556    0.913464
     27          6           0        4.018185   -2.236338    0.512000
     28          1           0        1.971883   -0.800000   -0.678184
     29          1           0        3.501476   -0.013329   -1.055826
     30          1           0        2.680099   -1.031890    1.708554
     31          1           0        4.208895   -0.245351    1.332072
     32          1           0        4.778784   -2.106126   -0.264619
     33          1           0        3.241302   -2.897134    0.114004
     34          1           0        4.486312   -2.738134    1.364594
 ---------------------------------------------------------------------

 SCF Done:  E(RHF) =  -669.535053752     A.U. after   15 cycles
 E2 =    -0.2095046323D+01 EUMP2 =    -0.67163010007506D+03

 The electronic state is 1-A.
 Alpha  occ. eigenvalues --  -20.60973 -20.60968 -15.86008 -11.31335 -11.27919
 Alpha  occ. eigenvalues --  -11.27887 -11.27652 -11.26915 -11.26886 -11.21529
 Alpha  occ. eigenvalues --  -11.21468 -11.21338 -11.21232 -11.21112 -11.20931
 Alpha  occ. eigenvalues --   -1.60035  -1.39589  -1.19528  -1.08918  -1.08358
 Alpha  occ. eigenvalues --   -1.04935  -1.03475  -0.95942  -0.95747  -0.86943
 Alpha  occ. eigenvalues --   -0.86313  -0.82593  -0.79539  -0.78168  -0.77641
 Alpha  occ. eigenvalues --   -0.72225  -0.71359  -0.70625  -0.65180  -0.65056
 Alpha  occ. eigenvalues --   -0.64872  -0.62302  -0.60865  -0.59308  -0.57544
 Alpha  occ. eigenvalues --   -0.55440  -0.55189  -0.53285  -0.52988  -0.52629
 Alpha  occ. eigenvalues --   -0.52342  -0.49861  -0.48983  -0.48975  -0.47856
 Alpha  occ. eigenvalues --   -0.46582  -0.45707  -0.45632  -0.44953  -0.43726
 Alpha  occ. eigenvalues --   -0.37498  -0.36393
 Alpha virt. eigenvalues --    0.04856   0.11053   0.16276   0.20874   0.22870
 Alpha virt. eigenvalues --    0.24124   0.26540   0.26883   0.27256   0.27931
 Alpha virt. eigenvalues --    0.29184   0.30480   0.31493   0.31730   0.32060

 Mulliken charges:
               1
     1  C   -0.170514
     2  C   -0.219146
     3  C   -0.171300
     4  C    0.159038
     5  C   -0.171770
     6  C   -0.219066
     7  H    0.226767
     8  H    0.224273
     9  H    0.276136
    10  H    0.280731
    11  H    0.225561
    12  N    0.488416
    13  O   -0.461017
    14  O   -0.458957
    15  C   -0.298245
    16  C   -0.307401
    17  C   -0.486774
    18  H    0.152934
    19  H    0.150985
    20  H    0.152860
    21  H    0.148993
    22  H    0.158218
    23  H    0.170380
    24  H    0.152465
    25  C   -0.299216
    26  C   -0.300302
    27  C   -0.475100
    28  H    0.148122
    29  H    0.147621
    30  H    0.155243
    31  H    0.153058
    32  H    0.154276
    33  H    0.151596
    34  H    0.161134
 Sum of Mulliken charges =  -0.00000

 Dipole moment (field-independent basis, Debye):
    X=              0.3330    Y=             -2.2254    Z=             -4.6023  Tot=              5.1229
 Quadrupole moment (field-independent basis, Debye-Ang):
   XX=            -96.8793   YY=            -90.3604   ZZ=            -96.9045
   XY=              5.0101   XZ=              9.5931   YZ=             -1.2506

 Normal termination of Gaussian 16 at Thu May  6 12:30:20 2021.
