 Gaussian 16, Revision A.03,
 Gaussian 16:  EM64L-G16RevA.03 25-Dec-2016

 -------------
 #p 6-31g* mp2
 -------------

 ------------------------------------------------------
 Input file generated by CHIRIPA (05-May-2021 14:57:26)
 ------------------------------------------------------
 Symbolic Z-matrix:
 Charge =  0 Multiplicity = 1

                         Standard orientation:
 ---------------------------------------------------------------------
 Center     Atomic      Atomic             Coordinates (Angstroms)
 Number     Number       Type             X           Y           Z
 ---------------------------------------------------------------------
      1          6           0        4.980040   -0.103714   -1.594590
      2          6           0        4.504243    1.113404   -1.095829
      3          6           0        3.506923    1.138140   -0.116396
      4          6           0        3.005624   -0.078500    0.343795
      5          6           0        3.459067   -1.307333   -0.133332
      6          6           0        4.456856   -1.308075   -1.112599
      7          1           0        5.754964   -0.113610   -2.355372
      8          1           0        4.908708    2.050271   -1.468297
      9          1           0        3.120394    2.066108    0.287199
     10          1           0        3.036420   -2.224968    0.257481
     11          1           0        4.824460   -2.254802   -1.498112
     12          7           0        1.949558   -0.065014    1.380589
     13          8           0        1.524338   -1.150622    1.769539
     14          8           0        1.567029    1.030908    1.784647
     15          6           0       -3.734965   -2.378410   -0.274118
     16          6           0       -4.561759   -1.447292   -0.911262
     17          6           0       -4.263801   -0.082257   -0.861781
     18          6           0       -3.125993    0.318463   -0.163135
     19          6           0       -2.282657   -0.584906    0.481844
     20          6           0       -2.600054   -1.945010    0.419180
     21          1           0       -3.973976   -3.436887   -0.317676
     22          1           0       -5.443800   -1.781002   -1.450416
     23          1           0       -4.886600    0.660048   -1.346057
     24          1           0       -1.410283   -0.221950    1.011604
     25          1           0       -1.956144   -2.665878    0.914935
     26          7           0       -2.800270    1.760954   -0.103774
     27          8           0       -1.792044    2.088411    0.518231
     28          8           0       -3.559360    2.536808   -0.680375
 ---------------------------------------------------------------------

 SCF Done:  E(RHF) =  -868.339258911     A.U. after   16 cycles
 E2 =    -0.2599658624D+01 EUMP2 =    -0.87093891753494D+03

 The electronic state is 1-A.
 Alpha  occ. eigenvalues --  -20.61099 -20.60951 -20.59916 -20.59862 -15.86027
 Alpha  occ. eigenvalues --  -15.84936 -11.31258 -11.30293 -11.27863 -11.27754
 Alpha  occ. eigenvalues --  -11.27547 -11.26956 -11.26832 -11.26762 -11.26695
 Alpha  occ. eigenvalues --  -11.26685 -11.25990 -11.25806  -1.60085  -1.58979
 Alpha  occ. eigenvalues --   -1.39632  -1.38523  -1.19422  -1.18487  -1.08848
 Alpha  occ. eigenvalues --   -1.07905  -1.04802  -1.03864  -0.95700  -0.94723
 Alpha  occ. eigenvalues --   -0.86207  -0.85276  -0.82532  -0.81530  -0.77597
 Alpha  occ. eigenvalues --   -0.76562  -0.72235  -0.71423  -0.71122  -0.70532
 Alpha  occ. eigenvalues --   -0.70313  -0.69593  -0.65076  -0.64807  -0.64129
 Alpha  occ. eigenvalues --   -0.63862  -0.62146  -0.61171  -0.55319  -0.54422
 Alpha  occ. eigenvalues --   -0.53141  -0.52892  -0.52242  -0.51938  -0.49034
 Alpha  occ. eigenvalues --   -0.48985  -0.47940  -0.47895  -0.45049  -0.43931
 Alpha  occ. eigenvalues --   -0.37400  -0.36523  -0.36396  -0.35482
 Alpha virt. eigenvalues --    0.04885   0.05927   0.11261   0.12154   0.16397
 Alpha virt. eigenvalues --    0.17401   0.21383   0.22341   0.27320   0.28072
 Alpha virt. eigenvalues --    0.28449   0.29218   0.30986   0.31804   0.32567

 Mulliken charges:
               1
     1  C   -0.170201
     2  C   -0.218808
     3  C   -0.168918
     4  C    0.158648
     5  C   -0.171382
     6  C   -0.218751
     7  H    0.226047
     8  H    0.225453
     9  H    0.281356
    10  H    0.272260
    11  H    0.222619
    12  N    0.486474
    13  O   -0.474152
    14  O   -0.446325
    15  C   -0.171837
    16  C   -0.219633
    17  C   -0.172184
    18  C    0.156772
    19  C   -0.179192
    20  C   -0.222197
    21  H    0.221970
    22  H    0.219515
    23  H    0.272402
    24  H    0.294156
    25  H    0.229209
    26  N    0.486262
    27  O   -0.452758
    28  O   -0.466805
 Sum of Mulliken charges =  -0.00000

 Dipole moment (field-independent basis, Debye):
    X=              2.9766    Y=             -4.8985    Z=             -3.7181  Tot=              6.8322
 Quadrupole moment (field-independent basis, Debye-Ang):
   XX=            -73.9247   YY=           -103.5850   ZZ=           -107.1307
   XY=             14.8884   XZ=             -7.0772   YZ=              0.6506

 Normal termination of Gaussian 16 at Thu May  6 08:22:29 2021.
