 Gaussian 16, Revision A.03,
 Gaussian 16:  EM64L-G16RevA.03 25-Dec-2016

 -------------
 #p 6-31g* mp2
 -------------

 ------------------------------------------------------
 Input file generated by CHIRIPA (05-May-2021 14:57:26)
 ------------------------------------------------------
 Symbolic Z-matrix:
 Charge =  0 Multiplicity = 1

                         Standard orientation:
 ---------------------------------------------------------------------
 Center     Atomic      Atomic             Coordinates (Angstroms)
 Number     Number       Type             X           Y           Z
 ---------------------------------------------------------------------
      1          6           0        0.919787    0.875027    1.822734
      2          6           0        1.484898    1.674991    0.824121
      3          6           0        2.516481    1.182770    0.019072
      4          6           0        2.960596   -0.119830    0.241074
      5          6           0        2.417866   -0.941361    1.227897
      6          6           0        1.387250   -0.428298    2.021085
      7          1           0        0.118805    1.265491    2.443509
      8          1           0        1.123861    2.687546    0.667824
      9          1           0        2.971886    1.780452   -0.761185
     10          1           0        2.798846   -1.946764    1.359942
     11          1           0        0.950256   -1.051828    2.795870
     12          7           0        4.052174   -0.651954   -0.604917
     13          8           0        4.425644   -1.802891   -0.389274
     14          8           0        4.513615    0.091980   -1.467629
     15          6           0       -1.560916    2.196741   -0.819287
     16          6           0       -1.126066    1.013080   -1.424577
     17          6           0       -1.794263   -0.192077   -1.188657
     18          6           0       -2.898614   -0.177138   -0.338083
     19          6           0       -3.356113    0.985705    0.279801
     20          6           0       -2.672592    2.179306    0.029473
     21          1           0       -1.035893    3.128446   -1.008152
     22          1           0       -0.263025    1.023631   -2.084192
     23          1           0       -1.479013   -1.122957   -1.644175
     24          1           0       -4.219593    0.943699    0.932531
     25          1           0       -3.012544    3.097029    0.500920
     26          7           0       -3.614116   -1.446866   -0.080700
     27          8           0       -4.584385   -1.407120    0.672715
     28          8           0       -3.191108   -2.457783   -0.637251
 ---------------------------------------------------------------------

 SCF Done:  E(RHF) =  -868.335792756     A.U. after   16 cycles
 E2 =    -0.2603591960D+01 EUMP2 =    -0.87093938471547D+03

 The electronic state is 1-A.
 Alpha  occ. eigenvalues --  -20.61287 -20.61271 -20.61201 -20.61181 -15.86335
 Alpha  occ. eigenvalues --  -15.86249 -11.31790 -11.31660 -11.28384 -11.28261
 Alpha  occ. eigenvalues --  -11.28255 -11.28150 -11.28148 -11.27891 -11.27468
 Alpha  occ. eigenvalues --  -11.27317 -11.27303 -11.27155  -1.60358  -1.60271
 Alpha  occ. eigenvalues --   -1.39907  -1.39823  -1.19984  -1.19807  -1.09398
 Alpha  occ. eigenvalues --   -1.09171  -1.05380  -1.05225  -0.96190  -0.96023
 Alpha  occ. eigenvalues --   -0.86784  -0.86617  -0.83005  -0.82863  -0.78021
 Alpha  occ. eigenvalues --   -0.77921  -0.72548  -0.72461  -0.71688  -0.71603
 Alpha  occ. eigenvalues --   -0.71131  -0.70891  -0.65624  -0.65477  -0.65375
 Alpha  occ. eigenvalues --   -0.65230  -0.62703  -0.62587  -0.55960  -0.55669
 Alpha  occ. eigenvalues --   -0.54277  -0.53472  -0.53313  -0.53008  -0.49317
 Alpha  occ. eigenvalues --   -0.49300  -0.49227  -0.49213  -0.45292  -0.45219
 Alpha  occ. eigenvalues --   -0.38530  -0.37590  -0.37117  -0.36235
 Alpha virt. eigenvalues --    0.04441   0.04598   0.10291   0.11184   0.15859
 Alpha virt. eigenvalues --    0.16149   0.19639   0.21714   0.25620   0.26590
 Alpha virt. eigenvalues --    0.27939   0.28556   0.29601   0.31604   0.31998

 Mulliken charges:
               1
     1  C   -0.165743
     2  C   -0.212810
     3  C   -0.179322
     4  C    0.158053
     5  C   -0.170946
     6  C   -0.218580
     7  H    0.226705
     8  H    0.214746
     9  H    0.272455
    10  H    0.278448
    11  H    0.228033
    12  N    0.487775
    13  O   -0.457297
    14  O   -0.462059
    15  C   -0.176554
    16  C   -0.208614
    17  C   -0.170992
    18  C    0.158071
    19  C   -0.173958
    20  C   -0.223225
    21  H    0.221290
    22  H    0.227195
    23  H    0.279043
    24  H    0.276094
    25  H    0.222821
    26  N    0.487440
    27  O   -0.460461
    28  O   -0.457609
 Sum of Mulliken charges =  -0.00000

 Dipole moment (field-independent basis, Debye):
    X=             -1.3486    Y=              6.0986    Z=              2.1105  Tot=              6.5929
 Quadrupole moment (field-independent basis, Debye-Ang):
   XX=           -141.7092   YY=           -102.8925   ZZ=           -100.5223
   XY=             -9.1115   XZ=              7.6370   YZ=             -2.1235

 Normal termination of Gaussian 16 at Thu May  6 01:59:31 2021.
