 Gaussian 16, Revision A.03,
 Gaussian 16:  EM64L-G16RevA.03 25-Dec-2016

 -------------
 #p 6-31g* mp2
 -------------

 ------------------------------------------------------
 Input file generated by CHIRIPA (05-May-2021 14:57:27)
 ------------------------------------------------------
 Symbolic Z-matrix:
 Charge =  0 Multiplicity = 1

                         Standard orientation:
 ---------------------------------------------------------------------
 Center     Atomic      Atomic             Coordinates (Angstroms)
 Number     Number       Type             X           Y           Z
 ---------------------------------------------------------------------
      1          6           0        2.694250    2.771393   -0.188147
      2          6           0        1.979643    2.057576   -1.155785
      3          6           0        2.043904    0.661698   -1.199864
      4          6           0        2.836159    0.008886   -0.256753
      5          6           0        3.559793    0.691901    0.719533
      6          6           0        3.480658    2.087483    0.744779
      7          1           0        2.638554    3.855629   -0.161221
      8          1           0        1.368101    2.586066   -1.881567
      9          1           0        1.500962    0.084222   -1.938209
     10          1           0        4.160894    0.137219    1.429760
     11          1           0        4.036709    2.639236    1.497388
     12          7           0        2.912063   -1.468711   -0.293449
     13          8           0        3.617229   -2.020320    0.548635
     14          8           0        2.264952   -2.047263   -1.163599
     15          6           0       -0.750742   -1.438575    1.064336
     16          6           0       -1.322308   -1.790277   -0.162913
     17          6           0       -2.470840   -1.139788   -0.623658
     18          6           0       -3.024050   -0.137738    0.172046
     19          6           0       -2.477988    0.235284    1.399222
     20          6           0       -1.329386   -0.428698    1.840118
     21          1           0        0.141493   -1.949131    1.414544
     22          1           0       -0.875081   -2.574180   -0.767502
     23          1           0       -2.933978   -1.392111   -1.569836
     24          1           0       -2.946520    1.020729    1.979715
     25          1           0       -0.887664   -0.153470    2.793627
     26          7           0       -4.239987    0.558048   -0.305217
     27          8           0       -4.708189    1.437468    0.414536
     28          8           0       -4.701813    0.210810   -1.390012
 ---------------------------------------------------------------------

 SCF Done:  E(RHF) =  -868.340040760     A.U. after   16 cycles
 E2 =    -0.2600465675D+01 EUMP2 =    -0.87094050643474D+03

 The electronic state is 1-A.
 Alpha  occ. eigenvalues --  -20.61821 -20.61793 -20.60718 -20.60710 -15.86823
 Alpha  occ. eigenvalues --  -15.85762 -11.31861 -11.31009 -11.28418 -11.28372
 Alpha  occ. eigenvalues --  -11.28061 -11.27565 -11.27483 -11.27344 -11.27282
 Alpha  occ. eigenvalues --  -11.27148 -11.26554 -11.26350  -1.60888  -1.59796
 Alpha  occ. eigenvalues --   -1.40444  -1.39352  -1.20008  -1.19140  -1.09463
 Alpha  occ. eigenvalues --   -1.08538  -1.05353  -1.04507  -0.96349  -0.95404
 Alpha  occ. eigenvalues --   -0.86767  -0.85887  -0.83189  -0.82234  -0.78279
 Alpha  occ. eigenvalues --   -0.77312  -0.73049  -0.72266  -0.71974  -0.71124
 Alpha  occ. eigenvalues --   -0.71101  -0.70161  -0.65658  -0.65344  -0.64766
 Alpha  occ. eigenvalues --   -0.64442  -0.62704  -0.61836  -0.55858  -0.54946
 Alpha  occ. eigenvalues --   -0.53737  -0.53438  -0.52840  -0.52554  -0.49822
 Alpha  occ. eigenvalues --   -0.49777  -0.48745  -0.48723  -0.45912  -0.44784
 Alpha  occ. eigenvalues --   -0.38021  -0.37149  -0.36827  -0.36117
 Alpha virt. eigenvalues --    0.04172   0.05183   0.10676   0.11566   0.15753
 Alpha virt. eigenvalues --    0.16704   0.20874   0.21831   0.26820   0.27448
 Alpha virt. eigenvalues --    0.28032   0.28468   0.30590   0.31227   0.31991

 Mulliken charges:
               1
     1  C   -0.169687
     2  C   -0.218322
     3  C   -0.166486
     4  C    0.154893
     5  C   -0.173223
     6  C   -0.219287
     7  H    0.228941
     8  H    0.228034
     9  H    0.275527
    10  H    0.274976
    11  H    0.225000
    12  N    0.485876
    13  O   -0.459577
    14  O   -0.464909
    15  C   -0.179021
    16  C   -0.220265
    17  C   -0.176014
    18  C    0.157708
    19  C   -0.173387
    20  C   -0.217841
    21  H    0.233952
    22  H    0.239217
    23  H    0.274694
    24  H    0.273055
    25  H    0.221722
    26  N    0.487812
    27  O   -0.462276
    28  O   -0.461111
 Sum of Mulliken charges =  -0.00000

 Dipole moment (field-independent basis, Debye):
    X=              4.2226    Y=              2.7873    Z=              1.7311  Tot=              5.3475
 Quadrupole moment (field-independent basis, Debye-Ang):
   XX=           -132.1733   YY=           -102.9347   ZZ=            -98.3453
   XY=             22.3092   XZ=             -1.0646   YZ=              0.6263

 Normal termination of Gaussian 16 at Fri May  7 08:11:53 2021.
