 Gaussian 16, Revision A.03,
 Gaussian 16:  EM64L-G16RevA.03 25-Dec-2016

 -------------
 #p 6-31g* mp2
 -------------

 ------------------------------------------------------
 Input file generated by CHIRIPA (05-May-2021 14:51:10)
 ------------------------------------------------------
 Symbolic Z-matrix:
 Charge =  0 Multiplicity = 1

                         Standard orientation:
 ---------------------------------------------------------------------
 Center     Atomic      Atomic             Coordinates (Angstroms)
 Number     Number       Type             X           Y           Z
 ---------------------------------------------------------------------
      1          6           0       -2.249524   -0.845449    0.653350
      2          6           0       -1.258418   -0.254686    1.656691
      3          6           0       -0.243247   -1.281571    2.159414
      4          1           0       -2.778227   -1.686818    1.121875
      5          1           0       -1.694102   -1.260907   -0.198880
      6          1           0       -1.815622    0.160768    2.506125
      7          1           0       -0.732149    0.585496    1.185787
      8          1           0        0.338014   -1.688672    1.325745
      9          1           0       -0.751616   -2.115813    2.653584
     10          1           0        0.455515   -0.837967    2.875520
     11          6           0       -3.270752    0.168931    0.141633
     12          6           0       -4.261858   -0.421832   -0.861709
     13          6           0       -5.277028    0.605053   -1.364432
     14          1           0       -3.826174    0.584389    0.993863
     15          1           0       -2.742049    1.010299   -0.326892
     16          1           0       -4.788127   -1.262014   -0.390804
     17          1           0       -3.704654   -0.837286   -1.711142
     18          1           0       -4.768660    1.439295   -1.858602
     19          1           0       -5.858290    1.012154   -0.530762
     20          1           0       -5.975790    0.161449   -2.080537
     21          6           0        3.205990   -0.276682   -0.316899
     22          6           0        2.663064   -1.516685   -1.027961
     23          6           0        3.566039   -2.738726   -0.857530
     24          1           0        4.209073   -0.049938   -0.703366
     25          1           0        3.325901   -0.498854    0.752520
     26          1           0        2.542906   -1.291803   -2.095484
     27          1           0        1.661078   -1.740390   -0.639891
     28          1           0        3.676988   -2.990971    0.202028
     29          1           0        4.563827   -2.539836   -1.261835
     30          1           0        3.159031   -3.613767   -1.373775
     31          6           0        2.314286    0.953201   -0.478084
     32          6           0        2.857212    2.193203    0.232978
     33          6           0        1.954237    3.415244    0.062548
     34          1           0        2.194375    1.175371   -1.547503
     35          1           0        1.311203    0.726456   -0.091616
     36          1           0        3.859198    2.416908   -0.155091
     37          1           0        2.977370    1.968322    1.300502
     38          1           0        0.956449    3.216354    0.466852
     39          1           0        1.843288    3.667489   -0.997010
     40          1           0        2.361245    4.290285    0.578793
 ---------------------------------------------------------------------

 SCF Done:  E(RHF) =  -470.732806586     A.U. after   11 cycles
 E2 =    -0.1584410625D+01 EUMP2 =    -0.47231721721057D+03

 The electronic state is 1-A.
 Alpha  occ. eigenvalues --  -11.21673 -11.21626 -11.21615 -11.21612 -11.21446
 Alpha  occ. eigenvalues --  -11.21402 -11.21382 -11.21342 -11.21143 -11.21096
 Alpha  occ. eigenvalues --  -11.21081 -11.21077  -1.08500  -1.08420  -1.03581
 Alpha  occ. eigenvalues --   -1.03548  -0.96035  -0.95983  -0.87059  -0.86995
 Alpha  occ. eigenvalues --   -0.79698  -0.79563  -0.78307  -0.78247  -0.65395
 Alpha  occ. eigenvalues --   -0.64849  -0.61022  -0.60916  -0.59417  -0.59338
 Alpha  occ. eigenvalues --   -0.57650  -0.57589  -0.55378  -0.55211  -0.52719
 Alpha  occ. eigenvalues --   -0.52691  -0.52465  -0.52409  -0.50124  -0.49811
 Alpha  occ. eigenvalues --   -0.48013  -0.47951  -0.46924  -0.46394  -0.46054
 Alpha  occ. eigenvalues --   -0.45759  -0.45694  -0.45425  -0.43824  -0.43795
 Alpha virt. eigenvalues --    0.19356   0.22750   0.23324   0.24535   0.25734
 Alpha virt. eigenvalues --    0.26650   0.27021   0.27947   0.28361   0.29825
 Alpha virt. eigenvalues --    0.30058   0.31537   0.31663   0.31792   0.32395

 Mulliken charges:
               1
     1  C   -0.299054
     2  C   -0.305261
     3  C   -0.482620
     4  H    0.150092
     5  H    0.149884
     6  H    0.152899
     7  H    0.155605
     8  H    0.161556
     9  H    0.156035
    10  H    0.160094
    11  C   -0.298443
    12  C   -0.299743
    13  C   -0.475778
    14  H    0.149627
    15  H    0.150005
    16  H    0.151920
    17  H    0.152209
    18  H    0.155393
    19  H    0.155174
    20  H    0.160315
    21  C   -0.297836
    22  C   -0.305348
    23  C   -0.475780
    24  H    0.149812
    25  H    0.150625
    26  H    0.152104
    27  H    0.155515
    28  H    0.155811
    29  H    0.155409
    30  H    0.160212
    31  C   -0.306843
    32  C   -0.299145
    33  C   -0.476851
    34  H    0.149098
    35  H    0.158071
    36  H    0.152077
    37  H    0.152030
    38  H    0.155425
    39  H    0.155144
    40  H    0.160561
 Sum of Mulliken charges =  -0.00000

 Dipole moment (field-independent basis, Debye):
    X=             -0.0080    Y=             -0.0099    Z=              0.0071  Tot=              0.0146
 Quadrupole moment (field-independent basis, Debye-Ang):
   XX=            -84.9953   YY=            -85.9822   ZZ=            -83.6973
   XY=              1.3170   XZ=             -1.2811   YZ=             -0.1151

 Normal termination of Gaussian 16 at Wed May  5 19:49:22 2021.
