 Gaussian 16, Revision A.03,
 Gaussian 16:  EM64L-G16RevA.03 25-Dec-2016

 -------------
 #p 6-31g* mp2
 -------------

 ------------------------------------------------------
 Input file generated by CHIRIPA (05-May-2021 14:57:24)
 ------------------------------------------------------
 Symbolic Z-matrix:
 Charge =  0 Multiplicity = 1

                         Standard orientation:
 ---------------------------------------------------------------------
 Center     Atomic      Atomic             Coordinates (Angstroms)
 Number     Number       Type             X           Y           Z
 ---------------------------------------------------------------------
      1          6           0        5.012785   -1.951133   -0.262680
      2          6           0        3.621306   -1.949540   -0.120190
      3          6           0        2.921585   -0.745489    0.003096
      4          6           0        3.648380    0.443844   -0.020257
      5          6           0        5.034941    0.475072   -0.160834
      6          6           0        5.713926   -0.740956   -0.282512
      7          1           0        5.548291   -2.891121   -0.357827
      8          1           0        3.074180   -2.887863   -0.104456
      9          1           0        1.844521   -0.715301    0.114631
     10          1           0        5.552831    1.426418   -0.173018
     11          1           0        6.794585   -0.739158   -0.393043
     12          7           0        2.918593    1.724859    0.109409
     13          8           0        3.582128    2.759172    0.085879
     14          8           0        1.696869    1.670348    0.232116
     15          6           0       -5.968587    0.925099   -0.389298
     16          6           0       -4.807531    1.679539   -0.191071
     17          6           0       -3.583127    1.048669    0.048478
     18          6           0       -3.555976   -0.344651    0.083287
     19          6           0       -4.695459   -1.123976   -0.110423
     20          6           0       -5.908949   -0.471787   -0.348413
     21          1           0       -6.915494    1.423455   -0.574779
     22          1           0       -4.850862    2.764524   -0.222274
     23          1           0       -2.669007    1.608327    0.205279
     24          1           0       -4.620817   -2.204016   -0.073545
     25          1           0       -6.809040   -1.060253   -0.502007
     26          7           0       -2.265531   -1.023809    0.336061
     27          8           0       -2.268161   -2.252616    0.361855
     28          8           0       -1.275884   -0.314468    0.503606
 ---------------------------------------------------------------------

 SCF Done:  E(RHF) =  -868.339573386     A.U. after   16 cycles
 E2 =    -0.2599038758D+01 EUMP2 =    -0.87093861214460D+03

 The electronic state is 1-A.
 Alpha  occ. eigenvalues --  -20.60782 -20.60688 -20.59857 -20.59802 -15.85741
 Alpha  occ. eigenvalues --  -15.84878 -11.30975 -11.30181 -11.27580 -11.27454
 Alpha  occ. eigenvalues --  -11.27288 -11.26859 -11.26587 -11.26569 -11.26564
 Alpha  occ. eigenvalues --  -11.26488 -11.25874 -11.25711  -1.59803  -1.58920
 Alpha  occ. eigenvalues --   -1.39348  -1.38463  -1.19146  -1.18379  -1.08578
 Alpha  occ. eigenvalues --   -1.07808  -1.04522  -1.03758  -0.95426  -0.94633
 Alpha  occ. eigenvalues --   -0.85929  -0.85166  -0.82249  -0.81449  -0.77305
 Alpha  occ. eigenvalues --   -0.76477  -0.71968  -0.71116  -0.71075  -0.70252
 Alpha  occ. eigenvalues --   -0.70247  -0.69488  -0.64798  -0.64528  -0.64029
 Alpha  occ. eigenvalues --   -0.63764  -0.61856  -0.61064  -0.55052  -0.54314
 Alpha  occ. eigenvalues --   -0.52872  -0.52609  -0.52129  -0.51837  -0.48755
 Alpha  occ. eigenvalues --   -0.48727  -0.47885  -0.47827  -0.44777  -0.43884
 Alpha  occ. eigenvalues --   -0.37139  -0.36412  -0.36121  -0.35370
 Alpha virt. eigenvalues --    0.05199   0.06015   0.11533   0.12275   0.16704
 Alpha virt. eigenvalues --    0.17489   0.21669   0.22434   0.27616   0.28339
 Alpha virt. eigenvalues --    0.28571   0.29401   0.31231   0.31906   0.32859

 Mulliken charges:
               1
     1  C   -0.171085
     2  C   -0.221767
     3  C   -0.178464
     4  C    0.154892
     5  C   -0.171896
     6  C   -0.219911
     7  H    0.222327
     8  H    0.226506
     9  H    0.299494
    10  H    0.272012
    11  H    0.219396
    12  N    0.486749
    13  O   -0.467753
    14  O   -0.454025
    15  C   -0.170445
    16  C   -0.219304
    17  C   -0.171612
    18  C    0.156365
    19  C   -0.171116
    20  C   -0.219100
    21  H    0.225214
    22  H    0.225374
    23  H    0.285654
    24  H    0.273690
    25  H    0.222246
    26  N    0.489334
    27  O   -0.466743
    28  O   -0.456034
 Sum of Mulliken charges =  -0.00000

 Dipole moment (field-independent basis, Debye):
    X=             -2.3214    Y=             -2.0610    Z=             -1.3050  Tot=              3.3674
 Quadrupole moment (field-independent basis, Debye-Ang):
   XX=            -51.6672   YY=           -106.2556   ZZ=           -106.7324
   XY=            -18.5141   XZ=              1.0601   YZ=              0.5508

 Normal termination of Gaussian 16 at Fri May  7 04:58:59 2021.
