 Gaussian 16, Revision A.03,
 Gaussian 16:  EM64L-G16RevA.03 25-Dec-2016

 -------------
 #p 6-31g* mp2
 -------------

 ------------------------------------------------------
 Input file generated by CHIRIPA (05-May-2021 14:57:26)
 ------------------------------------------------------
 Symbolic Z-matrix:
 Charge =  0 Multiplicity = 1

                         Standard orientation:
 ---------------------------------------------------------------------
 Center     Atomic      Atomic             Coordinates (Angstroms)
 Number     Number       Type             X           Y           Z
 ---------------------------------------------------------------------
      1          6           0       -1.454082    0.386087   -1.146446
      2          6           0       -1.723527   -0.780365   -0.423045
      3          6           0       -3.009611   -1.032949    0.063511
      4          6           0       -4.006953   -0.093343   -0.192883
      5          6           0       -3.769839    1.078095   -0.910379
      6          6           0       -2.476295    1.309966   -1.387380
      7          1           0       -0.452123    0.574256   -1.520703
      8          1           0       -0.931615   -1.499630   -0.234421
      9          1           0       -3.245860   -1.927796    0.626409
     10          1           0       -4.579833    1.776456   -1.082478
     11          1           0       -2.269939    2.216705   -1.948882
     12          7           0       -5.372422   -0.349778    0.317154
     13          8           0       -6.233708    0.493751    0.077820
     14          8           0       -5.555533   -1.389446    0.946597
     15          6           0        1.773999    1.068431    1.416777
     16          6           0        1.803816   -0.303148    1.144014
     17          6           0        2.911143   -0.877643    0.512879
     18          6           0        3.976025   -0.047275    0.166749
     19          6           0        3.976103    1.322600    0.425077
     20          6           0        2.858326    1.875505    1.057072
     21          1           0        0.909741    1.506327    1.907391
     22          1           0        0.963143   -0.932361    1.422232
     23          1           0        2.960508   -1.936531    0.289863
     24          1           0        4.829194    1.924239    0.135794
     25          1           0        2.837924    2.941001    1.267661
     26          7           0        5.153834   -0.644039   -0.501860
     27          8           0        6.079275    0.109124   -0.796722
     28          8           0        5.129258   -1.853644   -0.718395
 ---------------------------------------------------------------------

 SCF Done:  E(RHF) =  -868.337442194     A.U. after   16 cycles
 E2 =    -0.2600418434D+01 EUMP2 =    -0.87093786062780D+03

 The electronic state is 1-A.
 Alpha  occ. eigenvalues --  -20.61455 -20.61449 -20.61285 -20.61279 -15.86515
 Alpha  occ. eigenvalues --  -15.86344 -11.32019 -11.31807 -11.28649 -11.28588
 Alpha  occ. eigenvalues --  -11.28435 -11.28390 -11.28349 -11.28122 -11.27683
 Alpha  occ. eigenvalues --  -11.27592 -11.27471 -11.27381  -1.60529  -1.60360
 Alpha  occ. eigenvalues --   -1.40078  -1.39910  -1.20219  -1.20004  -1.09577
 Alpha  occ. eigenvalues --   -1.09363  -1.05651  -1.05427  -0.96379  -0.96177
 Alpha  occ. eigenvalues --   -0.87052  -0.86786  -0.83218  -0.83012  -0.78264
 Alpha  occ. eigenvalues --   -0.78043  -0.72725  -0.72556  -0.71859  -0.71688
 Alpha  occ. eigenvalues --   -0.71275  -0.71058  -0.65855  -0.65824  -0.65640
 Alpha  occ. eigenvalues --   -0.65292  -0.63047  -0.62688  -0.56090  -0.55870
 Alpha  occ. eigenvalues --   -0.54023  -0.53822  -0.53693  -0.53402  -0.49497
 Alpha  occ. eigenvalues --   -0.49475  -0.49323  -0.49307  -0.45453  -0.45294
 Alpha  occ. eigenvalues --   -0.38360  -0.37844  -0.37279  -0.37008
 Alpha virt. eigenvalues --    0.04237   0.04540   0.10069   0.10790   0.15576
 Alpha virt. eigenvalues --    0.16022   0.19545   0.21507   0.24993   0.27590
 Alpha virt. eigenvalues --    0.27699   0.27966   0.29541   0.31390   0.31686

 Mulliken charges:
               1
     1  C   -0.172706
     2  C   -0.224208
     3  C   -0.171349
     4  C    0.158325
     5  C   -0.170046
     6  C   -0.220284
     7  H    0.231490
     8  H    0.218987
     9  H    0.276340
    10  H    0.277429
    11  H    0.225278
    12  N    0.488061
    13  O   -0.458854
    14  O   -0.459533
    15  C   -0.173042
    16  C   -0.225311
    17  C   -0.173376
    18  C    0.158536
    19  C   -0.170235
    20  C   -0.220188
    21  H    0.231073
    22  H    0.222209
    23  H    0.276237
    24  H    0.278178
    25  H    0.226295
    26  N    0.488016
    27  O   -0.458141
    28  O   -0.459182
 Sum of Mulliken charges =  -0.00000

 Dipole moment (field-independent basis, Debye):
    X=              0.7200    Y=              3.1479    Z=              0.5396  Tot=              3.2740
 Quadrupole moment (field-independent basis, Debye-Ang):
   XX=           -175.1214   YY=            -97.5326   ZZ=           -103.8470
   XY=              5.3047   XZ=             15.7703   YZ=             -1.8980

 Normal termination of Gaussian 16 at Fri May  7 12:41:25 2021.
