 Gaussian 16, Revision A.03,
 Gaussian 16:  EM64L-G16RevA.03 25-Dec-2016

 -------------
 #p 6-31g* mp2
 -------------

 ------------------------------------------------------
 Input file generated by CHIRIPA (05-May-2021 14:53:12)
 ------------------------------------------------------
 Symbolic Z-matrix:
 Charge =  0 Multiplicity = 1

                         Standard orientation:
 ---------------------------------------------------------------------
 Center     Atomic      Atomic             Coordinates (Angstroms)
 Number     Number       Type             X           Y           Z
 ---------------------------------------------------------------------
      1          6           0       -3.496921   -0.284886   -0.206784
      2          6           0       -2.732067   -1.539001   -0.631260
      3          6           0       -3.572384   -2.811175   -0.516213
      4          1           0       -3.841127   -0.406212    0.829433
      5          1           0       -4.399082   -0.186802   -0.826365
      6          1           0       -1.830895   -1.633935   -0.011992
      7          1           0       -2.389477   -1.414596   -1.666524
      8          1           0       -4.464283   -2.742123   -1.147362
      9          1           0       -3.902527   -2.962708    0.516571
     10          1           0       -3.006176   -3.695573   -0.824612
     11          6           0       -2.670129    0.995022   -0.316240
     12          6           0       -3.434983    2.249137    0.108236
     13          6           0       -2.594666    3.521311   -0.006811
     14          1           0       -1.767968    0.896938    0.303340
     15          1           0       -2.325923    1.116347   -1.352458
     16          1           0       -3.777573    2.124732    1.143500
     17          1           0       -4.336155    2.344071   -0.511032
     18          1           0       -2.264523    3.672844   -1.039596
     19          1           0       -1.702767    3.452259    0.624337
     20          1           0       -3.160874    4.405708    0.301588
     21          6           0        0.636454   -1.436835    1.575326
     22          6           0        0.931388   -1.889920    0.285268
     23          6           0        1.911580   -1.255170   -0.483408
     24          6           0        2.580368   -0.165307    0.071761
     25          6           0        2.309163    0.309701    1.353988
     26          6           0        1.325069   -0.340403    2.104635
     27          1           0       -0.126499   -1.935887    2.165449
     28          1           0        0.398200   -2.741187   -0.128373
     29          1           0        2.159890   -1.585120   -1.484853
     30          1           0        2.857528    1.160762    1.739228
     31          1           0        1.098114    0.013650    3.106226
     32          7           0        3.620119    0.514802   -0.732458
     33          8           0        4.195089    1.472885   -0.220476
     34          8           0        3.840418    0.076912   -1.859560
 ---------------------------------------------------------------------

 SCF Done:  E(RHF) =  -669.534526436     A.U. after   15 cycles
 E2 =    -0.2093422863D+01 EUMP2 =    -0.67162794929954D+03

 The electronic state is 1-A.
 Alpha  occ. eigenvalues --  -20.60806 -20.60801 -15.85860 -11.31256 -11.27824
 Alpha  occ. eigenvalues --  -11.27797 -11.27582 -11.26871 -11.26823 -11.22212
 Alpha  occ. eigenvalues --  -11.21900 -11.21892 -11.21811 -11.21694 -11.21271
 Alpha  occ. eigenvalues --   -1.59880  -1.39433  -1.19436  -1.08923  -1.08802
 Alpha  occ. eigenvalues --   -1.04842  -1.04006  -0.96443  -0.95660  -0.87457
 Alpha  occ. eigenvalues --   -0.86248  -0.82483  -0.80092  -0.78682  -0.77516
 Alpha  occ. eigenvalues --   -0.72080  -0.71202  -0.70553  -0.65584  -0.65083
 Alpha  occ. eigenvalues --   -0.64833  -0.62208  -0.61392  -0.59832  -0.58049
 Alpha  occ. eigenvalues --   -0.55726  -0.55348  -0.53289  -0.53077  -0.52931
 Alpha  occ. eigenvalues --   -0.52852  -0.50382  -0.48846  -0.48832  -0.48382
 Alpha  occ. eigenvalues --   -0.47133  -0.46211  -0.46128  -0.44832  -0.44241
 Alpha  occ. eigenvalues --   -0.37344  -0.36394
 Alpha virt. eigenvalues --    0.04981   0.11102   0.16421   0.20403   0.22731
 Alpha virt. eigenvalues --    0.23869   0.26136   0.26276   0.27190   0.28080
 Alpha virt. eigenvalues --    0.28652   0.29991   0.31098   0.31674   0.32151

 Mulliken charges:
               1
     1  C   -0.297447
     2  C   -0.306909
     3  C   -0.476113
     4  H    0.146743
     5  H    0.151564
     6  H    0.150867
     7  H    0.153626
     8  H    0.159673
     9  H    0.153569
    10  H    0.156146
    11  C   -0.300784
    12  C   -0.299939
    13  C   -0.475613
    14  H    0.151200
    15  H    0.151986
    16  H    0.149835
    17  H    0.152758
    18  H    0.157815
    19  H    0.154555
    20  H    0.160915
    21  C   -0.171151
    22  C   -0.215402
    23  C   -0.172394
    24  C    0.158942
    25  C   -0.171098
    26  C   -0.219602
    27  H    0.226302
    28  H    0.226457
    29  H    0.275971
    30  H    0.275937
    31  H    0.223821
    32  N    0.488061
    33  O   -0.460183
    34  O   -0.460110
 Sum of Mulliken charges =  -0.00000

 Dipole moment (field-independent basis, Debye):
    X=             -3.6216    Y=             -2.3281    Z=              2.7866  Tot=              5.1284
 Quadrupole moment (field-independent basis, Debye-Ang):
   XX=           -114.4903   YY=            -93.4194   ZZ=            -90.8252
   XY=             -5.7074   XZ=              8.2876   YZ=              1.9832

 Normal termination of Gaussian 16 at Thu May  6 13:38:05 2021.
