 Gaussian 16, Revision A.03,
 Gaussian 16:  EM64L-G16RevA.03 25-Dec-2016

 -------------
 #p 6-31g* mp2
 -------------

 ------------------------------------------------------
 Input file generated by CHIRIPA (05-May-2021 14:57:24)
 ------------------------------------------------------
 Symbolic Z-matrix:
 Charge =  0 Multiplicity = 1

                         Standard orientation:
 ---------------------------------------------------------------------
 Center     Atomic      Atomic             Coordinates (Angstroms)
 Number     Number       Type             X           Y           Z
 ---------------------------------------------------------------------
      1          6           0       -4.512311    1.069906   -1.564248
      2          6           0       -4.172760   -0.281282   -1.688820
      3          6           0       -3.357981   -0.899416   -0.735619
      4          6           0       -2.898306   -0.133008    0.334244
      5          6           0       -3.219093    1.215076    0.486080
      6          6           0       -4.035235    1.812463   -0.479109
      7          1           0       -5.145781    1.542029   -2.309374
      8          1           0       -4.541817   -0.860420   -2.530510
      9          1           0       -3.079657   -1.943817   -0.807598
     10          1           0       -2.835949    1.766487    1.336118
     11          1           0       -4.297315    2.861986   -0.379801
     12          7           0       -2.035014   -0.776417    1.349701
     13          8           0       -1.642914   -0.079341    2.282964
     14          8           0       -1.766812   -1.965613    1.193125
     15          6           0        3.671292    2.447873    0.160752
     16          6           0        2.422599    1.985649    0.589284
     17          6           0        2.062496    0.646335    0.412893
     18          6           0        2.979612   -0.207078   -0.198560
     19          6           0        4.231194    0.223326   -0.636264
     20          6           0        4.570019    1.566790   -0.449578
     21          1           0        3.942763    3.489896    0.301775
     22          1           0        1.722631    2.667650    1.063586
     23          1           0        1.102402    0.261919    0.735164
     24          1           0        4.907819   -0.480336   -1.105792
     25          1           0        5.540461    1.922974   -0.783376
     26          7           0        2.609650   -1.627146   -0.390746
     27          8           0        3.435479   -2.358902   -0.932205
     28          8           0        1.500852   -1.981549    0.003715
 ---------------------------------------------------------------------

 SCF Done:  E(RHF) =  -868.337344172     A.U. after   16 cycles
 E2 =    -0.2600472904D+01 EUMP2 =    -0.87093781707671D+03

 The electronic state is 1-A.
 Alpha  occ. eigenvalues --  -20.60756 -20.60588 -20.60045 -20.59976 -15.85690
 Alpha  occ. eigenvalues --  -15.85058 -11.31147 -11.30563 -11.27787 -11.27655
 Alpha  occ. eigenvalues --  -11.27484 -11.27203 -11.27080 -11.26980 -11.26795
 Alpha  occ. eigenvalues --  -11.26711 -11.26254 -11.26193  -1.59730  -1.59096
 Alpha  occ. eigenvalues --   -1.39278  -1.38639  -1.19328  -1.18767  -1.08709
 Alpha  occ. eigenvalues --   -1.08150  -1.04740  -1.04184  -0.95526  -0.94949
 Alpha  occ. eigenvalues --   -0.86134  -0.85583  -0.82353  -0.81766  -0.77392
 Alpha  occ. eigenvalues --   -0.76788  -0.71904  -0.71347  -0.70968  -0.70433
 Alpha  occ. eigenvalues --   -0.70430  -0.69875  -0.64976  -0.64742  -0.64414
 Alpha  occ. eigenvalues --   -0.64195  -0.62083  -0.61513  -0.55239  -0.54714
 Alpha  occ. eigenvalues --   -0.53071  -0.52830  -0.52523  -0.52277  -0.48697
 Alpha  occ. eigenvalues --   -0.48646  -0.48066  -0.48020  -0.44625  -0.44012
 Alpha  occ. eigenvalues --   -0.37317  -0.36784  -0.36348  -0.35796
 Alpha virt. eigenvalues --    0.05128   0.05738   0.11301   0.11849   0.16582
 Alpha virt. eigenvalues --    0.17189   0.21384   0.21947   0.27273   0.27652
 Alpha virt. eigenvalues --    0.28377   0.28774   0.30979   0.31395   0.32633

 Mulliken charges:
               1
     1  C   -0.171005
     2  C   -0.218690
     3  C   -0.168772
     4  C    0.157082
     5  C   -0.174116
     6  C   -0.218545
     7  H    0.225303
     8  H    0.224834
     9  H    0.281318
    10  H    0.271311
    11  H    0.221646
    12  N    0.485969
    13  O   -0.471731
    14  O   -0.440806
    15  C   -0.171448
    16  C   -0.220266
    17  C   -0.172933
    18  C    0.157460
    19  C   -0.171342
    20  C   -0.219251
    21  H    0.222695
    22  H    0.222491
    23  H    0.284073
    24  H    0.273979
    25  H    0.220886
    26  N    0.486693
    27  O   -0.465566
    28  O   -0.451269
 Sum of Mulliken charges =  -0.00000

 Dipole moment (field-independent basis, Debye):
    X=             -1.9750    Y=              6.9154    Z=             -2.9077  Tot=              7.7574
 Quadrupole moment (field-independent basis, Debye-Ang):
   XX=            -77.1659   YY=           -104.2629   ZZ=           -106.7788
   XY=              8.3571   XZ=              9.7564   YZ=              2.8177

 Normal termination of Gaussian 16 at Fri May  7 09:32:19 2021.
