 Gaussian 16, Revision A.03,
 Gaussian 16:  EM64L-G16RevA.03 25-Dec-2016

 -------------
 #p 6-31g* mp2
 -------------

 ------------------------------------------------------
 Input file generated by CHIRIPA (05-May-2021 14:57:22)
 ------------------------------------------------------
 Symbolic Z-matrix:
 Charge =  0 Multiplicity = 1

                         Standard orientation:
 ---------------------------------------------------------------------
 Center     Atomic      Atomic             Coordinates (Angstroms)
 Number     Number       Type             X           Y           Z
 ---------------------------------------------------------------------
      1          6           0       -4.634913   -1.731496    0.220911
      2          6           0       -3.812296   -1.482283    1.324412
      3          6           0       -2.980492   -0.358911    1.350616
      4          6           0       -2.996565    0.498119    0.251284
      5          6           0       -3.804872    0.277005   -0.862735
      6          6           0       -4.628587   -0.852606   -0.867222
      7          1           0       -5.277937   -2.606581    0.208990
      8          1           0       -3.815139   -2.163117    2.170876
      9          1           0       -2.333689   -0.141993    2.192050
     10          1           0       -3.780230    0.973850   -1.691721
     11          1           0       -5.266399   -1.043634   -1.725563
     12          7           0       -2.120253    1.690685    0.267530
     13          8           0       -2.152825    2.430401   -0.713488
     14          8           0       -1.417421    1.863120    1.260973
     15          6           0        0.885089   -0.821297   -1.251955
     16          6           0        1.696646   -1.857926   -0.779413
     17          6           0        2.948448   -1.581654   -0.221549
     18          6           0        3.359085   -0.251324   -0.151606
     19          6           0        2.573404    0.803392   -0.613745
     20          6           0        1.325282    0.503717   -1.167760
     21          1           0       -0.085913   -1.045001   -1.683822
     22          1           0        1.357370   -2.887891   -0.843510
     23          1           0        3.596931   -2.364856    0.151924
     24          1           0        2.938840    1.820186   -0.536261
     25          1           0        0.697133    1.310802   -1.533940
     26          7           0        4.682363    0.053540    0.436943
     27          8           0        5.021146    1.233942    0.487090
     28          8           0        5.355711   -0.893682    0.836955
 ---------------------------------------------------------------------

 SCF Done:  E(RHF) =  -868.339091332     A.U. after   16 cycles
 E2 =    -0.2600065118D+01 EUMP2 =    -0.87093915644988D+03

 The electronic state is 1-A.
 Alpha  occ. eigenvalues --  -20.61776 -20.61711 -20.60285 -20.60267 -15.86766
 Alpha  occ. eigenvalues --  -15.85326 -11.32062 -11.30633 -11.28629 -11.28565
 Alpha  occ. eigenvalues --  -11.28305 -11.27595 -11.27553 -11.27239 -11.27091
 Alpha  occ. eigenvalues --  -11.26957 -11.26304 -11.26049  -1.60815  -1.59354
 Alpha  occ. eigenvalues --   -1.40365  -1.38908  -1.20218  -1.18793  -1.09622
 Alpha  occ. eigenvalues --   -1.08220  -1.05591  -1.04167  -0.96466  -0.95064
 Alpha  occ. eigenvalues --   -0.86988  -0.85586  -0.83289  -0.81879  -0.78355
 Alpha  occ. eigenvalues --   -0.76925  -0.72975  -0.72157  -0.71547  -0.71291
 Alpha  occ. eigenvalues --   -0.70673  -0.69942  -0.65854  -0.65570  -0.64449
 Alpha  occ. eigenvalues --   -0.64155  -0.62924  -0.61500  -0.56075  -0.54759
 Alpha  occ. eigenvalues --   -0.53926  -0.53661  -0.52523  -0.52248  -0.49755
 Alpha  occ. eigenvalues --   -0.49732  -0.48308  -0.48298  -0.45775  -0.44326
 Alpha  occ. eigenvalues --   -0.38201  -0.37205  -0.36804  -0.35746
 Alpha virt. eigenvalues --    0.04124   0.05586   0.10443   0.11860   0.15635
 Alpha virt. eigenvalues --    0.17081   0.20686   0.21945   0.26618   0.27511
 Alpha virt. eigenvalues --    0.28010   0.28616   0.30331   0.31532   0.31817

 Mulliken charges:
               1
     1  C   -0.171008
     2  C   -0.219427
     3  C   -0.170269
     4  C    0.155550
     5  C   -0.175601
     6  C   -0.219343
     7  H    0.228309
     8  H    0.226672
     9  H    0.279325
    10  H    0.275762
    11  H    0.225631
    12  N    0.486701
    13  O   -0.465888
    14  O   -0.452970
    15  C   -0.176068
    16  C   -0.218742
    17  C   -0.172808
    18  C    0.158294
    19  C   -0.168222
    20  C   -0.221230
    21  H    0.221031
    22  H    0.218471
    23  H    0.272798
    24  H    0.278735
    25  H    0.238640
    26  N    0.488042
    27  O   -0.459088
    28  O   -0.463296
 Sum of Mulliken charges =  -0.00000

 Dipole moment (field-independent basis, Debye):
    X=             -7.9613    Y=             -5.1199    Z=             -1.9865  Tot=              9.6717
 Quadrupole moment (field-independent basis, Debye-Ang):
   XX=           -118.0843   YY=           -104.0798   ZZ=           -100.8054
   XY=              8.2117   XZ=             -5.2723   YZ=             -2.7809

 Normal termination of Gaussian 16 at Thu May  6 08:08:41 2021.
