 Gaussian 16, Revision A.03,
 Gaussian 16:  EM64L-G16RevA.03 25-Dec-2016

 -------------
 #p 6-31g* mp2
 -------------

 ------------------------------------------------------
 Input file generated by CHIRIPA (05-May-2021 14:55:21)
 ------------------------------------------------------
 Symbolic Z-matrix:
 Charge =  0 Multiplicity = 1

                         Standard orientation:
 ---------------------------------------------------------------------
 Center     Atomic      Atomic             Coordinates (Angstroms)
 Number     Number       Type             X           Y           Z
 ---------------------------------------------------------------------
      1          6           0        1.647980    0.532096    2.359991
      2          6           0        0.835098    0.290746    1.247564
      3          6           0        1.402337   -0.005705    0.004623
      4          6           0        2.792312   -0.052824   -0.090449
      5          6           0        3.628938    0.182898    0.999405
      6          6           0        3.039852    0.477498    2.232586
      7          1           0        1.198849    0.761667    3.321747
      8          1           0       -0.246146    0.332474    1.343562
      9          1           0        0.796618   -0.196733   -0.872892
     10          1           0        4.703639    0.134209    0.872654
     11          1           0        3.673619    0.664496    3.094802
     12          7           0        3.404388   -0.365684   -1.401130
     13          8           0        4.631606   -0.401208   -1.458669
     14          8           0        2.645324   -0.569455   -2.346083
     15          6           0       -3.516906    0.600614   -0.629197
     16          6           0       -3.186332    1.935797    0.038629
     17          6           0       -3.334747    3.124660   -0.911302
     18          1           0       -2.860868    0.460718   -1.499246
     19          1           0       -4.544971    0.636396   -1.015458
     20          1           0       -2.159670    1.897014    0.424735
     21          1           0       -3.843105    2.072443    0.907303
     22          1           0       -4.360793    3.191617   -1.287264
     23          1           0       -2.667793    3.015192   -1.772575
     24          1           0       -3.093595    4.068976   -0.413332
     25          6           0       -3.373167   -0.597385    0.307746
     26          6           0       -3.703742   -1.932568   -0.360080
     27          6           0       -3.555327   -3.121432    0.589852
     28          1           0       -2.345102   -0.633167    0.694007
     29          1           0       -4.029206   -0.457489    1.177796
     30          1           0       -3.046970   -2.069214   -1.228753
     31          1           0       -4.730404   -1.893786   -0.746184
     32          1           0       -4.222280   -3.011963    1.451124
     33          1           0       -2.529280   -3.188388    0.965813
     34          1           0       -3.796480   -4.065747    0.091881
 ---------------------------------------------------------------------

 SCF Done:  E(RHF) =  -669.535399633     A.U. after   15 cycles
 E2 =    -0.2091885023D+01 EUMP2 =    -0.67162728465631D+03

 The electronic state is 1-A.
 Alpha  occ. eigenvalues --  -20.60772 -20.60767 -15.85826 -11.31191 -11.27766
 Alpha  occ. eigenvalues --  -11.27763 -11.27498 -11.26773 -11.26737 -11.22374
 Alpha  occ. eigenvalues --  -11.22255 -11.22156 -11.22074 -11.21591 -11.21550
 Alpha  occ. eigenvalues --   -1.59848  -1.39401  -1.19364  -1.09156  -1.08756
 Alpha  occ. eigenvalues --   -1.04769  -1.04148  -0.96588  -0.95592  -0.87598
 Alpha  occ. eigenvalues --   -0.86168  -0.82430  -0.80222  -0.79000  -0.77471
 Alpha  occ. eigenvalues --   -0.72044  -0.71171  -0.70471  -0.65877  -0.65013
 Alpha  occ. eigenvalues --   -0.64728  -0.62113  -0.61543  -0.59954  -0.58204
 Alpha  occ. eigenvalues --   -0.55881  -0.55262  -0.53257  -0.53102  -0.53016
 Alpha  occ. eigenvalues --   -0.52854  -0.50530  -0.48808  -0.48799  -0.48530
 Alpha  occ. eigenvalues --   -0.47269  -0.46482  -0.46423  -0.44807  -0.44434
 Alpha  occ. eigenvalues --   -0.37341  -0.36368
 Alpha virt. eigenvalues --    0.05053   0.11236   0.16482   0.18792   0.22915
 Alpha virt. eigenvalues --    0.23756   0.24575   0.26094   0.27248   0.28449
 Alpha virt. eigenvalues --    0.29903   0.30635   0.31259   0.31416   0.32221

 Mulliken charges:
               1
     1  C   -0.172055
     2  C   -0.228421
     3  C   -0.173952
     4  C    0.158671
     5  C   -0.170832
     6  C   -0.218464
     7  H    0.226541
     8  H    0.237077
     9  H    0.274785
    10  H    0.275673
    11  H    0.223449
    12  N    0.488175
    13  O   -0.460435
    14  O   -0.460622
    15  C   -0.299932
    16  C   -0.302695
    17  C   -0.475990
    18  H    0.151614
    19  H    0.154253
    20  H    0.145115
    21  H    0.153148
    22  H    0.157732
    23  H    0.158534
    24  H    0.161664
    25  C   -0.303306
    26  C   -0.300108
    27  C   -0.476354
    28  H    0.141140
    29  H    0.151814
    30  H    0.155025
    31  H    0.155113
    32  H    0.155169
    33  H    0.154518
    34  H    0.163959
 Sum of Mulliken charges =  -0.00000

 Dipole moment (field-independent basis, Debye):
    X=             -2.3284    Y=              1.0938    Z=              4.5453  Tot=              5.2228
 Quadrupole moment (field-independent basis, Debye-Ang):
   XX=           -100.9240   YY=            -96.2300   ZZ=            -95.4489
   XY=              3.6258   XZ=             15.3663   YZ=              0.3938

 Normal termination of Gaussian 16 at Thu May  6 17:29:56 2021.
