 Gaussian 16, Revision A.03,
 Gaussian 16:  EM64L-G16RevA.03 25-Dec-2016

 -------------
 #p 6-31g* mp2
 -------------

 ------------------------------------------------------
 Input file generated by CHIRIPA (05-May-2021 14:51:14)
 ------------------------------------------------------
 Symbolic Z-matrix:
 Charge =  0 Multiplicity = 1

                         Standard orientation:
 ---------------------------------------------------------------------
 Center     Atomic      Atomic             Coordinates (Angstroms)
 Number     Number       Type             X           Y           Z
 ---------------------------------------------------------------------
      1          6           0        2.559395    0.812818   -0.299914
      2          6           0        3.494166    1.261496    0.823863
      3          6           0        3.503661    2.778504    1.014625
      4          1           0        2.862673    1.299736   -1.236866
      5          1           0        1.540756    1.162227   -0.081553
      6          1           0        4.510481    0.910156    0.604135
      7          1           0        3.188746    0.773305    1.758209
      8          1           0        2.500266    3.142424    1.258266
      9          1           0        3.829511    3.280053    0.097635
     10          1           0        4.178446    3.077279    1.822870
     11          6           0        2.539019   -0.701170   -0.502780
     12          6           0        1.604248   -1.149848   -1.626558
     13          6           0        1.594753   -2.666856   -1.817320
     14          1           0        3.557659   -1.050579   -0.721141
     15          1           0        2.235742   -1.188088    0.434171
     16          1           0        1.909669   -0.661657   -2.560904
     17          1           0        0.587933   -0.798508   -1.406830
     18          1           0        1.268903   -3.168405   -0.900329
     19          1           0        2.598148   -3.030777   -2.060961
     20          1           0        0.919969   -2.965631   -2.625565
     21          6           0       -2.282759   -0.769571    0.456144
     22          6           0       -1.703690   -1.096604    1.832993
     23          6           0       -1.174684   -2.528076    1.926996
     24          1           0       -3.092043   -1.476767    0.228374
     25          1           0       -1.507329   -0.925724   -0.306561
     26          1           0       -2.479575   -0.938551    2.593018
     27          1           0       -0.895818   -0.388428    2.057594
     28          1           0       -0.382252   -2.695088    1.190273
     29          1           0       -1.975008   -3.248338    1.728739
     30          1           0       -0.765355   -2.740439    2.919574
     31          6           0       -2.815655    0.657923    0.346550
     32          6           0       -3.394725    0.984957   -1.030298
     33          6           0       -3.923731    2.416428   -1.124301
     34          1           0       -3.591086    0.814076    1.109255
     35          1           0       -2.006371    1.365119    0.574321
     36          1           0       -4.202596    0.276781   -1.254899
     37          1           0       -2.618839    0.826904   -1.790323
     38          1           0       -3.123407    3.136689   -0.926044
     39          1           0       -4.716162    2.583440   -0.387578
     40          1           0       -4.333059    2.628791   -2.116879
 ---------------------------------------------------------------------

 SCF Done:  E(RHF) =  -470.733251742     A.U. after   11 cycles
 E2 =    -0.1584120634D+01 EUMP2 =    -0.47231737237642D+03

 The electronic state is 1-A.
 Alpha  occ. eigenvalues --  -11.21666 -11.21658 -11.21647 -11.21629 -11.21467
 Alpha  occ. eigenvalues --  -11.21446 -11.21408 -11.21385 -11.21136 -11.21124
 Alpha  occ. eigenvalues --  -11.21109 -11.21087  -1.08515  -1.08455  -1.03605
 Alpha  occ. eigenvalues --   -1.03555  -0.96033  -0.96022  -0.87064  -0.87023
 Alpha  occ. eigenvalues --   -0.79656  -0.79632  -0.78347  -0.78251  -0.65393
 Alpha  occ. eigenvalues --   -0.64875  -0.61157  -0.60796  -0.59403  -0.59385
 Alpha  occ. eigenvalues --   -0.57689  -0.57589  -0.55354  -0.55296  -0.52723
 Alpha  occ. eigenvalues --   -0.52714  -0.52479  -0.52433  -0.50108  -0.49853
 Alpha  occ. eigenvalues --   -0.48067  -0.47890  -0.46754  -0.46654  -0.46054
 Alpha  occ. eigenvalues --   -0.45796  -0.45777  -0.45403  -0.43838  -0.43826
 Alpha virt. eigenvalues --    0.18583   0.22493   0.23450   0.24933   0.25357
 Alpha virt. eigenvalues --    0.26054   0.26801   0.28053   0.28786   0.29888
 Alpha virt. eigenvalues --    0.30266   0.31620   0.31690   0.31799   0.32026

 Mulliken charges:
               1
     1  C   -0.298688
     2  C   -0.299772
     3  C   -0.475713
     4  H    0.149972
     5  H    0.148863
     6  H    0.152222
     7  H    0.152119
     8  H    0.154999
     9  H    0.155284
    10  H    0.160526
    11  C   -0.299537
    12  C   -0.307199
    13  C   -0.478879
    14  H    0.150078
    15  H    0.150871
    16  H    0.152604
    17  H    0.157629
    18  H    0.157904
    19  H    0.155789
    20  H    0.160822
    21  C   -0.306955
    22  C   -0.299427
    23  C   -0.480809
    24  H    0.150216
    25  H    0.157623
    26  H    0.152471
    27  H    0.151348
    28  H    0.159004
    29  H    0.155875
    30  H    0.160499
    31  C   -0.298183
    32  C   -0.299935
    33  C   -0.475738
    34  H    0.149856
    35  H    0.149105
    36  H    0.152144
    37  H    0.152054
    38  H    0.155312
    39  H    0.155210
    40  H    0.160438
 Sum of Mulliken charges =  -0.00000

 Dipole moment (field-independent basis, Debye):
    X=              0.0032    Y=             -0.0113    Z=             -0.0108  Tot=              0.0160
 Quadrupole moment (field-independent basis, Debye-Ang):
   XX=            -83.3931   YY=            -86.8089   ZZ=            -84.3377
   XY=              0.6753   XZ=             -0.9443   YZ=             -0.2001

 Normal termination of Gaussian 16 at Thu May  6 00:52:01 2021.
