 Gaussian 16, Revision A.03,
 Gaussian 16:  EM64L-G16RevA.03 25-Dec-2016

 -------------
 #p 6-31g* mp2
 -------------

 ------------------------------------------------------
 Input file generated by CHIRIPA (05-May-2021 14:51:12)
 ------------------------------------------------------
 Symbolic Z-matrix:
 Charge =  0 Multiplicity = 1

                         Standard orientation:
 ---------------------------------------------------------------------
 Center     Atomic      Atomic             Coordinates (Angstroms)
 Number     Number       Type             X           Y           Z
 ---------------------------------------------------------------------
      1          6           0        3.117236    0.780127   -0.466956
      2          6           0        3.085572    1.685029    0.765170
      3          6           0        3.772556    3.030316    0.528423
      4          1           0        4.161492    0.612867   -0.764443
      5          1           0        2.632278    1.297888   -1.306084
      6          1           0        3.569216    1.165164    1.602096
      7          1           0        2.041278    1.849998    1.059873
      8          1           0        3.286263    3.572654   -0.288883
      9          1           0        4.822883    2.883929    0.256421
     10          1           0        3.738287    3.661354    1.421999
     11          6           0        2.434366   -0.568411   -0.245910
     12          6           0        2.466030   -1.473313   -1.478036
     13          6           0        1.779046   -2.818601   -1.241290
     14          1           0        2.919323   -1.086172    0.593218
     15          1           0        1.390110   -0.401151    0.051577
     16          1           0        3.510324   -1.638283   -1.772739
     17          1           0        1.982386   -0.953448   -2.314962
     18          1           0        0.728719   -2.672213   -0.969288
     19          1           0        2.265338   -3.360939   -0.423983
     20          1           0        1.813315   -3.449638   -2.134865
     21          6           0       -2.255984   -0.230960    0.901934
     22          6           0       -1.750039   -1.673424    0.938055
     23          6           0       -0.710659   -1.908037    2.034612
     24          1           0       -1.403861    0.446135    0.752356
     25          1           0       -2.689118    0.022907    1.879350
     26          1           0       -1.319238   -1.924943   -0.039577
     27          1           0       -2.603490   -2.347177    1.087373
     28          1           0       -1.132688   -1.684169    3.019688
     29          1           0        0.158861   -1.259538    1.886334
     30          1           0       -0.362604   -2.945658    2.042484
     31          6           0       -3.295618    0.019245   -0.189068
     32          6           0       -3.801562    1.461708   -0.225188
     33          6           0       -4.840944    1.696322   -1.321745
     34          1           0       -2.862483   -0.234623   -1.166484
     35          1           0       -4.147741   -0.657850   -0.039489
     36          1           0       -2.948112    2.135461   -0.374507
     37          1           0       -4.232364    1.713228    0.752444
     38          1           0       -5.710463    1.047822   -1.173468
     39          1           0       -4.418914    1.472454   -2.306821
     40          1           0       -5.188998    2.733942   -1.329618
 ---------------------------------------------------------------------

 SCF Done:  E(RHF) =  -470.732494102     A.U. after   11 cycles
 E2 =    -0.1584464453D+01 EUMP2 =    -0.47231695855540D+03

 The electronic state is 1-A.
 Alpha  occ. eigenvalues --  -11.21646 -11.21636 -11.21635 -11.21613 -11.21449
 Alpha  occ. eigenvalues --  -11.21444 -11.21389 -11.21384 -11.21102 -11.21098
 Alpha  occ. eigenvalues --  -11.21056 -11.20971  -1.08505  -1.08436  -1.03602
 Alpha  occ. eigenvalues --   -1.03506  -0.96013  -0.95985  -0.87041  -0.86990
 Alpha  occ. eigenvalues --   -0.79631  -0.79611  -0.78332  -0.78254  -0.65319
 Alpha  occ. eigenvalues --   -0.64921  -0.61185  -0.60749  -0.59404  -0.59328
 Alpha  occ. eigenvalues --   -0.57757  -0.57476  -0.55320  -0.55275  -0.52701
 Alpha  occ. eigenvalues --   -0.52682  -0.52524  -0.52324  -0.50082  -0.49834
 Alpha  occ. eigenvalues --   -0.48062  -0.47838  -0.46775  -0.46539  -0.46042
 Alpha  occ. eigenvalues --   -0.45772  -0.45701  -0.45437  -0.43818  -0.43798
 Alpha virt. eigenvalues --    0.19876   0.23241   0.23507   0.24409   0.25868
 Alpha virt. eigenvalues --    0.26128   0.26683   0.27882   0.28540   0.29721
 Alpha virt. eigenvalues --    0.30304   0.31142   0.31722   0.32052   0.32263

 Mulliken charges:
               1
     1  C   -0.297637
     2  C   -0.300152
     3  C   -0.475649
     4  H    0.149981
     5  H    0.149196
     6  H    0.152303
     7  H    0.151367
     8  H    0.155157
     9  H    0.155378
    10  H    0.160520
    11  C   -0.305083
    12  C   -0.299069
    13  C   -0.482940
    14  H    0.150266
    15  H    0.155837
    16  H    0.152195
    17  H    0.151232
    18  H    0.162555
    19  H    0.155618
    20  H    0.160120
    21  C   -0.299507
    22  C   -0.306112
    23  C   -0.480259
    24  H    0.149197
    25  H    0.150208
    26  H    0.155772
    27  H    0.152701
    28  H    0.154594
    29  H    0.161206
    30  H    0.160697
    31  C   -0.298264
    32  C   -0.299642
    33  C   -0.475736
    34  H    0.149264
    35  H    0.150057
    36  H    0.151654
    37  H    0.152126
    38  H    0.155326
    39  H    0.155160
    40  H    0.160363
 Sum of Mulliken charges =  -0.00000

 Dipole moment (field-independent basis, Debye):
    X=              0.0142    Y=             -0.0036    Z=              0.0094  Tot=              0.0174
 Quadrupole moment (field-independent basis, Debye-Ang):
   XX=            -84.1236   YY=            -85.7099   ZZ=            -84.8494
   XY=             -0.3980   XZ=             -0.7278   YZ=             -0.0346

 Normal termination of Gaussian 16 at Wed May  5 23:08:58 2021.
