 Gaussian 16, Revision A.03,
 Gaussian 16:  EM64L-G16RevA.03 25-Dec-2016

 -------------
 #p 6-31g* mp2
 -------------

 ------------------------------------------------------
 Input file generated by CHIRIPA (05-May-2021 14:51:08)
 ------------------------------------------------------
 Symbolic Z-matrix:
 Charge =  0 Multiplicity = 1

                         Standard orientation:
 ---------------------------------------------------------------------
 Center     Atomic      Atomic             Coordinates (Angstroms)
 Number     Number       Type             X           Y           Z
 ---------------------------------------------------------------------
      1          6           0        2.964596    0.014558    0.043800
      2          6           0        2.188712    0.671485    1.185919
      3          6           0        0.713064    0.888937    0.849805
      4          1           0        2.880194    0.639814   -0.855575
      5          1           0        2.497360   -0.949441   -0.200725
      6          1           0        2.658102    1.633322    1.429145
      7          1           0        2.275130    0.044689    2.082733
      8          1           0        0.223928   -0.065003    0.627668
      9          1           0        0.609076    1.532656   -0.029633
     10          1           0        0.177347    1.359654    1.680042
     11          6           0        4.441275   -0.209392    0.364724
     12          6           0        5.217159   -0.866319   -0.777395
     13          6           0        6.692806   -1.083771   -0.441281
     14          1           0        4.908511    0.754607    0.609249
     15          1           0        4.525677   -0.834648    1.264100
     16          1           0        5.130741   -0.239523   -1.674208
     17          1           0        4.747769   -1.828156   -1.020620
     18          1           0        6.796795   -1.727491    0.438158
     19          1           0        7.181943   -0.129831   -0.219144
     20          1           0        7.228523   -1.554488   -1.271517
     21          6           0       -3.891327   -0.606227   -0.434099
     22          6           0       -4.920535   -1.284451    0.470738
     23          6           0       -5.287280   -2.691477   -0.002094
     24          1           0       -4.287141   -0.559022   -1.457841
     25          1           0       -2.985805   -1.227153   -0.477409
     26          1           0       -5.823327   -0.661747    0.513430
     27          1           0       -4.522303   -1.329875    1.492483
     28          1           0       -4.400321   -3.332773   -0.027449
     29          1           0       -5.708736   -2.660849   -1.012064
     30          1           0       -6.024319   -3.157818    0.659085
     31          6           0       -3.514544    0.801062    0.025574
     32          6           0       -2.485336    1.479285   -0.879262
     33          6           0       -2.118590    2.886311   -0.406429
     34          1           0       -4.420066    1.421987    0.068884
     35          1           0       -3.118729    0.753857    1.049317
     36          1           0       -2.883567    1.524709   -1.901008
     37          1           0       -1.582544    0.856582   -0.921955
     38          1           0       -1.697135    2.855684    0.603540
     39          1           0       -3.005550    3.527607   -0.381076
     40          1           0       -1.381551    3.352653   -1.067609
 ---------------------------------------------------------------------

 SCF Done:  E(RHF) =  -470.731924402     A.U. after   11 cycles
 E2 =    -0.1583830892D+01 EUMP2 =    -0.47231575529357D+03

 The electronic state is 1-A.
 Alpha  occ. eigenvalues --  -11.21633 -11.21625 -11.21558 -11.21442 -11.21389
 Alpha  occ. eigenvalues --  -11.21381 -11.21328 -11.21250 -11.21117 -11.21090
 Alpha  occ. eigenvalues --  -11.21042 -11.20921  -1.08473  -1.08334  -1.03612
 Alpha  occ. eigenvalues --   -1.03402  -0.96084  -0.95847  -0.87069  -0.86901
 Alpha  occ. eigenvalues --   -0.79672  -0.79487  -0.78292  -0.78142  -0.65101
 Alpha  occ. eigenvalues --   -0.64976  -0.61054  -0.60809  -0.59423  -0.59251
 Alpha  occ. eigenvalues --   -0.57714  -0.57431  -0.55501  -0.55038  -0.52710
 Alpha  occ. eigenvalues --   -0.52604  -0.52430  -0.52301  -0.50088  -0.49691
 Alpha  occ. eigenvalues --   -0.48069  -0.47765  -0.46665  -0.46477  -0.45892
 Alpha  occ. eigenvalues --   -0.45743  -0.45677  -0.45462  -0.43809  -0.43691
 Alpha virt. eigenvalues --    0.21365   0.22958   0.23685   0.24875   0.25880
 Alpha virt. eigenvalues --    0.26563   0.26662   0.27665   0.27780   0.29479
 Alpha virt. eigenvalues --    0.29515   0.31522   0.31558   0.32099   0.32328

 Mulliken charges:
               1
     1  C   -0.298550
     2  C   -0.300581
     3  C   -0.478301
     4  H    0.149721
     5  H    0.149270
     6  H    0.152191
     7  H    0.151652
     8  H    0.154787
     9  H    0.161218
    10  H    0.160419
    11  C   -0.298279
    12  C   -0.299663
    13  C   -0.475729
    14  H    0.149664
    15  H    0.149708
    16  H    0.152010
    17  H    0.151932
    18  H    0.155200
    19  H    0.155239
    20  H    0.160345
    21  C   -0.298220
    22  C   -0.299572
    23  C   -0.475615
    24  H    0.149553
    25  H    0.148762
    26  H    0.151901
    27  H    0.151775
    28  H    0.154888
    29  H    0.155136
    30  H    0.160078
    31  C   -0.298545
    32  C   -0.304238
    33  C   -0.477570
    34  H    0.148978
    35  H    0.149760
    36  H    0.150641
    37  H    0.159375
    38  H    0.158540
    39  H    0.154268
    40  H    0.157852
 Sum of Mulliken charges =  -0.00000

 Dipole moment (field-independent basis, Debye):
    X=              0.0619    Y=              0.0014    Z=              0.0150  Tot=              0.0637
 Quadrupole moment (field-independent basis, Debye-Ang):
   XX=            -85.7114   YY=            -84.9949   ZZ=            -84.4240
   XY=             -0.1392   XZ=              0.0974   YZ=             -0.7232

 Normal termination of Gaussian 16 at Thu May  6 13:13:06 2021.
