 Gaussian 16, Revision A.03,
 Gaussian 16:  EM64L-G16RevA.03 25-Dec-2016

 -------------
 #p 6-31g* mp2
 -------------

 ------------------------------------------------------
 Input file generated by CHIRIPA (05-May-2021 14:53:17)
 ------------------------------------------------------
 Symbolic Z-matrix:
 Charge =  0 Multiplicity = 1

                         Standard orientation:
 ---------------------------------------------------------------------
 Center     Atomic      Atomic             Coordinates (Angstroms)
 Number     Number       Type             X           Y           Z
 ---------------------------------------------------------------------
      1          6           0        3.928655    1.053042   -0.062763
      2          6           0        2.518805    1.629913   -0.195167
      3          6           0        2.462833    3.128478    0.103100
      4          1           0        4.300521    1.240136    0.953926
      5          1           0        4.602277    1.589155   -0.745560
      6          1           0        1.847759    1.091944    0.486670
      7          1           0        2.150178    1.441255   -1.211601
      8          1           0        3.109453    3.682629   -0.584940
      9          1           0        2.805316    3.331334    1.122981
     10          1           0        1.445795    3.520119    0.002547
     11          6           0        4.000810   -0.444103   -0.357856
     12          6           0        5.410659   -1.020973   -0.225453
     13          6           0        5.466632   -2.519539   -0.523720
     14          1           0        3.327188   -0.980215    0.324940
     15          1           0        3.628944   -0.631196   -1.374545
     16          1           0        5.779287   -0.832315    0.790981
     17          1           0        6.081706   -0.483004   -0.907290
     18          1           0        5.124148   -2.722394   -1.543600
     19          1           0        4.820011   -3.073690    0.164320
     20          1           0        6.483670   -2.911180   -0.423167
     21          6           0       -5.349830   -0.145847   -0.968933
     22          6           0       -4.854795   -1.364550   -0.493303
     23          6           0       -3.608070   -1.427360    0.136205
     24          6           0       -2.879695   -0.246763    0.273862
     25          6           0       -3.345769    0.982633   -0.189443
     26          6           0       -4.595068    1.021797   -0.815755
     27          1           0       -6.319316   -0.106239   -1.456709
     28          1           0       -5.438770   -2.272952   -0.610880
     29          1           0       -3.200882   -2.357452    0.513755
     30          1           0       -2.740621    1.871366   -0.057659
     31          1           0       -4.977007    1.969661   -1.184158
     32          7           0       -1.558481   -0.300740    0.938602
     33          8           0       -0.936211    0.753556    1.047570
     34          8           0       -1.170201   -1.396323    1.338070
 ---------------------------------------------------------------------

 SCF Done:  E(RHF) =  -669.536313396     A.U. after   15 cycles
 E2 =    -0.2091034941D+01 EUMP2 =    -0.67162734833658D+03

 The electronic state is 1-A.
 Alpha  occ. eigenvalues --  -20.60994 -20.60970 -15.86006 -11.31312 -11.27872
 Alpha  occ. eigenvalues --  -11.27868 -11.27607 -11.26875 -11.26866 -11.20775
 Alpha  occ. eigenvalues --  -11.20356 -11.20346 -11.20251 -11.20097 -11.19931
 Alpha  occ. eigenvalues --   -1.60039  -1.39595  -1.19477  -1.08886  -1.07351
 Alpha  occ. eigenvalues --   -1.04871  -1.02469  -0.95731  -0.94969  -0.86272
 Alpha  occ. eigenvalues --   -0.85994  -0.82565  -0.78542  -0.77620  -0.77124
 Alpha  occ. eigenvalues --   -0.72229  -0.71347  -0.70586  -0.65134  -0.64875
 Alpha  occ. eigenvalues --   -0.63980  -0.62218  -0.59864  -0.58343  -0.56554
 Alpha  occ. eigenvalues --   -0.55377  -0.54271  -0.53203  -0.52963  -0.51686
 Alpha  occ. eigenvalues --   -0.51393  -0.49082  -0.48984  -0.48874  -0.46859
 Alpha  occ. eigenvalues --   -0.45570  -0.45055  -0.44694  -0.44428  -0.42731
 Alpha  occ. eigenvalues --   -0.37455  -0.36471
 Alpha virt. eigenvalues --    0.04895   0.11184   0.16388   0.21305   0.23908
 Alpha virt. eigenvalues --    0.25288   0.27227   0.27727   0.28091   0.28730
 Alpha virt. eigenvalues --    0.28974   0.30864   0.32200   0.32402   0.32861

 Mulliken charges:
               1
     1  C   -0.297498
     2  C   -0.308629
     3  C   -0.473341
     4  H    0.148139
     5  H    0.143521
     6  H    0.181756
     7  H    0.143634
     8  H    0.147736
     9  H    0.153712
    10  H    0.158658
    11  C   -0.299208
    12  C   -0.298751
    13  C   -0.475304
    14  H    0.157583
    15  H    0.146083
    16  H    0.151222
    17  H    0.148950
    18  H    0.153135
    19  H    0.156788
    20  H    0.157200
    21  C   -0.170535
    22  C   -0.218596
    23  C   -0.170616
    24  C    0.158081
    25  C   -0.170637
    26  C   -0.218566
    27  H    0.226064
    28  H    0.223876
    29  H    0.275879
    30  H    0.275806
    31  H    0.223924
    32  N    0.489370
    33  O   -0.460002
    34  O   -0.459437
 Sum of Mulliken charges =  -0.00000

 Dipole moment (field-independent basis, Debye):
    X=             -5.0057    Y=              0.0910    Z=             -2.2050  Tot=              5.4705
 Quadrupole moment (field-independent basis, Debye-Ang):
   XX=            -69.7405   YY=            -91.6927   ZZ=            -95.9605
   XY=              1.2168   XZ=              5.9507   YZ=             -0.4590

 Normal termination of Gaussian 16 at Thu May  6 01:13:06 2021.
