 Gaussian 16, Revision A.03,
 Gaussian 16:  EM64L-G16RevA.03 25-Dec-2016

 -------------
 #p 6-31g* mp2
 -------------

 ------------------------------------------------------
 Input file generated by CHIRIPA (05-May-2021 14:51:07)
 ------------------------------------------------------
 Symbolic Z-matrix:
 Charge =  0 Multiplicity = 1

                         Standard orientation:
 ---------------------------------------------------------------------
 Center     Atomic      Atomic             Coordinates (Angstroms)
 Number     Number       Type             X           Y           Z
 ---------------------------------------------------------------------
      1          6           0       -3.808045   -0.176637   -0.361218
      2          6           0       -4.821157    0.522422    0.545924
      3          6           0       -5.971580    1.159942   -0.233748
      4          1           0       -3.406851    0.550256   -1.080672
      5          1           0       -4.324336   -0.947195   -0.950353
      6          1           0       -4.302853    1.290495    1.134177
      7          1           0       -5.219844   -0.206176    1.263426
      8          1           0       -6.514304    0.402156   -0.808043
      9          1           0       -5.592102    1.907331   -0.938026
     10          1           0       -6.683986    1.654105    0.434190
     11          6           0       -2.652043   -0.818858    0.403595
     12          6           0       -1.638931   -1.517917   -0.503546
     13          6           0       -0.488507   -2.155437    0.276125
     14          1           0       -2.135751   -0.048300    0.992730
     15          1           0       -3.053237   -1.545751    1.123049
     16          1           0       -1.240243   -0.789319   -1.221049
     17          1           0       -2.157234   -2.285990   -1.091800
     18          1           0       -0.867985   -2.902826    0.980403
     19          1           0        0.054216   -1.397651    0.850420
     20          1           0        0.223898   -2.649600   -0.391813
     21          6           0        2.941376    1.121588   -0.354243
     22          6           0        3.099516    2.387326    0.488896
     23          6           0        2.517156    3.626962   -0.190777
     24          1           0        3.430740    1.272591   -1.326181
     25          1           0        1.874854    0.959421   -0.563119
     26          1           0        4.165311    2.546293    0.697286
     27          1           0        2.609882    2.233223    1.459014
     28          1           0        1.447846    3.493710   -0.384222
     29          1           0        3.012112    3.808560   -1.150277
     30          1           0        2.641010    4.520291    0.429289
     31          6           0        3.518712   -0.126093    0.311866
     32          6           0        3.360571   -1.391831   -0.531274
     33          6           0        3.942932   -2.631466    0.148400
     34          1           0        4.585233    0.036073    0.520742
     35          1           0        3.029347   -0.277097    1.283804
     36          1           0        3.850205   -1.237729   -1.501391
     37          1           0        2.294776   -1.550799   -0.739663
     38          1           0        3.447976   -2.813065    1.107900
     39          1           0        5.012242   -2.498215    0.341845
     40          1           0        3.819078   -3.524796   -0.471666
 ---------------------------------------------------------------------

 SCF Done:  E(RHF) =  -470.732961696     A.U. after   11 cycles
 E2 =    -0.1583182254D+01 EUMP2 =    -0.47231614394939D+03

 The electronic state is 1-A.
 Alpha  occ. eigenvalues --  -11.21683 -11.21636 -11.21609 -11.21464 -11.21462
 Alpha  occ. eigenvalues --  -11.21399 -11.21388 -11.21317 -11.21155 -11.21096
 Alpha  occ. eigenvalues --  -11.21090 -11.21001  -1.08491  -1.08396  -1.03603
 Alpha  occ. eigenvalues --   -1.03483  -0.96048  -0.95948  -0.87074  -0.86956
 Alpha  occ. eigenvalues --   -0.79684  -0.79531  -0.78298  -0.78214  -0.65193
 Alpha  occ. eigenvalues --   -0.64981  -0.61089  -0.60841  -0.59454  -0.59262
 Alpha  occ. eigenvalues --   -0.57682  -0.57531  -0.55328  -0.55242  -0.52759
 Alpha  occ. eigenvalues --   -0.52634  -0.52470  -0.52367  -0.50051  -0.49826
 Alpha  occ. eigenvalues --   -0.48000  -0.47849  -0.46727  -0.46528  -0.45850
 Alpha  occ. eigenvalues --   -0.45775  -0.45727  -0.45658  -0.43813  -0.43736
 Alpha virt. eigenvalues --    0.20296   0.23121   0.23837   0.24551   0.26120
 Alpha virt. eigenvalues --    0.26731   0.26947   0.27648   0.27831   0.29360
 Alpha virt. eigenvalues --    0.30773   0.31302   0.31721   0.31832   0.32267

 Mulliken charges:
               1
     1  C   -0.298364
     2  C   -0.299707
     3  C   -0.475749
     4  H    0.149739
     5  H    0.149730
     6  H    0.151943
     7  H    0.152019
     8  H    0.155254
     9  H    0.155285
    10  H    0.160387
    11  C   -0.298473
    12  C   -0.300820
    13  C   -0.480504
    14  H    0.149303
    15  H    0.149981
    16  H    0.152329
    17  H    0.152571
    18  H    0.156012
    19  H    0.156134
    20  H    0.164182
    21  C   -0.299129
    22  C   -0.299581
    23  C   -0.475591
    24  H    0.149786
    25  H    0.149308
    26  H    0.152164
    27  H    0.151594
    28  H    0.154624
    29  H    0.155303
    30  H    0.160297
    31  C   -0.298169
    32  C   -0.306844
    33  C   -0.475760
    34  H    0.149388
    35  H    0.149396
    36  H    0.150861
    37  H    0.160960
    38  H    0.155877
    39  H    0.154845
    40  H    0.159416
 Sum of Mulliken charges =  -0.00000

 Dipole moment (field-independent basis, Debye):
    X=             -0.0456    Y=             -0.0233    Z=             -0.0007  Tot=              0.0512
 Quadrupole moment (field-independent basis, Debye-Ang):
   XX=            -84.7104   YY=            -85.1941   ZZ=            -84.9138
   XY=              1.5243   XZ=             -0.9350   YZ=              0.4164

 Normal termination of Gaussian 16 at Thu May  6 11:33:18 2021.
