 Gaussian 16, Revision A.03,
 Gaussian 16:  EM64L-G16RevA.03 25-Dec-2016

 -------------
 #p 6-31g* mp2
 -------------

 ------------------------------------------------------
 Input file generated by CHIRIPA (05-May-2021 14:55:23)
 ------------------------------------------------------
 Symbolic Z-matrix:
 Charge =  0 Multiplicity = 1

                         Standard orientation:
 ---------------------------------------------------------------------
 Center     Atomic      Atomic             Coordinates (Angstroms)
 Number     Number       Type             X           Y           Z
 ---------------------------------------------------------------------
      1          6           0        1.041075    0.569446    2.541103
      2          6           0        1.707376    1.305235    1.555619
      3          6           0        2.017216    0.723235    0.322808
      4          6           0        1.644252   -0.602728    0.108311
      5          6           0        0.979618   -1.361879    1.070205
      6          6           0        0.679959   -0.759421    2.295683
      7          1           0        0.804339    1.029504    3.495932
      8          1           0        1.989042    2.337433    1.743439
      9          1           0        2.532354    1.269859   -0.457738
     10          1           0        0.711680   -2.388895    0.853720
     11          1           0        0.162429   -1.333255    3.059176
     12          7           0        1.966876   -1.229695   -1.192929
     13          8           0        1.627454   -2.399500   -1.357201
     14          8           0        2.553063   -0.539434   -2.023931
     15          6           0       -1.761206    1.314130   -0.184879
     16          6           0       -0.966384    2.042761   -1.269009
     17          6           0       -0.421960    3.391396   -0.797224
     18          1           0       -2.593040    1.952672    0.142629
     19          1           0       -1.117911    1.164013    0.693205
     20          1           0       -1.610568    2.190230   -2.145307
     21          1           0       -0.136459    1.402331   -1.594110
     22          1           0        0.242350    3.259088    0.062885
     23          1           0       -1.240135    4.051463   -0.491442
     24          1           0        0.142894    3.895104   -1.587843
     25          6           0       -2.311958   -0.035676   -0.641415
     26          6           0       -3.106780   -0.764307    0.442716
     27          6           0       -3.651204   -2.112942   -0.029070
     28          1           0       -2.955253    0.114441   -1.519499
     29          1           0       -1.480123   -0.674218   -0.968922
     30          1           0       -3.936706   -0.123878    0.767817
     31          1           0       -2.462596   -0.911775    1.319013
     32          1           0       -2.833028   -2.773009   -0.334851
     33          1           0       -4.315514   -1.980635   -0.889178
     34          1           0       -4.216057   -2.616649    0.761550
 ---------------------------------------------------------------------

 SCF Done:  E(RHF) =  -669.533130716     A.U. after   15 cycles
 E2 =    -0.2099620912D+01 EUMP2 =    -0.67163275162866D+03

 The electronic state is 1-A.
 Alpha  occ. eigenvalues --  -20.61012 -20.61003 -15.86039 -11.31409 -11.28003
 Alpha  occ. eigenvalues --  -11.27970 -11.27704 -11.26995 -11.26960 -11.21682
 Alpha  occ. eigenvalues --  -11.21531 -11.21293 -11.21257 -11.21188 -11.21107
 Alpha  occ. eigenvalues --   -1.60068  -1.39622  -1.19627  -1.09003  -1.08402
 Alpha  occ. eigenvalues --   -1.05036  -1.03565  -0.96035  -0.95820  -0.87063
 Alpha  occ. eigenvalues --   -0.86401  -0.82653  -0.79640  -0.78216  -0.77703
 Alpha  occ. eigenvalues --   -0.72256  -0.71408  -0.70696  -0.65257  -0.65151
 Alpha  occ. eigenvalues --   -0.65004  -0.62416  -0.61006  -0.59394  -0.57639
 Alpha  occ. eigenvalues --   -0.55520  -0.55347  -0.53264  -0.53102  -0.52739
 Alpha  occ. eigenvalues --   -0.52442  -0.49992  -0.49021  -0.49017  -0.47964
 Alpha  occ. eigenvalues --   -0.46707  -0.45755  -0.45632  -0.44983  -0.43787
 Alpha  occ. eigenvalues --   -0.37457  -0.36510
 Alpha virt. eigenvalues --    0.04797   0.10854   0.16123   0.20568   0.22984
 Alpha virt. eigenvalues --    0.23742   0.26316   0.26702   0.27354   0.27766
 Alpha virt. eigenvalues --    0.28958   0.30355   0.30714   0.31717   0.32497

 Mulliken charges:
               1
     1  C   -0.174306
     2  C   -0.217960
     3  C   -0.168538
     4  C    0.161055
     5  C   -0.170586
     6  C   -0.216726
     7  H    0.227498
     8  H    0.225630
     9  H    0.277850
    10  H    0.276804
    11  H    0.225303
    12  N    0.488603
    13  O   -0.459270
    14  O   -0.459171
    15  C   -0.306734
    16  C   -0.300629
    17  C   -0.478797
    18  H    0.146010
    19  H    0.157529
    20  H    0.154396
    21  H    0.154208
    22  H    0.146248
    23  H    0.155186
    24  H    0.161256
    25  C   -0.298115
    26  C   -0.300421
    27  C   -0.476627
    28  H    0.150893
    29  H    0.151022
    30  H    0.150895
    31  H    0.144604
    32  H    0.157550
    33  H    0.157776
    34  H    0.157564
 Sum of Mulliken charges =  -0.00000

 Dipole moment (field-independent basis, Debye):
    X=             -0.9511    Y=              2.1058    Z=              4.5898  Tot=              5.1386
 Quadrupole moment (field-independent basis, Debye-Ang):
   XX=            -97.8719   YY=            -95.1397   ZZ=            -93.5902
   XY=              5.6219   XZ=              7.1541   YZ=             -4.2303

 Normal termination of Gaussian 16 at Wed May  5 23:58:40 2021.
