 Gaussian 16, Revision A.03,
 Gaussian 16:  EM64L-G16RevA.03 25-Dec-2016

 -------------
 #p 6-31g* mp2
 -------------

 ------------------------------------------------------
 Input file generated by CHIRIPA (05-May-2021 14:51:14)
 ------------------------------------------------------
 Symbolic Z-matrix:
 Charge =  0 Multiplicity = 1

                         Standard orientation:
 ---------------------------------------------------------------------
 Center     Atomic      Atomic             Coordinates (Angstroms)
 Number     Number       Type             X           Y           Z
 ---------------------------------------------------------------------
      1          6           0       -3.275203   -0.358779   -0.090365
      2          6           0       -4.546693   -1.201630   -0.194771
      3          6           0       -4.258779   -2.702511   -0.242279
      4          1           0       -2.623811   -0.581706   -0.946483
      5          1           0       -2.720037   -0.655266    0.810347
      6          1           0       -5.099990   -0.902683   -1.094276
      7          1           0       -5.195218   -0.976530    0.661594
      8          1           0       -3.727446   -3.021601    0.660200
      9          1           0       -3.631676   -2.947335   -1.105647
     10          1           0       -5.181626   -3.286162   -0.316875
     11          6           0       -3.546677    1.143779   -0.041895
     12          6           0       -2.275186    1.986629    0.062511
     13          6           0       -2.563100    3.487510    0.110019
     14          1           0       -4.101842    1.440265   -0.942607
     15          1           0       -4.198068    1.366705    0.814223
     16          1           0       -1.626661    1.761529   -0.793854
     17          1           0       -1.721889    1.687682    0.962016
     18          1           0       -3.190203    3.732334    0.973387
     19          1           0       -3.094434    3.806600   -0.792459
     20          1           0       -1.640253    4.071161    0.184616
     21          6           0        2.690943   -0.409896   -0.188298
     22          6           0        1.718018   -1.069444    0.789660
     23          6           0        0.281573   -1.096672    0.266516
     24          1           0        2.354814    0.615496   -0.394537
     25          1           0        2.658588   -0.947975   -1.145805
     26          1           0        1.753218   -0.531126    1.745479
     27          1           0        2.056607   -2.093320    0.993743
     28          1           0        0.225196   -1.651259   -0.675745
     29          1           0       -0.079917   -0.080190    0.080262
     30          1           0       -0.397066   -1.572440    0.981326
     31          6           0        4.130936   -0.375103    0.320557
     32          6           0        5.103861    0.284444   -0.657400
     33          6           0        6.540307    0.311673   -0.134256
     34          1           0        4.163291    0.162976    1.278064
     35          1           0        4.467065   -1.400495    0.526797
     36          1           0        4.765272    1.308320   -0.861484
     37          1           0        5.068660   -0.253873   -1.613220
     38          1           0        6.901796   -0.704809    0.051997
     39          1           0        6.596683    0.866260    0.808005
     40          1           0        7.218945    0.787440   -0.849066
 ---------------------------------------------------------------------

 SCF Done:  E(RHF) =  -470.731780723     A.U. after   11 cycles
 E2 =    -0.1584156945D+01 EUMP2 =    -0.47231593766795D+03

 The electronic state is 1-A.
 Alpha  occ. eigenvalues --  -11.21620 -11.21579 -11.21529 -11.21500 -11.21364
 Alpha  occ. eigenvalues --  -11.21354 -11.21303 -11.21221 -11.21090 -11.21055
 Alpha  occ. eigenvalues --  -11.21027 -11.20868  -1.08422  -1.08353  -1.03512
 Alpha  occ. eigenvalues --   -1.03468  -0.95994  -0.95879  -0.86997  -0.86925
 Alpha  occ. eigenvalues --   -0.79615  -0.79583  -0.78306  -0.78029  -0.65045
 Alpha  occ. eigenvalues --   -0.65000  -0.60910  -0.60881  -0.59406  -0.59234
 Alpha  occ. eigenvalues --   -0.57571  -0.57529  -0.55258  -0.55199  -0.52794
 Alpha  occ. eigenvalues --   -0.52648  -0.52325  -0.52269  -0.49919  -0.49875
 Alpha  occ. eigenvalues --   -0.48019  -0.47770  -0.46644  -0.46604  -0.45927
 Alpha  occ. eigenvalues --   -0.45715  -0.45599  -0.45336  -0.43759  -0.43621
 Alpha virt. eigenvalues --    0.21923   0.23087   0.23927   0.24239   0.25761
 Alpha virt. eigenvalues --    0.26374   0.26835   0.27767   0.27928   0.29883
 Alpha virt. eigenvalues --    0.30161   0.30340   0.31835   0.31948   0.32425

 Mulliken charges:
               1
     1  C   -0.301347
     2  C   -0.299399
     3  C   -0.475427
     4  H    0.152675
     5  H    0.153593
     6  H    0.151281
     7  H    0.151199
     8  H    0.154570
     9  H    0.155242
    10  H    0.159978
    11  C   -0.297521
    12  C   -0.303659
    13  C   -0.474777
    14  H    0.149075
    15  H    0.149126
    16  H    0.152797
    17  H    0.153465
    18  H    0.155270
    19  H    0.155323
    20  H    0.159795
    21  C   -0.298415
    22  C   -0.300711
    23  C   -0.480742
    24  H    0.149334
    25  H    0.149154
    26  H    0.150842
    27  H    0.151148
    28  H    0.153234
    29  H    0.165158
    30  H    0.160107
    31  C   -0.298119
    32  C   -0.299575
    33  C   -0.475663
    34  H    0.149357
    35  H    0.149602
    36  H    0.151803
    37  H    0.151811
    38  H    0.155151
    39  H    0.155124
    40  H    0.160142
 Sum of Mulliken charges =  -0.00000

 Dipole moment (field-independent basis, Debye):
    X=             -0.0330    Y=              0.0175    Z=             -0.0071  Tot=              0.0380
 Quadrupole moment (field-independent basis, Debye-Ang):
   XX=            -86.2081   YY=            -85.3023   ZZ=            -83.6116
   XY=             -0.2095   XZ=             -0.4148   YZ=              0.3063

 Normal termination of Gaussian 16 at Wed May  5 18:25:37 2021.
