 Gaussian 16, Revision A.03,
 Gaussian 16:  EM64L-G16RevA.03 25-Dec-2016

 -------------
 #p 6-31g* mp2
 -------------

 ------------------------------------------------------
 Input file generated by CHIRIPA (05-May-2021 14:57:21)
 ------------------------------------------------------
 Symbolic Z-matrix:
 Charge =  0 Multiplicity = 1

                         Standard orientation:
 ---------------------------------------------------------------------
 Center     Atomic      Atomic             Coordinates (Angstroms)
 Number     Number       Type             X           Y           Z
 ---------------------------------------------------------------------
      1          6           0        3.447040    1.750951   -0.901127
      2          6           0        3.215207    0.520850   -1.525328
      3          6           0        2.577390   -0.515531   -0.837105
      4          6           0        2.182912   -0.286296    0.480137
      5          6           0        2.399710    0.928063    1.129461
      6          6           0        3.039270    1.950280    0.421942
      7          1           0        3.943189    2.550536   -1.443250
      8          1           0        3.530796    0.363215   -2.552752
      9          1           0        2.385399   -1.477735   -1.296149
     10          1           0        2.073623    1.055341    2.154588
     11          1           0        3.218003    2.904555    0.909241
     12          7           0        1.506760   -1.375969    1.218941
     13          8           0        1.168927   -1.148803    2.378640
     14          8           0        1.327430   -2.436588    0.624328
     15          6           0       -1.471368   -2.080875   -1.308701
     16          6           0       -2.476926   -2.074194   -0.336421
     17          6           0       -2.940631   -0.868037    0.197163
     18          6           0       -2.373913    0.318192   -0.266499
     19          6           0       -1.370763    0.344337   -1.234125
     20          6           0       -0.922463   -0.873716   -1.753665
     21          1           0       -1.117134   -3.022467   -1.717747
     22          1           0       -2.905048   -3.010163    0.011025
     23          1           0       -3.717966   -0.833922    0.950823
     24          1           0       -0.963318    1.293432   -1.560659
     25          1           0       -0.141414   -0.875870   -2.508650
     26          7           0       -2.856661    1.601393    0.290948
     27          8           0       -2.341066    2.632891   -0.134269
     28          8           0       -3.741494    1.551371    1.142537
 ---------------------------------------------------------------------

 SCF Done:  E(RHF) =  -868.338071393     A.U. after   16 cycles
 E2 =    -0.2603317174D+01 EUMP2 =    -0.87094138856689D+03

 The electronic state is 1-A.
 Alpha  occ. eigenvalues --  -20.61169 -20.61163 -20.60448 -20.60420 -15.86194
 Alpha  occ. eigenvalues --  -15.85490 -11.31543 -11.30682 -11.28204 -11.28047
 Alpha  occ. eigenvalues --  -11.27835 -11.27342 -11.27222 -11.27193 -11.27046
 Alpha  occ. eigenvalues --  -11.26940 -11.26288 -11.26114  -1.60218  -1.59517
 Alpha  occ. eigenvalues --   -1.39782  -1.39076  -1.19725  -1.18864  -1.09107
 Alpha  occ. eigenvalues --   -1.08263  -1.05138  -1.04256  -0.95957  -0.95124
 Alpha  occ. eigenvalues --   -0.86527  -0.85652  -0.82803  -0.81977  -0.77857
 Alpha  occ. eigenvalues --   -0.77064  -0.72451  -0.71715  -0.71540  -0.70838
 Alpha  occ. eigenvalues --   -0.70827  -0.69929  -0.65378  -0.65138  -0.64511
 Alpha  occ. eigenvalues --   -0.64276  -0.62487  -0.61619  -0.55610  -0.54713
 Alpha  occ. eigenvalues --   -0.53509  -0.53221  -0.52524  -0.52342  -0.49219
 Alpha  occ. eigenvalues --   -0.49172  -0.48476  -0.48455  -0.45220  -0.44522
 Alpha  occ. eigenvalues --   -0.37786  -0.36915  -0.36584  -0.35656
 Alpha virt. eigenvalues --    0.04607   0.05566   0.10624   0.12078   0.16100
 Alpha virt. eigenvalues --    0.17115   0.20567   0.22119   0.26267   0.27593
 Alpha virt. eigenvalues --    0.28375   0.29112   0.30746   0.31412   0.32152

 Mulliken charges:
               1
     1  C   -0.170735
     2  C   -0.222575
     3  C   -0.174306
     4  C    0.163126
     5  C   -0.169670
     6  C   -0.216709
     7  H    0.227834
     8  H    0.221864
     9  H    0.268410
    10  H    0.279279
    11  H    0.228077
    12  N    0.490238
    13  O   -0.457001
    14  O   -0.465903
    15  C   -0.153210
    16  C   -0.215631
    17  C   -0.167893
    18  C    0.156101
    19  C   -0.174332
    20  C   -0.223594
    21  H    0.227597
    22  H    0.225557
    23  H    0.275599
    24  H    0.271517
    25  H    0.213382
    26  N    0.488587
    27  O   -0.465729
    28  O   -0.459881
 Sum of Mulliken charges =  -0.00000

 Dipole moment (field-independent basis, Debye):
    X=              4.1067    Y=             -0.7910    Z=             -4.3068  Tot=              6.0033
 Quadrupole moment (field-independent basis, Debye-Ang):
   XX=           -101.5028   YY=           -107.4024   ZZ=           -102.2515
   XY=             21.7649   XZ=             -2.7391   YZ=              4.3885

 Normal termination of Gaussian 16 at Thu May  6 19:29:19 2021.
