 Gaussian 16, Revision A.03,
 Gaussian 16:  EM64L-G16RevA.03 25-Dec-2016

 -------------
 #p 6-31g* mp2
 -------------

 ------------------------------------------------------
 Input file generated by CHIRIPA (05-May-2021 14:53:13)
 ------------------------------------------------------
 Symbolic Z-matrix:
 Charge =  0 Multiplicity = 1

                         Standard orientation:
 ---------------------------------------------------------------------
 Center     Atomic      Atomic             Coordinates (Angstroms)
 Number     Number       Type             X           Y           Z
 ---------------------------------------------------------------------
      1          6           0        3.551066    0.909049   -0.329806
      2          6           0        4.096201    2.078778    0.490284
      3          6           0        3.647234    3.437813   -0.047531
      4          1           0        3.876847    1.017829   -1.373347
      5          1           0        2.453310    0.956515   -0.338501
      6          1           0        5.192559    2.028329    0.498582
      7          1           0        3.769244    1.967099    1.532034
      8          1           0        2.555064    3.513376   -0.040057
      9          1           0        3.986467    3.574954   -1.079381
     10          1           0        4.048299    4.259839    0.553536
     11          6           0        3.991210   -0.456260    0.195487
     12          6           0        3.446074   -1.625989   -0.624603
     13          6           0        3.895041   -2.985025   -0.086788
     14          1           0        5.088965   -0.503726    0.204182
     15          1           0        3.665428   -0.565040    1.239028
     16          1           0        3.773031   -1.514310   -1.666353
     17          1           0        2.349716   -1.575540   -0.632901
     18          1           0        3.555808   -3.122166    0.945062
     19          1           0        4.987211   -3.060587   -0.094261
     20          1           0        3.493976   -3.807050   -0.687855
     21          6           0       -0.669757   -1.186857    0.457010
     22          6           0       -1.511341   -0.902293    1.537417
     23          6           0       -2.774766   -0.342631    1.325085
     24          6           0       -3.166280   -0.079229    0.013359
     25          6           0       -2.350584   -0.351427   -1.083837
     26          6           0       -1.091322   -0.911003   -0.847869
     27          1           0        0.310085   -1.621582    0.631136
     28          1           0       -1.186585   -1.115467    2.551880
     29          1           0       -3.446405   -0.112343    2.143183
     30          1           0       -2.702094   -0.127777   -2.083757
     31          1           0       -0.439845   -1.130953   -1.688847
     32          7           0       -4.501607    0.513214   -0.223939
     33          8           0       -4.823081    0.735860   -1.389152
     34          8           0       -5.201480    0.743707    0.759772
 ---------------------------------------------------------------------

 SCF Done:  E(RHF) =  -669.535520839     A.U. after   15 cycles
 E2 =    -0.2091597229D+01 EUMP2 =    -0.67162711806761D+03

 The electronic state is 1-A.
 Alpha  occ. eigenvalues --  -20.60767 -20.60762 -15.85821 -11.31196 -11.27763
 Alpha  occ. eigenvalues --  -11.27759 -11.27489 -11.26781 -11.26770 -11.22801
 Alpha  occ. eigenvalues --  -11.22328 -11.22207 -11.22126 -11.22114 -11.21521
 Alpha  occ. eigenvalues --   -1.59843  -1.39396  -1.19368  -1.09307  -1.08760
 Alpha  occ. eigenvalues --   -1.04771  -1.04365  -0.96780  -0.95597  -0.87797
 Alpha  occ. eigenvalues --   -0.86168  -0.82429  -0.80462  -0.79085  -0.77471
 Alpha  occ. eigenvalues --   -0.72039  -0.71166  -0.70508  -0.65957  -0.65018
 Alpha  occ. eigenvalues --   -0.64767  -0.62122  -0.61770  -0.60172  -0.58388
 Alpha  occ. eigenvalues --   -0.56070  -0.55274  -0.53476  -0.53191  -0.53098
 Alpha  occ. eigenvalues --   -0.52860  -0.50728  -0.48800  -0.48796  -0.48746
 Alpha  occ. eigenvalues --   -0.47517  -0.46617  -0.46532  -0.44800  -0.44609
 Alpha  occ. eigenvalues --   -0.37343  -0.36374
 Alpha virt. eigenvalues --    0.05049   0.11240   0.16493   0.18848   0.22692
 Alpha virt. eigenvalues --    0.23614   0.25126   0.25951   0.27251   0.27746
 Alpha virt. eigenvalues --    0.29142   0.30198   0.30921   0.31281   0.32057

 Mulliken charges:
               1
     1  C   -0.300047
     2  C   -0.299924
     3  C   -0.476527
     4  H    0.151343
     5  H    0.148612
     6  H    0.153326
     7  H    0.151865
     8  H    0.156962
     9  H    0.156062
    10  H    0.162376
    11  C   -0.298492
    12  C   -0.304217
    13  C   -0.476570
    14  H    0.154057
    15  H    0.147456
    16  H    0.157017
    17  H    0.140587
    18  H    0.153096
    19  H    0.160812
    20  H    0.161977
    21  C   -0.175233
    22  C   -0.218955
    23  C   -0.170838
    24  C    0.158378
    25  C   -0.170900
    26  C   -0.220772
    27  H    0.231623
    28  H    0.223555
    29  H    0.275602
    30  H    0.275765
    31  H    0.224680
    32  N    0.488042
    33  O   -0.460337
    34  O   -0.460381
 Sum of Mulliken charges =  -0.00000

 Dipole moment (field-independent basis, Debye):
    X=              4.8943    Y=             -2.0322    Z=              0.8175  Tot=              5.3621
 Quadrupole moment (field-independent basis, Debye-Ang):
   XX=           -123.5789   YY=            -96.0878   ZZ=            -89.5591
   XY=              6.5297   XZ=             -4.2457   YZ=              0.2111

 Normal termination of Gaussian 16 at Wed May  5 18:32:59 2021.
