 Gaussian 16, Revision A.03,
 Gaussian 16:  EM64L-G16RevA.03 25-Dec-2016

 -------------
 #p 6-31g* mp2
 -------------

 ------------------------------------------------------
 Input file generated by CHIRIPA (05-May-2021 14:53:12)
 ------------------------------------------------------
 Symbolic Z-matrix:
 Charge =  0 Multiplicity = 1

                         Standard orientation:
 ---------------------------------------------------------------------
 Center     Atomic      Atomic             Coordinates (Angstroms)
 Number     Number       Type             X           Y           Z
 ---------------------------------------------------------------------
      1          6           0       -3.047882    0.708839   -0.138870
      2          6           0       -2.685837    2.183510    0.040730
      3          6           0       -1.219323    2.475311   -0.278615
      4          1           0       -2.402007    0.098037    0.506662
      5          1           0       -2.830052    0.408333   -1.173104
      6          1           0       -2.905580    2.481508    1.073942
      7          1           0       -3.332778    2.790887   -0.605161
      8          1           0       -0.989533    2.205404   -1.314447
      9          1           0       -0.559908    1.894268    0.374196
     10          1           0       -0.982262    3.535236   -0.143634
     11          6           0       -4.510637    0.401382    0.176635
     12          6           0       -4.872682   -1.073288   -0.002965
     13          6           0       -6.339196   -1.365089    0.316380
     14          1           0       -4.728467    0.701889    1.210870
     15          1           0       -5.156512    1.012185   -0.468897
     16          1           0       -4.225741   -1.680666    0.642927
     17          1           0       -4.652938   -1.371287   -1.036177
     18          1           0       -6.998611   -0.784047   -0.336431
     19          1           0       -6.568986   -1.095183    1.352213
     20          1           0       -6.576256   -2.425015    0.181400
     21          6           0        1.055185   -2.073589   -0.291597
     22          6           0        2.358124   -2.538856   -0.085689
     23          6           0        3.417118   -1.639325    0.068987
     24          6           0        3.135976   -0.275139    0.012012
     25          6           0        1.848655    0.219395   -0.191774
     26          6           0        0.805050   -0.698373   -0.343890
     27          1           0        0.238511   -2.779450   -0.410758
     28          1           0        2.555335   -3.606314   -0.044626
     29          1           0        4.435365   -1.972186    0.229598
     30          1           0        1.683179    1.289314   -0.227958
     31          1           0       -0.205828   -0.334176   -0.503674
     32          7           0        4.248940    0.686806    0.174405
     33          8           0        3.974985    1.883739    0.120201
     34          8           0        5.374162    0.225632    0.352818
 ---------------------------------------------------------------------

 SCF Done:  E(RHF) =  -669.534326317     A.U. after   15 cycles
 E2 =    -0.2093362047D+01 EUMP2 =    -0.67162768836434D+03

 The electronic state is 1-A.
 Alpha  occ. eigenvalues --  -20.60663 -20.60657 -15.85712 -11.31047 -11.27632
 Alpha  occ. eigenvalues --  -11.27548 -11.27345 -11.26646 -11.26494 -11.22532
 Alpha  occ. eigenvalues --  -11.22471 -11.22401 -11.22213 -11.22087 -11.21705
 Alpha  occ. eigenvalues --   -1.59738  -1.39292  -1.19217  -1.09367  -1.08617
 Alpha  occ. eigenvalues --   -1.04660  -1.04368  -0.96880  -0.95458  -0.87903
 Alpha  occ. eigenvalues --   -0.86014  -0.82323  -0.80496  -0.79236  -0.77310
 Alpha  occ. eigenvalues --   -0.71933  -0.71061  -0.70337  -0.65989  -0.64873
 Alpha  occ. eigenvalues --   -0.64629  -0.62168  -0.61676  -0.60180  -0.58466
 Alpha  occ. eigenvalues --   -0.56169  -0.55122  -0.53546  -0.53328  -0.52952
 Alpha  occ. eigenvalues --   -0.52657  -0.50804  -0.48806  -0.48687  -0.48639
 Alpha  occ. eigenvalues --   -0.47499  -0.46673  -0.46635  -0.44704  -0.44663
 Alpha  occ. eigenvalues --   -0.37204  -0.36203
 Alpha virt. eigenvalues --    0.05150   0.11387   0.16557   0.20715   0.22326
 Alpha virt. eigenvalues --    0.23674   0.25745   0.25810   0.26029   0.28231
 Alpha virt. eigenvalues --    0.29278   0.30125   0.30697   0.31268   0.31488

 Mulliken charges:
               1
     1  C   -0.307638
     2  C   -0.298120
     3  C   -0.489583
     4  H    0.146569
     5  H    0.147715
     6  H    0.156983
     7  H    0.156753
     8  H    0.155210
     9  H    0.153369
    10  H    0.171616
    11  C   -0.297351
    12  C   -0.300547
    13  C   -0.476179
    14  H    0.153056
    15  H    0.153198
    16  H    0.149771
    17  H    0.151178
    18  H    0.157145
    19  H    0.157085
    20  H    0.161501
    21  C   -0.174084
    22  C   -0.218605
    23  C   -0.171310
    24  C    0.159367
    25  C   -0.179807
    26  C   -0.228841
    27  H    0.225446
    28  H    0.222723
    29  H    0.275001
    30  H    0.281465
    31  H    0.240283
    32  N    0.488335
    33  O   -0.460646
    34  O   -0.461060
 Sum of Mulliken charges =  -0.00000

 Dipole moment (field-independent basis, Debye):
    X=             -4.2175    Y=             -3.2354    Z=             -0.5475  Tot=              5.3437
 Quadrupole moment (field-independent basis, Debye-Ang):
   XX=           -117.7810   YY=            -89.8718   ZZ=            -94.6888
   XY=            -13.1019   XZ=             -1.1352   YZ=             -0.4269

 Normal termination of Gaussian 16 at Wed May  5 20:06:48 2021.
