 Gaussian 16, Revision A.03,
 Gaussian 16:  EM64L-G16RevA.03 25-Dec-2016

 -------------
 #p 6-31g* mp2
 -------------

 ------------------------------------------------------
 Input file generated by CHIRIPA (05-May-2021 14:53:16)
 ------------------------------------------------------
 Symbolic Z-matrix:
 Charge =  0 Multiplicity = 1

                         Standard orientation:
 ---------------------------------------------------------------------
 Center     Atomic      Atomic             Coordinates (Angstroms)
 Number     Number       Type             X           Y           Z
 ---------------------------------------------------------------------
      1          6           0       -3.659570   -0.737256    0.286290
      2          6           0       -4.884386   -1.619610    0.042854
      3          6           0       -4.695939   -3.047338    0.556542
      4          1           0       -2.785792   -1.191366   -0.200785
      5          1           0       -3.440723   -0.714689    1.362854
      6          1           0       -5.101689   -1.639391   -1.032787
      7          1           0       -5.755389   -1.163248    0.530403
      8          1           0       -4.501682   -3.046601    1.633977
      9          1           0       -3.844268   -3.525450    0.061905
     10          1           0       -5.583434   -3.660727    0.372243
     11          6           0       -3.832666    0.693010   -0.221752
     12          6           0       -2.607850    1.575365    0.021684
     13          6           0       -2.796298    3.003093   -0.492004
     14          1           0       -4.051513    0.670443   -1.298316
     15          1           0       -4.706444    1.147120    0.265323
     16          1           0       -1.736848    1.119002   -0.465865
     17          1           0       -2.390548    1.595146    1.097325
     18          1           0       -3.647969    3.481205    0.002633
     19          1           0       -2.990554    3.002356   -1.569439
     20          1           0       -1.908803    3.616482   -0.307705
     21          6           0        1.444337    2.045029    0.213328
     22          6           0        2.490486    1.832465    1.117158
     23          6           0        3.318108    0.712389    0.994600
     24          6           0        3.069960   -0.178751   -0.048271
     25          6           0        2.035732    0.005430   -0.964645
     26          6           0        1.220694    1.132443   -0.822862
     27          1           0        0.806308    2.917826    0.316001
     28          1           0        2.666513    2.539519    1.922847
     29          1           0        4.135128    0.523474    1.680317
     30          1           0        1.884942   -0.717027   -1.757572
     31          1           0        0.408987    1.294971   -1.526255
     32          7           0        3.939465   -1.368197   -0.188194
     33          8           0        3.700009   -2.138408   -1.115595
     34          8           0        4.843976   -1.507752    0.632185
 ---------------------------------------------------------------------

 SCF Done:  E(RHF) =  -669.535036892     A.U. after   15 cycles
 E2 =    -0.2092110298D+01 EUMP2 =    -0.67162714718989D+03

 The electronic state is 1-A.
 Alpha  occ. eigenvalues --  -20.60759 -20.60754 -15.85813 -11.31180 -11.27753
 Alpha  occ. eigenvalues --  -11.27749 -11.27486 -11.26760 -11.26742 -11.22499
 Alpha  occ. eigenvalues --  -11.22155 -11.22059 -11.21974 -11.21860 -11.21320
 Alpha  occ. eigenvalues --   -1.59835  -1.39388  -1.19355  -1.09064  -1.08743
 Alpha  occ. eigenvalues --   -1.04765  -1.04180  -0.96626  -0.95579  -0.87636
 Alpha  occ. eigenvalues --   -0.86163  -0.82416  -0.80264  -0.78826  -0.77463
 Alpha  occ. eigenvalues --   -0.72032  -0.71158  -0.70460  -0.65743  -0.65006
 Alpha  occ. eigenvalues --   -0.64765  -0.62169  -0.61520  -0.60039  -0.58225
 Alpha  occ. eigenvalues --   -0.55896  -0.55257  -0.53343  -0.53111  -0.53019
 Alpha  occ. eigenvalues --   -0.52859  -0.50547  -0.48807  -0.48786  -0.48543
 Alpha  occ. eigenvalues --   -0.47277  -0.46365  -0.46265  -0.44794  -0.44420
 Alpha  occ. eigenvalues --   -0.37305  -0.36346
 Alpha virt. eigenvalues --    0.05069   0.11166   0.16515   0.19237   0.22632
 Alpha virt. eigenvalues --    0.23952   0.25271   0.26035   0.26681   0.27759
 Alpha virt. eigenvalues --    0.28937   0.29827   0.30957   0.31703   0.32222

 Mulliken charges:
               1
     1  C   -0.298537
     2  C   -0.300236
     3  C   -0.476202
     4  H    0.149933
     5  H    0.151095
     6  H    0.152189
     7  H    0.152411
     8  H    0.156037
     9  H    0.156843
    10  H    0.161580
    11  C   -0.298449
    12  C   -0.305176
    13  C   -0.477777
    14  H    0.149772
    15  H    0.151717
    16  H    0.149241
    17  H    0.154214
    18  H    0.161170
    19  H    0.157223
    20  H    0.151027
    21  C   -0.170971
    22  C   -0.219236
    23  C   -0.170530
    24  C    0.158440
    25  C   -0.172333
    26  C   -0.218159
    27  H    0.228560
    28  H    0.223529
    29  H    0.275586
    30  H    0.275324
    31  H    0.224596
    32  N    0.488102
    33  O   -0.460553
    34  O   -0.460429
 Sum of Mulliken charges =  -0.00000

 Dipole moment (field-independent basis, Debye):
    X=             -3.2007    Y=              4.1274    Z=              0.5420  Tot=              5.2511
 Quadrupole moment (field-independent basis, Debye-Ang):
   XX=           -112.0658   YY=            -97.5722   ZZ=            -91.1583
   XY=             14.3487   XZ=              3.7139   YZ=              1.7264

 Normal termination of Gaussian 16 at Thu May  6 02:43:23 2021.
