 Gaussian 16, Revision A.03,
 Gaussian 16:  EM64L-G16RevA.03 25-Dec-2016

 -------------
 #p 6-31g* mp2
 -------------

 ------------------------------------------------------
 Input file generated by CHIRIPA (05-May-2021 14:51:13)
 ------------------------------------------------------
 Symbolic Z-matrix:
 Charge =  0 Multiplicity = 1

                         Standard orientation:
 ---------------------------------------------------------------------
 Center     Atomic      Atomic             Coordinates (Angstroms)
 Number     Number       Type             X           Y           Z
 ---------------------------------------------------------------------
      1          6           0       -3.584583    0.623791    0.175204
      2          6           0       -2.078659    0.361994    0.134702
      3          6           0       -1.252264    1.625861    0.374505
      4          1           0       -3.839457    1.379169   -0.580698
      5          1           0       -3.848463    1.056005    1.150373
      6          1           0       -1.817908   -0.070881   -0.839590
      7          1           0       -1.827369   -0.392988    0.890658
      8          1           0       -1.483517    2.057310    1.353777
      9          1           0       -1.474002    2.381247   -0.386301
     10          1           0       -0.178648    1.415848    0.341278
     11          6           0       -4.424086   -0.630126   -0.062818
     12          6           0       -5.930010   -0.368329   -0.022315
     13          6           0       -6.756405   -1.632196   -0.262118
     14          1           0       -4.160206   -1.062340   -1.037986
     15          1           0       -4.169212   -1.385504    0.693085
     16          1           0       -6.181301    0.386654   -0.778272
     17          1           0       -6.190761    0.064547    0.951976
     18          1           0       -6.534667   -2.387582    0.498688
     19          1           0       -6.525152   -2.063644   -1.241391
     20          1           0       -7.830021   -1.422183   -0.228892
     21          6           0        3.376710    0.434321    0.004028
     22          6           0        3.629294    1.915680   -0.278391
     23          6           0        2.364196    2.765292   -0.153968
     24          1           0        2.612305    0.060270   -0.690751
     25          1           0        2.959694    0.326851    1.014939
     26          1           0        4.047002    2.020201   -1.287951
     27          1           0        4.393325    2.286199    0.417014
     28          1           0        1.947816    2.690691    0.855816
     29          1           0        1.599525    2.423182   -0.858837
     30          1           0        2.567577    3.820786   -0.359951
     31          6           0        4.631959   -0.427986   -0.116414
     32          6           0        4.379376   -1.909345    0.166004
     33          6           0        5.644474   -2.758957    0.041581
     34          1           0        5.048976   -0.320517   -1.127326
     35          1           0        5.396364   -0.053936    0.578365
     36          1           0        3.615345   -2.279864   -0.529401
     37          1           0        3.961667   -2.013867    1.175564
     38          1           0        6.409143   -2.416847    0.746451
     39          1           0        6.060854   -2.684357   -0.968201
     40          1           0        5.441092   -3.814451    0.247565
 ---------------------------------------------------------------------

 SCF Done:  E(RHF) =  -470.732390265     A.U. after   11 cycles
 E2 =    -0.1582883503D+01 EUMP2 =    -0.47231527376777D+03

 The electronic state is 1-A.
 Alpha  occ. eigenvalues --  -11.21611 -11.21594 -11.21570 -11.21516 -11.21428
 Alpha  occ. eigenvalues --  -11.21368 -11.21354 -11.21291 -11.21078 -11.21048
 Alpha  occ. eigenvalues --  -11.21004 -11.20873  -1.08446  -1.08373  -1.03552
 Alpha  occ. eigenvalues --   -1.03449  -0.96032  -0.95868  -0.87090  -0.86848
 Alpha  occ. eigenvalues --   -0.79682  -0.79454  -0.78264  -0.78186  -0.65076
 Alpha  occ. eigenvalues --   -0.65005  -0.60952  -0.60844  -0.59533  -0.59191
 Alpha  occ. eigenvalues --   -0.57735  -0.57378  -0.55318  -0.55154  -0.52944
 Alpha  occ. eigenvalues --   -0.52671  -0.52352  -0.52060  -0.49982  -0.49797
 Alpha  occ. eigenvalues --   -0.48005  -0.47718  -0.46657  -0.46537  -0.45795
 Alpha  occ. eigenvalues --   -0.45729  -0.45726  -0.45658  -0.43793  -0.43628
 Alpha virt. eigenvalues --    0.22102   0.23068   0.23536   0.25059   0.26517
 Alpha virt. eigenvalues --    0.26751   0.26882   0.27387   0.27843   0.29067
 Alpha virt. eigenvalues --    0.30916   0.31138   0.31514   0.31747   0.32108

 Mulliken charges:
               1
     1  C   -0.298337
     2  C   -0.299360
     3  C   -0.481945
     4  H    0.149398
     5  H    0.149341
     6  H    0.150836
     7  H    0.151494
     8  H    0.153693
     9  H    0.154007
    10  H    0.170205
    11  C   -0.298130
    12  C   -0.299560
    13  C   -0.475653
    14  H    0.149266
    15  H    0.149497
    16  H    0.151853
    17  H    0.151859
    18  H    0.155113
    19  H    0.155084
    20  H    0.160137
    21  C   -0.299649
    22  C   -0.299680
    23  C   -0.479454
    24  H    0.149736
    25  H    0.149562
    26  H    0.151735
    27  H    0.151796
    28  H    0.157175
    29  H    0.159025
    30  H    0.160346
    31  C   -0.298135
    32  C   -0.299692
    33  C   -0.475734
    34  H    0.149652
    35  H    0.149823
    36  H    0.152045
    37  H    0.151948
    38  H    0.155195
    39  H    0.155199
    40  H    0.160310
 Sum of Mulliken charges =  -0.00000

 Dipole moment (field-independent basis, Debye):
    X=              0.0539    Y=              0.0197    Z=             -0.0005  Tot=              0.0574
 Quadrupole moment (field-independent basis, Debye-Ang):
   XX=            -86.1480   YY=            -85.9494   ZZ=            -82.7815
   XY=              0.0630   XZ=              0.1338   YZ=             -0.2098

 Normal termination of Gaussian 16 at Thu May  6 03:58:48 2021.
