 Gaussian 16, Revision A.03,
 Gaussian 16:  EM64L-G16RevA.03 25-Dec-2016

 -------------
 #p 6-31g* mp2
 -------------

 ------------------------------------------------------
 Input file generated by CHIRIPA (05-May-2021 14:53:15)
 ------------------------------------------------------
 Symbolic Z-matrix:
 Charge =  0 Multiplicity = 1

                         Standard orientation:
 ---------------------------------------------------------------------
 Center     Atomic      Atomic             Coordinates (Angstroms)
 Number     Number       Type             X           Y           Z
 ---------------------------------------------------------------------
      1          6           0        3.837133    0.775108   -0.395994
      2          6           0        2.665758    1.501940    0.265505
      3          6           0        1.858096    2.343565   -0.723002
      4          1           0        4.495216    1.513228   -0.874586
      5          1           0        3.453410    0.131098   -1.199364
      6          1           0        3.051439    2.143336    1.068299
      7          1           0        2.010489    0.762019    0.742742
      8          1           0        1.445951    1.713949   -1.518188
      9          1           0        2.492815    3.103114   -1.190781
     10          1           0        1.025727    2.854392   -0.228960
     11          6           0        4.654092   -0.070430    0.579388
     12          6           0        5.825467   -0.797263   -0.082111
     13          6           0        6.633129   -1.638887    0.906395
     14          1           0        5.037815    0.573580    1.382758
     15          1           0        3.996009   -0.808550    1.057980
     16          1           0        6.480736   -0.057341   -0.559348
     17          1           0        5.439786   -1.438658   -0.884905
     18          1           0        5.998410   -2.398437    1.374175
     19          1           0        7.045274   -1.009271    1.701582
     20          1           0        7.465498   -2.149715    0.412354
     21          6           0       -5.610392    0.142653    0.893294
     22          6           0       -4.661763    1.170367    0.872601
     23          6           0       -3.387870    0.950137    0.340394
     24          6           0       -3.095157   -0.315668   -0.164924
     25          6           0       -4.018701   -1.359849   -0.158535
     26          6           0       -5.286405   -1.116953    0.378566
     27          1           0       -6.597578    0.322537    1.308626
     28          1           0       -4.910593    2.149595    1.271650
     29          1           0       -2.634415    1.727895    0.311821
     30          1           0       -3.741337   -2.325441   -0.563651
     31          1           0       -6.021125   -1.916962    0.393321
     32          7           0       -1.749820   -0.560812   -0.730939
     33          8           0       -1.516692   -1.684896   -1.169941
     34          8           0       -0.953946    0.375770   -0.724861
 ---------------------------------------------------------------------

 SCF Done:  E(RHF) =  -669.535933530     A.U. after   15 cycles
 E2 =    -0.2091195811D+01 EUMP2 =    -0.67162712934140D+03

 The electronic state is 1-A.
 Alpha  occ. eigenvalues --  -20.60956 -20.60949 -15.85985 -11.31302 -11.27866
 Alpha  occ. eigenvalues --  -11.27861 -11.27602 -11.26871 -11.26861 -11.20823
 Alpha  occ. eigenvalues --  -11.20460 -11.20433 -11.20272 -11.20206 -11.19492
 Alpha  occ. eigenvalues --   -1.60021  -1.39576  -1.19471  -1.08877  -1.07382
 Alpha  occ. eigenvalues --   -1.04866  -1.02440  -0.95725  -0.94889  -0.86267
 Alpha  occ. eigenvalues --   -0.85920  -0.82551  -0.78552  -0.77604  -0.77173
 Alpha  occ. eigenvalues --   -0.72221  -0.71333  -0.70579  -0.65130  -0.64870
 Alpha  occ. eigenvalues --   -0.63997  -0.62213  -0.59801  -0.58320  -0.56511
 Alpha  occ. eigenvalues --   -0.55372  -0.54153  -0.53198  -0.52956  -0.51611
 Alpha  occ. eigenvalues --   -0.51335  -0.49095  -0.48967  -0.48674  -0.46854
 Alpha  occ. eigenvalues --   -0.45583  -0.45003  -0.44717  -0.44567  -0.42719
 Alpha  occ. eigenvalues --   -0.37450  -0.36467
 Alpha virt. eigenvalues --    0.04911   0.11188   0.16403   0.21248   0.23878
 Alpha virt. eigenvalues --    0.25242   0.27144   0.27658   0.27964   0.28529
 Alpha virt. eigenvalues --    0.29210   0.30830   0.31945   0.32537   0.32708

 Mulliken charges:
               1
     1  C   -0.298912
     2  C   -0.299047
     3  C   -0.471178
     4  H    0.145059
     5  H    0.155320
     6  H    0.142792
     7  H    0.159185
     8  H    0.173902
     9  H    0.143311
    10  H    0.152168
    11  C   -0.297707
    12  C   -0.299168
    13  C   -0.475167
    14  H    0.145903
    15  H    0.150421
    16  H    0.149994
    17  H    0.153174
    18  H    0.154809
    19  H    0.153271
    20  H    0.158079
    21  C   -0.170557
    22  C   -0.218565
    23  C   -0.170765
    24  C    0.157442
    25  C   -0.170534
    26  C   -0.218613
    27  H    0.226035
    28  H    0.223934
    29  H    0.276014
    30  H    0.275788
    31  H    0.223814
    32  N    0.493393
    33  O   -0.459741
    34  O   -0.463854
 Sum of Mulliken charges =  -0.00000

 Dipole moment (field-independent basis, Debye):
    X=             -5.0834    Y=              0.7341    Z=              1.9062  Tot=              5.4785
 Quadrupole moment (field-independent basis, Debye-Ang):
   XX=            -66.9885   YY=            -91.3179   ZZ=            -96.4009
   XY=              0.7410   XZ=             -5.8370   YZ=              0.9323

 Normal termination of Gaussian 16 at Thu May  6 13:47:52 2021.
