 Gaussian 16, Revision A.03,
 Gaussian 16:  EM64L-G16RevA.03 25-Dec-2016

 -------------
 #p 6-31g* mp2
 -------------

 ------------------------------------------------------
 Input file generated by CHIRIPA (05-May-2021 14:53:12)
 ------------------------------------------------------
 Symbolic Z-matrix:
 Charge =  0 Multiplicity = 1

                         Standard orientation:
 ---------------------------------------------------------------------
 Center     Atomic      Atomic             Coordinates (Angstroms)
 Number     Number       Type             X           Y           Z
 ---------------------------------------------------------------------
      1          6           0        3.166382   -0.241372    0.190740
      2          6           0        2.472338    0.165559    1.491008
      3          6           0        0.967310   -0.102957    1.466869
      4          1           0        2.708906    0.302135   -0.647270
      5          1           0        2.986470   -1.309495    0.005973
      6          1           0        2.654663    1.232280    1.673984
      7          1           0        2.931648   -0.378837    2.326044
      8          1           0        0.768475   -1.167891    1.308817
      9          1           0        0.489916    0.452379    0.653052
     10          1           0        0.491173    0.195322    2.406115
     11          6           0        4.671324    0.020922    0.199541
     12          6           0        5.365367   -0.386009   -1.100726
     13          6           0        6.870396   -0.117493   -1.076587
     14          1           0        4.851235    1.089045    0.384308
     15          1           0        5.128800   -0.522585    1.037552
     16          1           0        4.906058    0.158387   -1.935762
     17          1           0        5.183043   -1.452730   -1.283702
     18          1           0        7.347790   -0.672829   -0.262770
     19          1           0        7.069231    0.947441   -0.918535
     20          1           0        7.346533   -0.415772   -2.015833
     21          6           0       -3.648733   -2.367330   -0.195065
     22          6           0       -2.931777   -1.837758    0.882919
     23          6           0       -2.600968   -0.479840    0.917095
     24          6           0       -3.004842    0.323303   -0.148335
     25          6           0       -3.720074   -0.174627   -1.236359
     26          6           0       -4.039903   -1.535541   -1.249405
     27          1           0       -3.901449   -3.423358   -0.213406
     28          1           0       -2.626682   -2.481371    1.703118
     29          1           0       -2.046729   -0.043660    1.739277
     30          1           0       -4.010427    0.491896   -2.039391
     31          1           0       -4.596784   -1.944067   -2.087877
     32          7           0       -2.660441    1.762457   -0.123339
     33          8           0       -3.027891    2.448970   -1.074294
     34          8           0       -2.029571    2.176701    0.846734
 ---------------------------------------------------------------------

 SCF Done:  E(RHF) =  -669.535533441     A.U. after   15 cycles
 E2 =    -0.2092069644D+01 EUMP2 =    -0.67162760308493D+03

 The electronic state is 1-A.
 Alpha  occ. eigenvalues --  -20.60800 -20.60786 -15.85828 -11.31129 -11.27728
 Alpha  occ. eigenvalues --  -11.27668 -11.27467 -11.26722 -11.26699 -11.21491
 Alpha  occ. eigenvalues --  -11.21441 -11.21270 -11.21211 -11.20985 -11.20968
 Alpha  occ. eigenvalues --   -1.59862  -1.39417  -1.19317  -1.08726  -1.08298
 Alpha  occ. eigenvalues --   -1.04713  -1.03410  -0.95892  -0.95554  -0.86926
 Alpha  occ. eigenvalues --   -0.86100  -0.82399  -0.79501  -0.78117  -0.77433
 Alpha  occ. eigenvalues --   -0.72051  -0.71183  -0.70431  -0.64985  -0.64910
 Alpha  occ. eigenvalues --   -0.64719  -0.62073  -0.60793  -0.59241  -0.57486
 Alpha  occ. eigenvalues --   -0.55240  -0.55145  -0.53115  -0.52918  -0.52443
 Alpha  occ. eigenvalues --   -0.52253  -0.49825  -0.48807  -0.48799  -0.47803
 Alpha  occ. eigenvalues --   -0.46504  -0.45665  -0.45575  -0.44771  -0.43670
 Alpha  occ. eigenvalues --   -0.37303  -0.36283
 Alpha virt. eigenvalues --    0.05060   0.11301   0.16525   0.21201   0.23017
 Alpha virt. eigenvalues --    0.24302   0.26437   0.26782   0.27586   0.27898
 Alpha virt. eigenvalues --    0.28857   0.30099   0.31533   0.31699   0.31998

 Mulliken charges:
               1
     1  C   -0.298818
     2  C   -0.300381
     3  C   -0.479811
     4  H    0.152253
     5  H    0.146603
     6  H    0.157608
     7  H    0.149296
     8  H    0.146980
     9  H    0.165357
    10  H    0.157992
    11  C   -0.298440
    12  C   -0.299599
    13  C   -0.475681
    14  H    0.151403
    15  H    0.148577
    16  H    0.152907
    17  H    0.150453
    18  H    0.154549
    19  H    0.156048
    20  H    0.159798
    21  C   -0.170362
    22  C   -0.221329
    23  C   -0.166916
    24  C    0.155550
    25  C   -0.170677
    26  C   -0.219016
    27  H    0.225342
    28  H    0.223448
    29  H    0.280976
    30  H    0.275259
    31  H    0.223112
    32  N    0.487576
    33  O   -0.460231
    34  O   -0.459827
 Sum of Mulliken charges =  -0.00000

 Dipole moment (field-independent basis, Debye):
    X=             -1.2207    Y=             -4.9715    Z=             -0.1014  Tot=              5.1201
 Quadrupole moment (field-independent basis, Debye-Ang):
   XX=            -88.3857   YY=            -97.7866   ZZ=            -91.0315
   XY=             14.6691   XZ=              2.9682   YZ=             -0.1496

 Normal termination of Gaussian 16 at Thu May  6 05:44:17 2021.
