 Gaussian 16, Revision A.03,
 Gaussian 16:  EM64L-G16RevA.03 25-Dec-2016

 -------------
 #p 6-31g* mp2
 -------------

 ------------------------------------------------------
 Input file generated by CHIRIPA (05-May-2021 14:55:22)
 ------------------------------------------------------
 Symbolic Z-matrix:
 Charge =  0 Multiplicity = 1

                         Standard orientation:
 ---------------------------------------------------------------------
 Center     Atomic      Atomic             Coordinates (Angstroms)
 Number     Number       Type             X           Y           Z
 ---------------------------------------------------------------------
      1          6           0       -3.246724    1.006518    1.725033
      2          6           0       -1.974007    0.518790    2.039412
      3          6           0       -1.309206   -0.346207    1.165132
      4          6           0       -1.949437   -0.704456   -0.020217
      5          6           0       -3.216979   -0.235353   -0.361639
      6          6           0       -3.863061    0.628556    0.527622
      7          1           0       -3.755887    1.678047    2.410014
      8          1           0       -1.492932    0.810626    2.968629
      9          1           0       -0.323473   -0.738642    1.383632
     10          1           0       -3.671045   -0.544127   -1.295396
     11          1           0       -4.851424    1.005775    0.280863
     12          7           0       -1.255550   -1.619615   -0.953709
     13          8           0       -1.841117   -1.920156   -1.991698
     14          8           0       -0.139252   -2.019045   -0.629714
     15          6           0        2.364985    1.048883   -0.796446
     16          6           0        1.238587    2.039446   -0.499805
     17          6           0        0.695449    2.712006   -1.760939
     18          1           0        3.179723    1.573994   -1.313560
     19          1           0        1.996064    0.282391   -1.491992
     20          1           0        1.609119    2.803055    0.196057
     21          1           0        0.426518    1.511956    0.016832
     22          1           0        0.299720    1.964573   -2.456170
     23          1           0        1.489040    3.263007   -2.275927
     24          1           0       -0.108837    3.416065   -1.525812
     25          6           0        2.918337    0.368403    0.454344
     26          6           0        4.044736   -0.622160    0.157704
     27          6           0        4.587873   -1.294720    1.418838
     28          1           0        3.287258    1.134895    1.149890
     29          1           0        2.103599   -0.156708    0.971458
     30          1           0        4.856805   -0.094671   -0.358934
     31          1           0        3.674204   -1.385769   -0.538158
     32          1           0        3.794282   -1.845722    1.933825
     33          1           0        4.983603   -0.547287    2.114067
     34          1           0        5.392159   -1.998779    1.183711
 ---------------------------------------------------------------------

 SCF Done:  E(RHF) =  -669.535194209     A.U. after   15 cycles
 E2 =    -0.2094394162D+01 EUMP2 =    -0.67162958837134D+03

 The electronic state is 1-A.
 Alpha  occ. eigenvalues --  -20.60967 -20.60961 -15.85998 -11.31305 -11.27874
 Alpha  occ. eigenvalues --  -11.27861 -11.27605 -11.26871 -11.26861 -11.21309
 Alpha  occ. eigenvalues --  -11.21113 -11.21054 -11.20879 -11.20863 -11.20699
 Alpha  occ. eigenvalues --   -1.60027  -1.39583  -1.19490  -1.08884  -1.08048
 Alpha  occ. eigenvalues --   -1.04887  -1.03180  -0.95734  -0.95637  -0.86663
 Alpha  occ. eigenvalues --   -0.86283  -0.82562  -0.79252  -0.77917  -0.77591
 Alpha  occ. eigenvalues --   -0.72221  -0.71352  -0.70599  -0.65145  -0.64956
 Alpha  occ. eigenvalues --   -0.64583  -0.62219  -0.60591  -0.59023  -0.57261
 Alpha  occ. eigenvalues --   -0.55384  -0.54929  -0.53246  -0.52970  -0.52341
 Alpha  occ. eigenvalues --   -0.52073  -0.49584  -0.48982  -0.48972  -0.47576
 Alpha  occ. eigenvalues --   -0.46269  -0.45483  -0.45301  -0.44911  -0.43426
 Alpha  occ. eigenvalues --   -0.37443  -0.36394
 Alpha virt. eigenvalues --    0.04866   0.11105   0.16365   0.20571   0.23150
 Alpha virt. eigenvalues --    0.24437   0.25511   0.27352   0.27823   0.28265
 Alpha virt. eigenvalues --    0.29529   0.31072   0.31502   0.32073   0.32158

 Mulliken charges:
               1
     1  C   -0.170176
     2  C   -0.218511
     3  C   -0.178574
     4  C    0.160150
     5  C   -0.170092
     6  C   -0.218476
     7  H    0.226324
     8  H    0.224994
     9  H    0.283964
    10  H    0.275972
    11  H    0.224008
    12  N    0.487913
    13  O   -0.458918
    14  O   -0.462347
    15  C   -0.301290
    16  C   -0.307036
    17  C   -0.475256
    18  H    0.147716
    19  H    0.163694
    20  H    0.147300
    21  H    0.153116
    22  H    0.157962
    23  H    0.155388
    24  H    0.156284
    25  C   -0.298012
    26  C   -0.301147
    27  C   -0.475679
    28  H    0.144287
    29  H    0.145683
    30  H    0.150013
    31  H    0.164239
    32  H    0.154523
    33  H    0.151282
    34  H    0.160702
 Sum of Mulliken charges =  -0.00000

 Dipole moment (field-independent basis, Debye):
    X=             -2.5676    Y=              3.0588    Z=              3.1835  Tot=              5.1072
 Quadrupole moment (field-independent basis, Debye-Ang):
   XX=            -82.1579   YY=           -100.1556   ZZ=            -93.9718
   XY=             -4.4816   XZ=             -4.4603   YZ=             -1.8295

 Normal termination of Gaussian 16 at Thu May  6 07:51:24 2021.
