 Gaussian 16, Revision A.03,
 Gaussian 16:  EM64L-G16RevA.03 25-Dec-2016

 -------------
 #p 6-31g* mp2
 -------------

 ------------------------------------------------------
 Input file generated by CHIRIPA (05-May-2021 14:51:08)
 ------------------------------------------------------
 Symbolic Z-matrix:
 Charge =  0 Multiplicity = 1

                         Standard orientation:
 ---------------------------------------------------------------------
 Center     Atomic      Atomic             Coordinates (Angstroms)
 Number     Number       Type             X           Y           Z
 ---------------------------------------------------------------------
      1          6           0       -2.046455    1.177805    0.036077
      2          6           0       -2.543476    2.570715    0.424353
      3          6           0       -1.403248    3.565936    0.641628
      4          1           0       -1.375263    0.802983    0.820905
      5          1           0       -1.444638    1.253078   -0.880190
      6          1           0       -3.145326    2.492641    1.338846
      7          1           0       -3.213714    2.942185   -0.361399
      8          1           0       -0.806698    3.673355   -0.270069
      9          1           0       -0.737922    3.221256    1.439837
     10          1           0       -1.781049    4.555148    0.918371
     11          6           0       -3.174656    0.171717   -0.184554
     12          6           0       -2.677635   -1.221192   -0.572831
     13          6           0       -3.817863   -2.216414   -0.790105
     14          1           0       -3.776473    0.096445    0.731713
     15          1           0       -3.845848    0.546540   -0.969382
     16          1           0       -2.007397   -1.592663    0.212922
     17          1           0       -2.075785   -1.143118   -1.487323
     18          1           0       -4.483189   -1.871733   -1.588314
     19          1           0       -4.414413   -2.323832    0.121591
     20          1           0       -3.440062   -3.205625   -1.066848
     21          6           0        2.128170   -1.036946    0.542810
     22          6           0        1.835084   -2.476020    0.117191
     23          6           0        0.868475   -3.187437    1.064474
     24          1           0        2.544271   -1.039548    1.559569
     25          1           0        1.183913   -0.477250    0.592942
     26          1           0        2.779762   -3.032469    0.066537
     27          1           0        1.419812   -2.470006   -0.898746
     28          1           0       -0.088458   -2.657347    1.107917
     29          1           0        1.279219   -3.223006    2.078685
     30          1           0        0.672904   -4.214693    0.741431
     31          6           0        3.092940   -0.312577   -0.394333
     32          6           0        3.386027    1.126497    0.031286
     33          6           0        4.352636    1.837914   -0.915996
     34          1           0        4.037198   -0.872274   -0.444464
     35          1           0        2.676840   -0.309974   -1.411092
     36          1           0        3.801299    1.120483    1.047224
     37          1           0        2.441349    1.682945    0.081941
     38          1           0        3.941892    1.873483   -1.930207
     39          1           0        5.309569    1.307825   -0.959440
     40          1           0        4.548207    2.865170   -0.592954
 ---------------------------------------------------------------------

 SCF Done:  E(RHF) =  -470.733378084     A.U. after   11 cycles
 E2 =    -0.1583643123D+01 EUMP2 =    -0.47231702120669D+03

 The electronic state is 1-A.
 Alpha  occ. eigenvalues --  -11.21664 -11.21658 -11.21560 -11.21555 -11.21484
 Alpha  occ. eigenvalues --  -11.21420 -11.21357 -11.21296 -11.21124 -11.21108
 Alpha  occ. eigenvalues --  -11.21039 -11.21034  -1.08504  -1.08382  -1.03593
 Alpha  occ. eigenvalues --   -1.03486  -0.96038  -0.95940  -0.87055  -0.86957
 Alpha  occ. eigenvalues --   -0.79673  -0.79539  -0.78366  -0.78156  -0.65178
 Alpha  occ. eigenvalues --   -0.64975  -0.61064  -0.60831  -0.59405  -0.59305
 Alpha  occ. eigenvalues --   -0.57676  -0.57532  -0.55363  -0.55195  -0.52725
 Alpha  occ. eigenvalues --   -0.52637  -0.52487  -0.52347  -0.50062  -0.49825
 Alpha  occ. eigenvalues --   -0.48049  -0.47806  -0.46806  -0.46511  -0.46117
 Alpha  occ. eigenvalues --   -0.45787  -0.45717  -0.45291  -0.43844  -0.43743
 Alpha virt. eigenvalues --    0.20293   0.22735   0.23568   0.24333   0.25629
 Alpha virt. eigenvalues --    0.26349   0.27122   0.27418   0.28094   0.29971
 Alpha virt. eigenvalues --    0.30624   0.31288   0.31772   0.31919   0.32007

 Mulliken charges:
               1
     1  C   -0.301892
     2  C   -0.299600
     3  C   -0.476372
     4  H    0.152311
     5  H    0.149331
     6  H    0.152303
     7  H    0.152307
     8  H    0.155100
     9  H    0.155751
    10  H    0.160718
    11  C   -0.297594
    12  C   -0.307862
    13  C   -0.475277
    14  H    0.149790
    15  H    0.150044
    16  H    0.159188
    17  H    0.151635
    18  H    0.155310
    19  H    0.155336
    20  H    0.160815
    21  C   -0.302870
    22  C   -0.298877
    23  C   -0.481789
    24  H    0.149053
    25  H    0.153983
    26  H    0.151711
    27  H    0.152277
    28  H    0.160463
    29  H    0.154870
    30  H    0.160115
    31  C   -0.297879
    32  C   -0.300388
    33  C   -0.475631
    34  H    0.149313
    35  H    0.149409
    36  H    0.151650
    37  H    0.153040
    38  H    0.154898
    39  H    0.155032
    40  H    0.160277
 Sum of Mulliken charges =  -0.00000

 Dipole moment (field-independent basis, Debye):
    X=             -0.0490    Y=              0.0159    Z=              0.0009  Tot=              0.0515
 Quadrupole moment (field-independent basis, Debye-Ang):
   XX=            -85.1223   YY=            -85.7219   ZZ=            -83.8708
   XY=             -1.2919   XZ=              0.7426   YZ=             -0.1817

 Normal termination of Gaussian 16 at Wed May  5 19:40:44 2021.
