 Gaussian 16, Revision A.03,
 Gaussian 16:  EM64L-G16RevA.03 25-Dec-2016

 -------------
 #p 6-31g* mp2
 -------------

 ------------------------------------------------------
 Input file generated by CHIRIPA (05-May-2021 14:55:20)
 ------------------------------------------------------
 Symbolic Z-matrix:
 Charge =  0 Multiplicity = 1

                         Standard orientation:
 ---------------------------------------------------------------------
 Center     Atomic      Atomic             Coordinates (Angstroms)
 Number     Number       Type             X           Y           Z
 ---------------------------------------------------------------------
      1          6           0       -2.431626    2.287572    0.260905
      2          6           0       -1.794313    1.597283   -0.775363
      3          6           0       -2.006040    0.226546   -0.950861
      4          6           0       -2.865340   -0.425389   -0.067757
      5          6           0       -3.514915    0.234545    0.974274
      6          6           0       -3.288383    1.605204    1.130883
      7          1           0       -2.261401    3.352363    0.389899
      8          1           0       -1.128417    2.124636   -1.452509
      9          1           0       -1.525539   -0.332400   -1.744660
     10          1           0       -4.173165   -0.318363    1.633378
     11          1           0       -3.784680    2.138719    1.936548
     12          7           0       -3.097323   -1.876486   -0.243550
     13          8           0       -3.859051   -2.427864    0.547898
     14          8           0       -2.513031   -2.435000   -1.169455
     15          6           0        3.944931   -0.282662    0.502990
     16          6           0        4.574154   -1.445653   -0.264809
     17          6           0        5.222798   -2.479763    0.655881
     18          1           0        4.715912    0.203067    1.116668
     19          1           0        3.192887   -0.676998    1.200359
     20          1           0        5.323807   -1.049116   -0.961512
     21          1           0        3.801627   -1.928550   -0.876878
     22          1           0        4.482153   -2.902900    1.342176
     23          1           0        6.012983   -2.018469    1.257062
     24          1           0        5.666353   -3.302319    0.086212
     25          6           0        3.292462    0.759414   -0.403703
     26          6           0        2.663239    1.922405    0.364096
     27          6           0        2.014595    2.956516   -0.556594
     28          1           0        4.044506    1.153750   -1.101073
     29          1           0        2.521482    0.273685   -1.017382
     30          1           0        3.435766    2.405302    0.976164
     31          1           0        1.913586    1.525868    1.060798
     32          1           0        1.224410    2.495221   -1.157775
     33          1           0        2.755239    3.379652   -1.242890
     34          1           0        1.571040    3.779071    0.013074
 ---------------------------------------------------------------------

 SCF Done:  E(RHF) =  -669.535445504     A.U. after   15 cycles
 E2 =    -0.2091291877D+01 EUMP2 =    -0.67162673738056D+03

 The electronic state is 1-A.
 Alpha  occ. eigenvalues --  -20.60792 -20.60787 -15.85846 -11.31213 -11.27783
 Alpha  occ. eigenvalues --  -11.27780 -11.27516 -11.26794 -11.26769 -11.22127
 Alpha  occ. eigenvalues --  -11.21906 -11.21764 -11.21693 -11.21573 -11.21085
 Alpha  occ. eigenvalues --   -1.59868  -1.39421  -1.19386  -1.08781  -1.08744
 Alpha  occ. eigenvalues --   -1.04791  -1.03877  -0.96351  -0.95611  -0.87377
 Alpha  occ. eigenvalues --   -0.86182  -0.82446  -0.79954  -0.78526  -0.77495
 Alpha  occ. eigenvalues --   -0.72063  -0.71192  -0.70486  -0.65404  -0.65035
 Alpha  occ. eigenvalues --   -0.64795  -0.62182  -0.61236  -0.59743  -0.57939
 Alpha  occ. eigenvalues --   -0.55681  -0.55263  -0.53127  -0.53064  -0.52955
 Alpha  occ. eigenvalues --   -0.52676  -0.50272  -0.48822  -0.48819  -0.48261
 Alpha  occ. eigenvalues --   -0.46965  -0.46079  -0.45970  -0.44827  -0.44122
 Alpha  occ. eigenvalues --   -0.37356  -0.36384
 Alpha virt. eigenvalues --    0.05035   0.11193   0.16472   0.20329   0.22807
 Alpha virt. eigenvalues --    0.24071   0.25541   0.26648   0.27142   0.28197
 Alpha virt. eigenvalues --    0.28972   0.29723   0.31258   0.31768   0.32211

 Mulliken charges:
               1
     1  C   -0.171778
     2  C   -0.219035
     3  C   -0.172730
     4  C    0.158549
     5  C   -0.170921
     6  C   -0.218667
     7  H    0.226344
     8  H    0.227554
     9  H    0.275307
    10  H    0.275669
    11  H    0.223534
    12  N    0.488084
    13  O   -0.460350
    14  O   -0.460567
    15  C   -0.298897
    16  C   -0.300389
    17  C   -0.476085
    18  H    0.149674
    19  H    0.151591
    20  H    0.151408
    21  H    0.154383
    22  H    0.157019
    23  H    0.154479
    24  H    0.161579
    25  C   -0.298149
    26  C   -0.299931
    27  C   -0.477103
    28  H    0.150030
    29  H    0.148310
    30  H    0.153970
    31  H    0.154512
    32  H    0.146901
    33  H    0.158618
    34  H    0.157088
 Sum of Mulliken charges =  -0.00000

 Dipole moment (field-independent basis, Debye):
    X=              0.9012    Y=              5.0674    Z=              0.6771  Tot=              5.1913
 Quadrupole moment (field-independent basis, Debye-Ang):
   XX=            -97.1813   YY=           -100.2387   ZZ=            -92.3887
   XY=            -14.4133   XZ=             -4.9718   YZ=             -0.0785

 Normal termination of Gaussian 16 at Thu May  6 20:41:04 2021.
