 Gaussian 16, Revision A.03,
 Gaussian 16:  EM64L-G16RevA.03 25-Dec-2016

 -------------
 #p 6-31g* mp2
 -------------

 ------------------------------------------------------
 Input file generated by CHIRIPA (05-May-2021 14:57:22)
 ------------------------------------------------------
 Symbolic Z-matrix:
 Charge =  0 Multiplicity = 1

                         Standard orientation:
 ---------------------------------------------------------------------
 Center     Atomic      Atomic             Coordinates (Angstroms)
 Number     Number       Type             X           Y           Z
 ---------------------------------------------------------------------
      1          6           0       -2.968805    2.450649    0.143417
      2          6           0       -2.057938    1.398988   -0.000982
      3          6           0       -2.509350    0.084835   -0.155184
      4          6           0       -3.884675   -0.142636   -0.160464
      5          6           0       -4.817126    0.883891   -0.018801
      6          6           0       -4.343069    2.190203    0.134063
      7          1           0       -2.609341    3.468468    0.262685
      8          1           0       -0.990101    1.598292    0.005909
      9          1           0       -1.826185   -0.748092   -0.268918
     10          1           0       -5.875642    0.654012   -0.029607
     11          1           0       -5.052766    3.004970    0.246001
     12          7           0       -4.374552   -1.529720   -0.323003
     13          8           0       -5.591244   -1.703780   -0.324332
     14          8           0       -3.532550   -2.416593   -0.445994
     15          6           0        5.476082    0.105188   -1.746035
     16          6           0        5.910085   -0.196966   -0.451097
     17          6           0        4.992472   -0.305354    0.598087
     18          6           0        3.642281   -0.104452    0.315399
     19          6           0        3.178836    0.197822   -0.964108
     20          6           0        4.114244    0.301272   -1.997964
     21          1           0        6.195818    0.187468   -2.555113
     22          1           0        6.967092   -0.349759   -0.252516
     23          1           0        5.301076   -0.538185    1.610001
     24          1           0        2.118686    0.344737   -1.131184
     25          1           0        3.774320    0.536043   -3.002642
     26          7           0        2.661426   -0.216585    1.418010
     27          8           0        1.477371   -0.035034    1.142892
     28          8           0        3.095260   -0.483901    2.536476
 ---------------------------------------------------------------------

 SCF Done:  E(RHF) =  -868.339175979     A.U. after   16 cycles
 E2 =    -0.2598751952D+01 EUMP2 =    -0.87093792793078D+03

 The electronic state is 1-A.
 Alpha  occ. eigenvalues --  -20.61524 -20.61456 -20.60174 -20.60163 -15.86537
 Alpha  occ. eigenvalues --  -15.85218 -11.31745 -11.30476 -11.28341 -11.28257
 Alpha  occ. eigenvalues --  -11.27979 -11.27276 -11.27239 -11.27077 -11.26942
 Alpha  occ. eigenvalues --  -11.26780 -11.26101 -11.25918  -1.60547  -1.59248
 Alpha  occ. eigenvalues --   -1.40114  -1.38804  -1.19895  -1.18638  -1.09311
 Alpha  occ. eigenvalues --   -1.08066  -1.05278  -1.04005  -0.96177  -0.94915
 Alpha  occ. eigenvalues --   -0.86683  -0.85422  -0.83025  -0.81733  -0.78099
 Alpha  occ. eigenvalues --   -0.76786  -0.72766  -0.71854  -0.71442  -0.71003
 Alpha  occ. eigenvalues --   -0.70568  -0.69765  -0.65554  -0.65276  -0.64287
 Alpha  occ. eigenvalues --   -0.63998  -0.62638  -0.61336  -0.55770  -0.54554
 Alpha  occ. eigenvalues --   -0.53607  -0.53369  -0.52368  -0.52086  -0.49524
 Alpha  occ. eigenvalues --   -0.49477  -0.48200  -0.48189  -0.45549  -0.44232
 Alpha  occ. eigenvalues --   -0.37853  -0.36872  -0.36645  -0.35603
 Alpha virt. eigenvalues --    0.04429   0.05716   0.10784   0.12037   0.15954
 Alpha virt. eigenvalues --    0.17225   0.20383   0.22093   0.25736   0.27192
 Alpha virt. eigenvalues --    0.28774   0.28998   0.30594   0.31321   0.32953

 Mulliken charges:
               1
     1  C   -0.171774
     2  C   -0.220435
     3  C   -0.170653
     4  C    0.157842
     5  C   -0.172317
     6  C   -0.218761
     7  H    0.223019
     8  H    0.233293
     9  H    0.279726
    10  H    0.273134
    11  H    0.220444
    12  N    0.488112
    13  O   -0.463112
    14  O   -0.460381
    15  C   -0.170123
    16  C   -0.218170
    17  C   -0.170332
    18  C    0.159120
    19  C   -0.170254
    20  C   -0.218028
    21  H    0.227747
    22  H    0.225593
    23  H    0.277113
    24  H    0.269134
    25  H    0.224910
    26  N    0.491959
    27  O   -0.472592
    28  O   -0.454213
 Sum of Mulliken charges =  -0.00000

 Dipole moment (field-independent basis, Debye):
    X=              5.6601    Y=              5.2225    Z=             -3.2572  Tot=              8.3619
 Quadrupole moment (field-independent basis, Debye-Ang):
   XX=            -85.9004   YY=           -107.2044   ZZ=           -106.3794
   XY=            -20.8909   XZ=            -13.5016   YZ=             -1.0372

 Normal termination of Gaussian 16 at Fri May  7 03:18:24 2021.
