 Gaussian 16, Revision A.03,
 Gaussian 16:  EM64L-G16RevA.03 25-Dec-2016

 -------------
 #p 6-31g* mp2
 -------------

 ------------------------------------------------------
 Input file generated by CHIRIPA (05-May-2021 14:57:23)
 ------------------------------------------------------
 Symbolic Z-matrix:
 Charge =  0 Multiplicity = 1

                         Standard orientation:
 ---------------------------------------------------------------------
 Center     Atomic      Atomic             Coordinates (Angstroms)
 Number     Number       Type             X           Y           Z
 ---------------------------------------------------------------------
      1          6           0        6.723698    0.033331    0.538159
      2          6           0        6.246442   -1.115196   -0.101867
      3          6           0        4.902395   -1.214166   -0.473740
      4          6           0        4.059626   -0.140894   -0.188927
      5          6           0        4.505086    1.016626    0.447472
      6          6           0        5.853032    1.093707    0.810306
      7          1           0        7.769301    0.101711    0.823528
      8          1           0        6.920329   -1.940251   -0.314484
      9          1           0        4.506411   -2.091658   -0.970351
     10          1           0        3.809252    1.822715    0.646101
     11          1           0        6.220896    1.986890    1.307241
     12          7           0        2.634679   -0.234082   -0.577828
     13          8           0        1.912520    0.725289   -0.315664
     14          8           0        2.266947   -1.264730   -1.137448
     15          6           0       -2.028382    1.232981    0.190513
     16          6           0       -3.035263    1.747335   -0.632987
     17          6           0       -4.294618    1.141856   -0.677360
     18          6           0       -4.513552    0.018471    0.118482
     19          6           0       -3.530765   -0.517630    0.949155
     20          6           0       -2.278906    0.104131    0.977568
     21          1           0       -1.052996    1.709655    0.218785
     22          1           0       -2.843541    2.623893   -1.245304
     23          1           0       -5.092108    1.519194   -1.305886
     24          1           0       -3.751774   -1.392710    1.548161
     25          1           0       -1.498835   -0.297509    1.618053
     26          7           0       -5.842807   -0.631141    0.079954
     27          8           0       -6.010454   -1.619761    0.790701
     28          8           0       -6.691862   -0.139385   -0.660262
 ---------------------------------------------------------------------

 SCF Done:  E(RHF) =  -868.339942986     A.U. after   16 cycles
 E2 =    -0.2598110773D+01 EUMP2 =    -0.87093805375877D+03

 The electronic state is 1-A.
 Alpha  occ. eigenvalues --  -20.61792 -20.61733 -20.59924 -20.59919 -15.86803
 Alpha  occ. eigenvalues --  -15.84973 -11.31923 -11.30109 -11.28481 -11.28438
 Alpha  occ. eigenvalues --  -11.28144 -11.27422 -11.27396 -11.26700 -11.26669
 Alpha  occ. eigenvalues --  -11.26183 -11.25597 -11.25535  -1.60828  -1.59006
 Alpha  occ. eigenvalues --   -1.40390  -1.38566  -1.20069  -1.18252  -1.09506
 Alpha  occ. eigenvalues --   -1.07646  -1.05434  -1.03640  -0.96384  -0.94524
 Alpha  occ. eigenvalues --   -0.86843  -0.85024  -0.83228  -0.81386  -0.78303
 Alpha  occ. eigenvalues --   -0.76500  -0.73043  -0.72136  -0.71196  -0.71170
 Alpha  occ. eigenvalues --   -0.70327  -0.69249  -0.65724  -0.65430  -0.63889
 Alpha  occ. eigenvalues --   -0.63630  -0.62785  -0.61012  -0.55936  -0.53993
 Alpha  occ. eigenvalues --   -0.53776  -0.53520  -0.51959  -0.51724  -0.49795
 Alpha  occ. eigenvalues --   -0.49746  -0.47963  -0.47930  -0.45850  -0.44024
 Alpha  occ. eigenvalues --   -0.38030  -0.37027  -0.36139  -0.35260
 Alpha virt. eigenvalues --    0.04214   0.06054   0.10632   0.12418   0.15760
 Alpha virt. eigenvalues --    0.17628   0.20795   0.22651   0.26730   0.27632
 Alpha virt. eigenvalues --    0.28391   0.29557   0.30424   0.31797   0.32308

 Mulliken charges:
               1
     1  C   -0.169861
     2  C   -0.218459
     3  C   -0.170319
     4  C    0.157477
     5  C   -0.170867
     6  C   -0.218378
     7  H    0.228069
     8  H    0.225976
     9  H    0.277173
    10  H    0.273176
    11  H    0.225049
    12  N    0.491028
    13  O   -0.473276
    14  O   -0.454883
    15  C   -0.168362
    16  C   -0.220457
    17  C   -0.171786
    18  C    0.156902
    19  C   -0.172039
    20  C   -0.217669
    21  H    0.241757
    22  H    0.220564
    23  H    0.271835
    24  H    0.272009
    25  H    0.223810
    26  N    0.488387
    27  O   -0.463298
    28  O   -0.463558
 Sum of Mulliken charges =  -0.00000

 Dipole moment (field-independent basis, Debye):
    X=             10.3315    Y=              2.5812    Z=              1.4884  Tot=             10.7526
 Quadrupole moment (field-independent basis, Debye-Ang):
   XX=           -107.3430   YY=            -98.8673   ZZ=           -103.6561
   XY=            -12.0221   XZ=              5.5573   YZ=             -0.4352

 Normal termination of Gaussian 16 at Thu May  6 22:44:02 2021.
