 Gaussian 16, Revision A.03,
 Gaussian 16:  EM64L-G16RevA.03 25-Dec-2016

 -------------
 #p 6-31g* mp2
 -------------

 ------------------------------------------------------
 Input file generated by CHIRIPA (05-May-2021 14:53:14)
 ------------------------------------------------------
 Symbolic Z-matrix:
 Charge =  0 Multiplicity = 1

                         Standard orientation:
 ---------------------------------------------------------------------
 Center     Atomic      Atomic             Coordinates (Angstroms)
 Number     Number       Type             X           Y           Z
 ---------------------------------------------------------------------
      1          6           0       -5.648366   -0.054622   -0.252616
      2          6           0       -6.066933   -1.502995    0.002339
      3          6           0       -7.494714   -1.795794   -0.459726
      4          1           0       -6.347300    0.618450    0.262564
      5          1           0       -5.739170    0.162442   -1.325944
      6          1           0       -5.974046   -1.717677    1.074673
      7          1           0       -5.366809   -2.172702   -0.513350
      8          1           0       -7.598016   -1.609153   -1.533549
      9          1           0       -8.208703   -1.151544    0.063497
     10          1           0       -7.773229   -2.836716   -0.267966
     11          6           0       -4.223472    0.253521    0.203949
     12          6           0       -3.804904    1.701894   -0.051006
     13          6           0       -2.377124    1.994693    0.411059
     14          1           0       -4.132668    0.036457    1.277277
     15          1           0       -3.524537   -0.419551   -0.311230
     16          1           0       -4.505029    2.371600    0.464683
     17          1           0       -3.897791    1.916576   -1.123340
     18          1           0       -1.663135    1.350442   -0.112163
     19          1           0       -2.273822    1.808052    1.484882
     20          1           0       -2.098608    3.035614    0.219299
     21          6           0        1.592323    0.950247    0.448173
     22          6           0        2.256187    1.197672   -0.757890
     23          6           0        3.510915    0.633383   -1.006453
     24          6           0        4.075049   -0.177073   -0.022479
     25          6           0        3.438645   -0.442406    1.189081
     26          6           0        2.184627    0.132439    1.416102
     27          1           0        0.617896    1.392701    0.632896
     28          1           0        1.798600    1.832391   -1.511410
     29          1           0        4.046934    0.808329   -1.931384
     30          1           0        3.920122   -1.079360    1.921124
     31          1           0        1.671375   -0.061454    2.353665
     32          7           0        5.402997   -0.780047   -0.274220
     33          8           0        5.878614   -1.490484    0.608791
     34          8           0        5.943083   -0.530806   -1.349777
 ---------------------------------------------------------------------

 SCF Done:  E(RHF) =  -669.535618936     A.U. after   15 cycles
 E2 =    -0.2090817075D+01 EUMP2 =    -0.67162643601118D+03

 The electronic state is 1-A.
 Alpha  occ. eigenvalues --  -20.60707 -20.60702 -15.85761 -11.31108 -11.27681
 Alpha  occ. eigenvalues --  -11.27677 -11.27340 -11.26680 -11.26668 -11.22557
 Alpha  occ. eigenvalues --  -11.22395 -11.22153 -11.22097 -11.21968 -11.21476
 Alpha  occ. eigenvalues --   -1.59783  -1.39337  -1.19277  -1.09156  -1.08667
 Alpha  occ. eigenvalues --   -1.04681  -1.04301  -0.96784  -0.95505  -0.87814
 Alpha  occ. eigenvalues --   -0.86075  -0.82346  -0.80387  -0.78924  -0.77400
 Alpha  occ. eigenvalues --   -0.71978  -0.71107  -0.70378  -0.65781  -0.64925
 Alpha  occ. eigenvalues --   -0.64686  -0.62032  -0.61697  -0.60163  -0.58375
 Alpha  occ. eigenvalues --   -0.56126  -0.55183  -0.53459  -0.53164  -0.52998
 Alpha  occ. eigenvalues --   -0.52769  -0.50716  -0.48754  -0.48735  -0.48660
 Alpha  occ. eigenvalues --   -0.47387  -0.46477  -0.46368  -0.44747  -0.44532
 Alpha  occ. eigenvalues --   -0.37243  -0.36292
 Alpha virt. eigenvalues --    0.05124   0.11359   0.16572   0.20674   0.22233
 Alpha virt. eigenvalues --    0.23720   0.25773   0.25962   0.26955   0.27349
 Alpha virt. eigenvalues --    0.29072   0.30440   0.30599   0.30934   0.31936

 Mulliken charges:
               1
     1  C   -0.298920
     2  C   -0.300196
     3  C   -0.476107
     4  H    0.150806
     5  H    0.150702
     6  H    0.152256
     7  H    0.152763
     8  H    0.155923
     9  H    0.155747
    10  H    0.161818
    11  C   -0.299338
    12  C   -0.299574
    13  C   -0.483296
    14  H    0.149659
    15  H    0.150360
    16  H    0.155678
    17  H    0.154611
    18  H    0.150091
    19  H    0.155385
    20  H    0.162382
    21  C   -0.178768
    22  C   -0.221653
    23  C   -0.170768
    24  C    0.158135
    25  C   -0.170746
    26  C   -0.220887
    27  H    0.240254
    28  H    0.223138
    29  H    0.275212
    30  H    0.275216
    31  H    0.223464
    32  N    0.488053
    33  O   -0.460675
    34  O   -0.460723
 Sum of Mulliken charges =  -0.00000

 Dipole moment (field-independent basis, Debye):
    X=             -4.9513    Y=              2.1275    Z=              0.8798  Tot=              5.4604
 Quadrupole moment (field-independent basis, Debye-Ang):
   XX=           -133.7084   YY=            -95.2146   ZZ=            -90.1439
   XY=              9.1191   XZ=              3.0267   YZ=             -2.3817

 Normal termination of Gaussian 16 at Wed May  5 21:51:24 2021.
