 Gaussian 16, Revision A.03,
 Gaussian 16:  EM64L-G16RevA.03 25-Dec-2016

 -------------
 #p 6-31g* mp2
 -------------

 ------------------------------------------------------
 Input file generated by CHIRIPA (05-May-2021 14:51:12)
 ------------------------------------------------------
 Symbolic Z-matrix:
 Charge =  0 Multiplicity = 1

                         Standard orientation:
 ---------------------------------------------------------------------
 Center     Atomic      Atomic             Coordinates (Angstroms)
 Number     Number       Type             X           Y           Z
 ---------------------------------------------------------------------
      1          6           0        3.244896    0.055848    0.013460
      2          6           0        4.288425   -0.246225   -1.062544
      3          6           0        5.083903    0.991479   -1.478594
      4          1           0        2.557092    0.827679   -0.358223
      5          1           0        3.747671    0.482304    0.892520
      6          1           0        3.783999   -0.673268   -1.938789
      7          1           0        4.973710   -1.017563   -0.688329
      8          1           0        5.612899    1.416230   -0.619321
      9          1           0        4.416429    1.762481   -1.876885
     10          1           0        5.824164    0.752820   -2.248604
     11          6           0        2.441549   -1.171577    0.439826
     12          6           0        1.398020   -0.869505    1.515830
     13          6           0        0.602542   -2.107209    1.931880
     14          1           0        1.938774   -1.598033   -0.439234
     15          1           0        3.129353   -1.943408    0.811509
     16          1           0        0.712735   -0.098166    1.141615
     17          1           0        1.902446   -0.442461    2.392075
     18          1           0        1.270016   -2.878210    2.330171
     19          1           0        0.073545   -2.531959    1.072607
     20          1           0       -0.137719   -1.868549    2.701890
     21          6           0       -3.283218    0.177886   -0.722074
     22          6           0       -3.331626   -1.327628   -0.459263
     23          6           0       -4.215871   -2.074046   -1.458646
     24          1           0       -4.303682    0.583131   -0.684996
     25          1           0       -2.914110    0.353308   -1.742064
     26          1           0       -3.699222   -1.500116    0.560411
     27          1           0       -2.310908   -1.729304   -0.496782
     28          1           0       -3.848095   -1.931465   -2.479925
     29          1           0       -5.244297   -1.700975   -1.416726
     30          1           0       -4.236141   -3.148694   -1.252292
     31          6           0       -2.403226    0.937843    0.268788
     32          6           0       -2.354819    2.443357    0.005977
     33          6           0       -1.470574    3.189776    1.005359
     34          1           0       -2.772335    0.762420    1.288779
     35          1           0       -1.382763    0.532597    0.231710
     36          1           0       -3.375536    2.845033    0.043495
     37          1           0       -1.987223    2.615845   -1.013697
     38          1           0       -0.442147    2.816704    0.963440
     39          1           0       -1.838350    3.047194    2.026640
     40          1           0       -1.450304    4.264423    0.799006
 ---------------------------------------------------------------------

 SCF Done:  E(RHF) =  -470.733289353     A.U. after   11 cycles
 E2 =    -0.1583519759D+01 EUMP2 =    -0.47231680911256D+03

 The electronic state is 1-A.
 Alpha  occ. eigenvalues --  -11.21627 -11.21627 -11.21620 -11.21586 -11.21433
 Alpha  occ. eigenvalues --  -11.21426 -11.21373 -11.21365 -11.21091 -11.21089
 Alpha  occ. eigenvalues --  -11.21087 -11.21058  -1.08476  -1.08433  -1.03555
 Alpha  occ. eigenvalues --   -1.03538  -0.96006  -0.95983  -0.87024  -0.86997
 Alpha  occ. eigenvalues --   -0.79668  -0.79553  -0.78343  -0.78198  -0.65241
 Alpha  occ. eigenvalues --   -0.64953  -0.60984  -0.60915  -0.59392  -0.59333
 Alpha  occ. eigenvalues --   -0.57648  -0.57560  -0.55322  -0.55251  -0.52700
 Alpha  occ. eigenvalues --   -0.52670  -0.52431  -0.52409  -0.50023  -0.49868
 Alpha  occ. eigenvalues --   -0.48011  -0.47899  -0.46858  -0.46497  -0.46069
 Alpha  occ. eigenvalues --   -0.45764  -0.45755  -0.45316  -0.43806  -0.43795
 Alpha virt. eigenvalues --    0.20078   0.23044   0.23512   0.23954   0.25751
 Alpha virt. eigenvalues --    0.26722   0.27022   0.27557   0.28248   0.29508
 Alpha virt. eigenvalues --    0.30380   0.31522   0.31802   0.31846   0.32425

 Mulliken charges:
               1
     1  C   -0.298232
     2  C   -0.299640
     3  C   -0.475737
     4  H    0.148632
     5  H    0.149920
     6  H    0.151816
     7  H    0.152144
     8  H    0.155326
     9  H    0.155149
    10  H    0.160335
    11  C   -0.297935
    12  C   -0.308154
    13  C   -0.476629
    14  H    0.148736
    15  H    0.149981
    16  H    0.158863
    17  H    0.152371
    18  H    0.155020
    19  H    0.156277
    20  H    0.161046
    21  C   -0.297738
    22  C   -0.301396
    23  C   -0.475756
    24  H    0.149901
    25  H    0.149095
    26  H    0.152433
    27  H    0.153271
    28  H    0.154993
    29  H    0.155318
    30  H    0.160452
    31  C   -0.306278
    32  C   -0.299316
    33  C   -0.477010
    34  H    0.149631
    35  H    0.157543
    36  H    0.152172
    37  H    0.151462
    38  H    0.156045
    39  H    0.155440
    40  H    0.160447
 Sum of Mulliken charges =  -0.00000

 Dipole moment (field-independent basis, Debye):
    X=             -0.0103    Y=             -0.0010    Z=              0.0174  Tot=              0.0202
 Quadrupole moment (field-independent basis, Debye-Ang):
   XX=            -84.3810   YY=            -85.8443   ZZ=            -84.4413
   XY=             -1.1828   XZ=             -0.1355   YZ=             -0.1805

 Normal termination of Gaussian 16 at Wed May  5 19:53:01 2021.
