 Gaussian 16, Revision A.03,
 Gaussian 16:  EM64L-G16RevA.03 25-Dec-2016

 -------------
 #p 6-31g* mp2
 -------------

 ------------------------------------------------------
 Input file generated by CHIRIPA (05-May-2021 14:51:09)
 ------------------------------------------------------
 Symbolic Z-matrix:
 Charge =  0 Multiplicity = 1

                         Standard orientation:
 ---------------------------------------------------------------------
 Center     Atomic      Atomic             Coordinates (Angstroms)
 Number     Number       Type             X           Y           Z
 ---------------------------------------------------------------------
      1          6           0        3.060596   -0.187937   -0.290463
      2          6           0        3.429129   -1.301606    0.690307
      3          6           0        3.436935   -2.684680    0.038510
      4          1           0        2.071290   -0.398313   -0.719369
      5          1           0        3.772302   -0.195772   -1.127606
      6          1           0        2.717766   -1.290785    1.526047
      7          1           0        4.417590   -1.088454    1.117072
      8          1           0        4.159714   -2.719294   -0.783069
      9          1           0        2.450232   -2.922774   -0.371770
     10          1           0        3.702900   -3.465828    0.757488
     11          6           0        3.048523    1.200623    0.346311
     12          6           0        2.679990    2.314292   -0.634459
     13          6           0        2.672184    3.697366    0.017338
     14          1           0        2.336817    1.208459    1.183455
     15          1           0        4.037829    1.411000    0.775217
     16          1           0        1.691530    2.101141   -1.061224
     17          1           0        3.391353    2.303471   -1.470199
     18          1           0        3.658887    3.935461    0.427618
     19          1           0        1.949405    3.731981    0.838918
     20          1           0        2.406219    4.478514   -0.701640
     21          6           0       -3.686273   -0.193111   -0.321616
     22          6           0       -4.377511    0.783824    0.630105
     23          6           0       -5.639733    1.402233    0.028310
     24          1           0       -3.431429    0.330676   -1.253093
     25          1           0       -4.392033   -0.989992   -0.594156
     26          1           0       -3.670221    1.577868    0.901859
     27          1           0       -4.630567    0.257700    1.559498
     28          1           0       -6.366202    0.623862   -0.226606
     29          1           0       -5.400399    1.951532   -0.887983
     30          1           0       -6.117876    2.097350    0.725483
     31          6           0       -2.422846   -0.819576    0.265768
     32          6           0       -1.731608   -1.796510   -0.685953
     33          6           0       -0.469386   -2.414920   -0.084158
     34          1           0       -1.717085   -0.022695    0.538306
     35          1           0       -2.677690   -1.343361    1.197245
     36          1           0       -1.478552   -1.270386   -1.615348
     37          1           0       -2.438898   -2.590555   -0.957707
     38          1           0       -0.708720   -2.964218    0.832135
     39          1           0        0.257083   -1.636549    0.170758
     40          1           0        0.008757   -3.110037   -0.781332
 ---------------------------------------------------------------------

 SCF Done:  E(RHF) =  -470.732260601     A.U. after   11 cycles
 E2 =    -0.1583918481D+01 EUMP2 =    -0.47231617908234D+03

 The electronic state is 1-A.
 Alpha  occ. eigenvalues --  -11.21676 -11.21643 -11.21625 -11.21539 -11.21470
 Alpha  occ. eigenvalues --  -11.21407 -11.21398 -11.21325 -11.21141 -11.21102
 Alpha  occ. eigenvalues --  -11.21092 -11.20895  -1.08502  -1.08413  -1.03620
 Alpha  occ. eigenvalues --   -1.03477  -0.96068  -0.95929  -0.87087  -0.86953
 Alpha  occ. eigenvalues --   -0.79700  -0.79536  -0.78316  -0.78221  -0.65269
 Alpha  occ. eigenvalues --   -0.64962  -0.61183  -0.60747  -0.59449  -0.59299
 Alpha  occ. eigenvalues --   -0.57682  -0.57531  -0.55326  -0.55257  -0.52805
 Alpha  occ. eigenvalues --   -0.52632  -0.52475  -0.52302  -0.50044  -0.49841
 Alpha  occ. eigenvalues --   -0.47984  -0.47859  -0.46774  -0.46553  -0.45908
 Alpha  occ. eigenvalues --   -0.45804  -0.45724  -0.45529  -0.43816  -0.43753
 Alpha virt. eigenvalues --    0.20676   0.23126   0.23817   0.24656   0.26138
 Alpha virt. eigenvalues --    0.26753   0.26925   0.27671   0.27960   0.29226
 Alpha virt. eigenvalues --    0.30441   0.31400   0.31668   0.31780   0.32204

 Mulliken charges:
               1
     1  C   -0.303203
     2  C   -0.300239
     3  C   -0.481878
     4  H    0.152718
     5  H    0.149975
     6  H    0.151953
     7  H    0.152121
     8  H    0.153861
     9  H    0.164015
    10  H    0.159435
    11  C   -0.298366
    12  C   -0.299443
    13  C   -0.475684
    14  H    0.148929
    15  H    0.150055
    16  H    0.151080
    17  H    0.152174
    18  H    0.155403
    19  H    0.155028
    20  H    0.160219
    21  C   -0.298361
    22  C   -0.299683
    23  C   -0.475747
    24  H    0.149755
    25  H    0.149788
    26  H    0.151895
    27  H    0.152029
    28  H    0.155270
    29  H    0.155278
    30  H    0.160415
    31  C   -0.298558
    32  C   -0.300183
    33  C   -0.483559
    34  H    0.148856
    35  H    0.149939
    36  H    0.152016
    37  H    0.152479
    38  H    0.156064
    39  H    0.162639
    40  H    0.161514
 Sum of Mulliken charges =  -0.00000

 Dipole moment (field-independent basis, Debye):
    X=             -0.0461    Y=             -0.0187    Z=             -0.0044  Tot=              0.0499
 Quadrupole moment (field-independent basis, Debye-Ang):
   XX=            -84.4688   YY=            -85.5707   ZZ=            -84.7954
   XY=              1.1859   XZ=             -0.7311   YZ=             -0.5108

 Normal termination of Gaussian 16 at Thu May  6 05:21:13 2021.
