 Gaussian 16, Revision A.03,
 Gaussian 16:  EM64L-G16RevA.03 25-Dec-2016

 -------------
 #p 6-31g* mp2
 -------------

 ------------------------------------------------------
 Input file generated by CHIRIPA (05-May-2021 14:55:25)
 ------------------------------------------------------
 Symbolic Z-matrix:
 Charge =  0 Multiplicity = 1

                         Standard orientation:
 ---------------------------------------------------------------------
 Center     Atomic      Atomic             Coordinates (Angstroms)
 Number     Number       Type             X           Y           Z
 ---------------------------------------------------------------------
      1          6           0       -1.840195    0.968922    2.013652
      2          6           0       -1.320815    0.882415    0.717781
      3          6           0       -2.068170    0.298064   -0.309128
      4          6           0       -3.337015   -0.191719   -0.003457
      5          6           0       -3.882063   -0.120267    1.277600
      6          6           0       -3.116911    0.468189    2.288940
      7          1           0       -1.252719    1.424454    2.805333
      8          1           0       -0.329595    1.270448    0.501085
      9          1           0       -1.690417    0.218089   -1.321217
     10          1           0       -4.873258   -0.515957    1.463017
     11          1           0       -3.522819    0.534009    3.294401
     12          7           0       -4.137627   -0.812517   -1.082359
     13          8           0       -5.252866   -1.236521   -0.787231
     14          8           0       -3.634748   -0.863341   -2.202701
     15          6           0        3.477120    0.465842   -0.485608
     16          6           0        3.629833    1.984236   -0.581211
     17          6           0        2.370458    2.673040   -1.107820
     18          1           0        3.226187    0.065767   -1.477534
     19          1           0        2.627696    0.230334    0.170449
     20          1           0        4.479575    2.216791   -1.235790
     21          1           0        3.880620    2.380721    0.411020
     22          1           0        1.517599    2.470246   -0.451994
     23          1           0        2.119957    2.305386   -2.108160
     24          1           0        2.501634    3.757946   -1.168106
     25          6           0        4.727845   -0.236967    0.039249
     26          6           0        4.575132   -1.755363    0.134852
     27          6           0        5.834507   -2.444167    0.661461
     28          1           0        5.577269   -0.001459   -0.616807
     29          1           0        4.978778    0.163107    1.031175
     30          1           0        4.324345   -2.151847   -0.857378
     31          1           0        3.725390   -1.987918    0.789430
     32          1           0        6.085007   -2.076512    1.661801
     33          1           0        6.687366   -2.241372    0.005635
     34          1           0        5.703331   -3.529071    0.721746
 ---------------------------------------------------------------------

 SCF Done:  E(RHF) =  -669.535499098     A.U. after   15 cycles
 E2 =    -0.2091016300D+01 EUMP2 =    -0.67162651539892D+03

 The electronic state is 1-A.
 Alpha  occ. eigenvalues --  -20.60732 -20.60726 -15.85785 -11.31148 -11.27724
 Alpha  occ. eigenvalues --  -11.27710 -11.27470 -11.26741 -11.26712 -11.22365
 Alpha  occ. eigenvalues --  -11.22110 -11.22042 -11.22028 -11.21912 -11.21416
 Alpha  occ. eigenvalues --   -1.59807  -1.39361  -1.19323  -1.09063  -1.08721
 Alpha  occ. eigenvalues --   -1.04726  -1.04155  -0.96619  -0.95555  -0.87636
 Alpha  occ. eigenvalues --   -0.86128  -0.82388  -0.80222  -0.78856  -0.77432
 Alpha  occ. eigenvalues --   -0.72004  -0.71130  -0.70436  -0.65714  -0.64976
 Alpha  occ. eigenvalues --   -0.64743  -0.62122  -0.61518  -0.59985  -0.58214
 Alpha  occ. eigenvalues --   -0.55936  -0.55231  -0.53293  -0.53119  -0.53050
 Alpha  occ. eigenvalues --   -0.52765  -0.50562  -0.48773  -0.48758  -0.48519
 Alpha  occ. eigenvalues --   -0.47249  -0.46395  -0.46308  -0.44766  -0.44399
 Alpha  occ. eigenvalues --   -0.37309  -0.36327
 Alpha virt. eigenvalues --    0.05102   0.11302   0.16577   0.19186   0.22603
 Alpha virt. eigenvalues --    0.23627   0.25147   0.26462   0.27228   0.28329
 Alpha virt. eigenvalues --    0.28882   0.29896   0.31174   0.31474   0.32187

 Mulliken charges:
               1
     1  C   -0.173109
     2  C   -0.227472
     3  C   -0.173653
     4  C    0.158746
     5  C   -0.171116
     6  C   -0.218500
     7  H    0.225736
     8  H    0.236424
     9  H    0.276329
    10  H    0.275477
    11  H    0.223202
    12  N    0.488127
    13  O   -0.460694
    14  O   -0.460360
    15  C   -0.299255
    16  C   -0.300185
    17  C   -0.480124
    18  H    0.152630
    19  H    0.143454
    20  H    0.156390
    21  H    0.152008
    22  H    0.145796
    23  H    0.159544
    24  H    0.165487
    25  C   -0.298590
    26  C   -0.300233
    27  C   -0.476097
    28  H    0.151814
    29  H    0.149454
    30  H    0.153992
    31  H    0.151550
    32  H    0.154937
    33  H    0.156189
    34  H    0.162106
 Sum of Mulliken charges =  -0.00000

 Dipole moment (field-independent basis, Debye):
    X=              3.0179    Y=              2.1782    Z=              3.7367  Tot=              5.2740
 Quadrupole moment (field-independent basis, Debye-Ang):
   XX=           -110.9750   YY=            -96.4830   ZZ=            -92.1379
   XY=             -6.5903   XZ=            -16.4579   YZ=             -1.1361

 Normal termination of Gaussian 16 at Thu May  6 16:04:48 2021.
