 Gaussian 16, Revision A.03,
 Gaussian 16:  EM64L-G16RevA.03 25-Dec-2016

 -------------
 #p 6-31g* mp2
 -------------

 ------------------------------------------------------
 Input file generated by CHIRIPA (05-May-2021 14:53:16)
 ------------------------------------------------------
 Symbolic Z-matrix:
 Charge =  0 Multiplicity = 1

                         Standard orientation:
 ---------------------------------------------------------------------
 Center     Atomic      Atomic             Coordinates (Angstroms)
 Number     Number       Type             X           Y           Z
 ---------------------------------------------------------------------
      1          6           0        3.639466    0.440843   -0.193831
      2          6           0        2.235132   -0.128311    0.010851
      3          6           0        1.135582    0.898612   -0.261565
      4          1           0        3.775732    1.309512    0.464798
      5          1           0        3.730449    0.812302   -1.223945
      6          1           0        2.147276   -0.499843    1.039861
      7          1           0        2.102261   -0.995842   -0.648203
      8          1           0        1.194697    1.261973   -1.292621
      9          1           0        1.239968    1.760790    0.405034
     10          1           0        0.139854    0.470609   -0.109254
     11          6           0        4.749448   -0.573827    0.074707
     12          6           0        6.153782   -0.004672   -0.129975
     13          6           0        7.253332   -1.031596    0.142441
     14          1           0        4.658466   -0.945286    1.104821
     15          1           0        4.613182   -1.442495   -0.583922
     16          1           0        6.286653    0.862858    0.529079
     17          1           0        6.241638    0.366860   -1.158985
     18          1           0        7.148946   -1.893773   -0.524158
     19          1           0        7.194217   -1.394956    1.173497
     20          1           0        8.249060   -0.603592   -0.009871
     21          6           0       -2.171899    2.313158    0.224777
     22          6           0       -2.387206    1.546656    1.374837
     23          6           0       -2.998577    0.292373    1.287960
     24          6           0       -3.383749   -0.166659    0.029301
     25          6           0       -3.182923    0.573441   -1.134835
     26          6           0       -2.569743    1.824966   -1.024186
     27          1           0       -1.696268    3.286445    0.301499
     28          1           0       -2.079273    1.923261    2.346119
     29          1           0       -3.177341   -0.321841    2.162148
     30          1           0       -3.500811    0.171350   -2.089134
     31          1           0       -2.403799    2.418061   -1.919030
     32          7           0       -4.031938   -1.493052   -0.075254
     33          8           0       -4.362050   -1.874943   -1.195889
     34          8           0       -4.197602   -2.125674    0.965410
 ---------------------------------------------------------------------

 SCF Done:  E(RHF) =  -669.534785337     A.U. after   15 cycles
 E2 =    -0.2092438899D+01 EUMP2 =    -0.67162722423579D+03

 The electronic state is 1-A.
 Alpha  occ. eigenvalues --  -20.60787 -20.60782 -15.85842 -11.31222 -11.27790
 Alpha  occ. eigenvalues --  -11.27782 -11.27488 -11.26768 -11.26758 -11.21809
 Alpha  occ. eigenvalues --  -11.21770 -11.21620 -11.21535 -11.21321 -11.21200
 Alpha  occ. eigenvalues --   -1.59863  -1.39416  -1.19395  -1.08783  -1.08628
 Alpha  occ. eigenvalues --   -1.04787  -1.03731  -0.96193  -0.95606  -0.87212
 Alpha  occ. eigenvalues --   -0.86179  -0.82438  -0.79803  -0.78446  -0.77490
 Alpha  occ. eigenvalues --   -0.72057  -0.71188  -0.70481  -0.65266  -0.65031
 Alpha  occ. eigenvalues --   -0.64780  -0.62131  -0.61137  -0.59596  -0.57812
 Alpha  occ. eigenvalues --   -0.55500  -0.55267  -0.53696  -0.52871  -0.52646
 Alpha  occ. eigenvalues --   -0.52226  -0.50148  -0.48818  -0.48813  -0.48110
 Alpha  occ. eigenvalues --   -0.46840  -0.45990  -0.45915  -0.44819  -0.43965
 Alpha  occ. eigenvalues --   -0.37277  -0.36399
 Alpha virt. eigenvalues --    0.05031   0.11242   0.16518   0.21239   0.22679
 Alpha virt. eigenvalues --    0.24124   0.26374   0.27129   0.27306   0.27563
 Alpha virt. eigenvalues --    0.28524   0.30656   0.31387   0.31581   0.31836

 Mulliken charges:
               1
     1  C   -0.298169
     2  C   -0.300216
     3  C   -0.478219
     4  H    0.147538
     5  H    0.148858
     6  H    0.151752
     7  H    0.154467
     8  H    0.150877
     9  H    0.145952
    10  H    0.171559
    11  C   -0.298415
    12  C   -0.299618
    13  C   -0.475809
    14  H    0.149816
    15  H    0.150987
    16  H    0.151138
    17  H    0.151756
    18  H    0.155967
    19  H    0.155456
    20  H    0.160377
    21  C   -0.166688
    22  C   -0.218536
    23  C   -0.172115
    24  C    0.158084
    25  C   -0.171622
    26  C   -0.217475
    27  H    0.226093
    28  H    0.223506
    29  H    0.275777
    30  H    0.275758
    31  H    0.223703
    32  N    0.488162
    33  O   -0.460341
    34  O   -0.460360
 Sum of Mulliken charges =  -0.00000

 Dipole moment (field-independent basis, Debye):
    X=              2.2377    Y=              4.6626    Z=              0.3628  Tot=              5.1845
 Quadrupole moment (field-independent basis, Debye-Ang):
   XX=           -111.9476   YY=            -97.2440   ZZ=            -88.8907
   XY=            -16.0341   XZ=             -0.8674   YZ=             -0.1776

 Normal termination of Gaussian 16 at Thu May  6 04:18:43 2021.
