 Gaussian 16, Revision A.03,
 Gaussian 16:  EM64L-G16RevA.03 25-Dec-2016

 -------------
 #p 6-31g* mp2
 -------------

 ------------------------------------------------------
 Input file generated by CHIRIPA (05-May-2021 14:55:25)
 ------------------------------------------------------
 Symbolic Z-matrix:
 Charge =  0 Multiplicity = 1

                         Standard orientation:
 ---------------------------------------------------------------------
 Center     Atomic      Atomic             Coordinates (Angstroms)
 Number     Number       Type             X           Y           Z
 ---------------------------------------------------------------------
      1          6           0       -2.966542    1.938928    0.852698
      2          6           0       -2.317021    1.054655    1.720284
      3          6           0       -1.880122   -0.193257    1.265990
      4          6           0       -2.110298   -0.525896   -0.068049
      5          6           0       -2.754517    0.333346   -0.956855
      6          6           0       -3.182836    1.576091   -0.480751
      7          1           0       -3.302604    2.906330    1.214076
      8          1           0       -2.147687    1.333770    2.756366
      9          1           0       -1.374711   -0.897050    1.916107
     10          1           0       -2.909013    0.026980   -1.984322
     11          1           0       -3.686994    2.260814   -1.156786
     12          7           0       -1.652314   -1.844270   -0.560534
     13          8           0       -1.867177   -2.113576   -1.740341
     14          8           0       -1.087156   -2.583342    0.242589
     15          6           0        3.179455   -0.257148   -0.128334
     16          6           0        2.640296   -1.424385    0.699222
     17          6           0        3.414134   -2.722152    0.465184
     18          1           0        3.139943   -0.522242   -1.193749
     19          1           0        4.239475   -0.102242    0.116118
     20          1           0        1.581243   -1.576154    0.454296
     21          1           0        2.680917   -1.156407    1.762779
     22          1           0        4.469252   -2.594232    0.727794
     23          1           0        3.363329   -3.016364   -0.588125
     24          1           0        3.011990   -3.543394    1.066599
     25          6           0        2.416141    1.047196    0.094750
     26          6           0        2.955300    2.214433   -0.732806
     27          6           0        2.181462    3.512198   -0.498768
     28          1           0        1.356120    0.892290   -0.149702
     29          1           0        2.455652    1.312290    1.160165
     30          1           0        2.914678    1.946455   -1.796363
     31          1           0        4.014353    2.366202   -0.487880
     32          1           0        2.232267    3.806412    0.554541
     33          1           0        1.126344    3.384279   -0.761377
     34          1           0        2.583605    4.333442   -1.100183
 ---------------------------------------------------------------------

 SCF Done:  E(RHF) =  -669.536523366     A.U. after   15 cycles
 E2 =    -0.2092255720D+01 EUMP2 =    -0.67162877908579D+03

 The electronic state is 1-A.
 Alpha  occ. eigenvalues --  -20.60995 -20.60987 -15.86004 -11.31310 -11.27864
 Alpha  occ. eigenvalues --  -11.27858 -11.27588 -11.26860 -11.26846 -11.21525
 Alpha  occ. eigenvalues --  -11.21206 -11.21155 -11.20953 -11.20859 -11.20304
 Alpha  occ. eigenvalues --   -1.60045  -1.39602  -1.19469  -1.08876  -1.08107
 Alpha  occ. eigenvalues --   -1.04856  -1.03158  -0.95722  -0.95634  -0.86656
 Alpha  occ. eigenvalues --   -0.86258  -0.82554  -0.79263  -0.77903  -0.77599
 Alpha  occ. eigenvalues --   -0.72228  -0.71357  -0.70569  -0.65124  -0.64856
 Alpha  occ. eigenvalues --   -0.64735  -0.62202  -0.60548  -0.59032  -0.57223
 Alpha  occ. eigenvalues --   -0.55359  -0.54936  -0.53193  -0.52946  -0.52320
 Alpha  occ. eigenvalues --   -0.52062  -0.49595  -0.49003  -0.48985  -0.47577
 Alpha  occ. eigenvalues --   -0.46337  -0.45582  -0.45415  -0.44675  -0.43423
 Alpha  occ. eigenvalues --   -0.37438  -0.36446
 Alpha virt. eigenvalues --    0.04889   0.11169   0.16350   0.21297   0.23051
 Alpha virt. eigenvalues --    0.24666   0.26640   0.27070   0.27586   0.28281
 Alpha virt. eigenvalues --    0.28407   0.30762   0.31700   0.31814   0.32482

 Mulliken charges:
               1
     1  C   -0.170318
     2  C   -0.217958
     3  C   -0.170202
     4  C    0.157830
     5  C   -0.171374
     6  C   -0.218822
     7  H    0.226332
     8  H    0.224230
     9  H    0.276921
    10  H    0.275750
    11  H    0.223943
    12  N    0.487268
    13  O   -0.458434
    14  O   -0.457869
    15  C   -0.298476
    16  C   -0.307521
    17  C   -0.473951
    18  H    0.151480
    19  H    0.147329
    20  H    0.166444
    21  H    0.144469
    22  H    0.149738
    23  H    0.157862
    24  H    0.163772
    25  C   -0.298216
    26  C   -0.299128
    27  C   -0.475379
    28  H    0.147788
    29  H    0.145706
    30  H    0.153094
    31  H    0.152126
    32  H    0.152796
    33  H    0.153170
    34  H    0.159601
 Sum of Mulliken charges =  -0.00000

 Dipole moment (field-independent basis, Debye):
    X=             -1.7959    Y=              4.5228    Z=              1.6947  Tot=              5.1530
 Quadrupole moment (field-independent basis, Debye-Ang):
   XX=            -88.1661   YY=           -100.9781   ZZ=            -90.3877
   XY=             -9.1332   XZ=             -1.4270   YZ=             -2.1124

 Normal termination of Gaussian 16 at Wed May  5 16:09:07 2021.
