 Gaussian 16, Revision A.03,
 Gaussian 16:  EM64L-G16RevA.03 25-Dec-2016

 -------------
 #p 6-31g* mp2
 -------------

 ------------------------------------------------------
 Input file generated by CHIRIPA (05-May-2021 14:51:12)
 ------------------------------------------------------
 Symbolic Z-matrix:
 Charge =  0 Multiplicity = 1

                         Standard orientation:
 ---------------------------------------------------------------------
 Center     Atomic      Atomic             Coordinates (Angstroms)
 Number     Number       Type             X           Y           Z
 ---------------------------------------------------------------------
      1          6           0       -2.433674    1.137927   -0.101459
      2          6           0       -2.787601    2.502300    0.491169
      3          6           0       -1.600883    3.466291    0.505796
      4          1           0       -1.608818    0.697565    0.475289
      5          1           0       -2.060009    1.276501   -1.125455
      6          1           0       -3.161790    2.361068    1.513251
      7          1           0       -3.611839    2.939380   -0.086939
      8          1           0       -1.230379    3.636622   -0.510233
      9          1           0       -0.777773    3.055024    1.099050
     10          1           0       -1.876137    4.435416    0.933454
     11          6           0       -3.609785    0.163233   -0.122938
     12          6           0       -3.255858   -1.201139   -0.715566
     13          6           0       -4.442576   -2.165130   -0.730194
     14          1           0       -3.983450    0.024660    0.901058
     15          1           0       -4.434641    0.603596   -0.699686
     16          1           0       -2.431620   -1.638220   -0.137458
     17          1           0       -2.881669   -1.059907   -1.737649
     18          1           0       -5.265687   -1.753863   -1.323447
     19          1           0       -4.813080   -2.335461    0.285836
     20          1           0       -4.167322   -3.134255   -1.157852
     21          6           0        2.320438   -0.786189    0.382814
     22          6           0        1.995146   -2.275216    0.505159
     23          6           0        0.588704   -2.530411    1.047919
     24          1           0        2.214511   -0.312074    1.368178
     25          1           0        1.580514   -0.309182   -0.274736
     26          1           0        2.736277   -2.749540    1.161178
     27          1           0        2.102047   -2.745880   -0.480571
     28          1           0       -0.164636   -2.083426    0.391196
     29          1           0        0.473197   -2.087108    2.042273
     30          1           0        0.377183   -3.601311    1.127244
     31          6           0        3.723021   -0.514971   -0.158417
     32          6           0        4.048312    0.974056   -0.280762
     33          6           0        5.454756    1.229250   -0.823521
     34          1           0        4.462944   -0.991978    0.499133
     35          1           0        3.828947   -0.989087   -1.143779
     36          1           0        3.941412    1.444719    0.704969
     37          1           0        3.307183    1.448380   -0.936781
     38          1           0        5.570263    0.785947   -1.817875
     39          1           0        6.208096    0.782265   -0.166799
     40          1           0        5.666276    2.300150   -0.902846
 ---------------------------------------------------------------------

 SCF Done:  E(RHF) =  -470.733387580     A.U. after   11 cycles
 E2 =    -0.1582951384D+01 EUMP2 =    -0.47231633896347D+03

 The electronic state is 1-A.
 Alpha  occ. eigenvalues --  -11.21613 -11.21591 -11.21589 -11.21573 -11.21405
 Alpha  occ. eigenvalues --  -11.21390 -11.21346 -11.21331 -11.21084 -11.21062
 Alpha  occ. eigenvalues --  -11.21053 -11.21052  -1.08437  -1.08411  -1.03541
 Alpha  occ. eigenvalues --   -1.03507  -0.95988  -0.95960  -0.87018  -0.86966
 Alpha  occ. eigenvalues --   -0.79645  -0.79540  -0.78298  -0.78178  -0.65110
 Alpha  occ. eigenvalues --   -0.65005  -0.61012  -0.60842  -0.59354  -0.59332
 Alpha  occ. eigenvalues --   -0.57602  -0.57567  -0.55303  -0.55227  -0.52684
 Alpha  occ. eigenvalues --   -0.52662  -0.52446  -0.52357  -0.50024  -0.49840
 Alpha  occ. eigenvalues --   -0.48026  -0.47819  -0.46771  -0.46497  -0.45968
 Alpha  occ. eigenvalues --   -0.45753  -0.45712  -0.45383  -0.43788  -0.43767
 Alpha virt. eigenvalues --    0.21334   0.23128   0.23801   0.24244   0.25571
 Alpha virt. eigenvalues --    0.26703   0.27092   0.27646   0.28014   0.29444
 Alpha virt. eigenvalues --    0.30450   0.31622   0.31696   0.31866   0.32031

 Mulliken charges:
               1
     1  C   -0.300829
     2  C   -0.299583
     3  C   -0.475789
     4  H    0.152166
     5  H    0.148764
     6  H    0.151986
     7  H    0.151920
     8  H    0.154905
     9  H    0.155747
    10  H    0.160134
    11  C   -0.297508
    12  C   -0.308547
    13  C   -0.474998
    14  H    0.149606
    15  H    0.149564
    16  H    0.160909
    17  H    0.150986
    18  H    0.155013
    19  H    0.155317
    20  H    0.160197
    21  C   -0.299510
    22  C   -0.299069
    23  C   -0.484221
    24  H    0.149078
    25  H    0.151235
    26  H    0.151939
    27  H    0.152135
    28  H    0.163198
    29  H    0.154579
    30  H    0.160438
    31  C   -0.298302
    32  C   -0.299698
    33  C   -0.475726
    34  H    0.149495
    35  H    0.149688
    36  H    0.151877
    37  H    0.152326
    38  H    0.155134
    39  H    0.155112
    40  H    0.160332
 Sum of Mulliken charges =  -0.00000

 Dipole moment (field-independent basis, Debye):
    X=              0.0052    Y=             -0.0049    Z=              0.0031  Tot=              0.0078
 Quadrupole moment (field-independent basis, Debye-Ang):
   XX=            -86.1909   YY=            -85.4659   ZZ=            -83.1589
   XY=             -1.0190   XZ=              0.8593   YZ=             -0.2331

 Normal termination of Gaussian 16 at Wed May  5 16:49:00 2021.
