 Gaussian 16, Revision A.03,
 Gaussian 16:  EM64L-G16RevA.03 25-Dec-2016

 -------------
 #p 6-31g* mp2
 -------------

 ------------------------------------------------------
 Input file generated by CHIRIPA (05-May-2021 14:53:12)
 ------------------------------------------------------
 Symbolic Z-matrix:
 Charge =  0 Multiplicity = 1

                         Standard orientation:
 ---------------------------------------------------------------------
 Center     Atomic      Atomic             Coordinates (Angstroms)
 Number     Number       Type             X           Y           Z
 ---------------------------------------------------------------------
      1          6           0        3.613479   -0.435630    0.199674
      2          6           0        4.393228    0.872447    0.337196
      3          6           0        5.501603    0.792347    1.387378
      4          1           0        3.179394   -0.700452    1.173525
      5          1           0        4.310242   -1.243934   -0.062166
      6          1           0        3.694996    1.678308    0.597342
      7          1           0        4.825348    1.134286   -0.637140
      8          1           0        6.220568    0.007967    1.129620
      9          1           0        5.083794    0.555080    2.371116
     10          1           0        6.046209    1.738160    1.469236
     11          6           0        2.502026   -0.371264   -0.846392
     12          6           0        1.722277   -1.679341   -0.983913
     13          6           0        0.613902   -1.599241   -2.034095
     14          1           0        1.805263    0.437040   -0.584552
     15          1           0        2.936111   -0.106442   -1.820242
     16          1           0        1.290157   -1.941180   -0.009578
     17          1           0        2.420509   -2.485202   -1.244060
     18          1           0        1.031711   -1.361974   -3.017834
     19          1           0       -0.105063   -0.814861   -1.776338
     20          1           0        0.069296   -2.545054   -2.115954
     21          6           0       -2.743856   -1.776932    1.617512
     22          6           0       -2.800371   -1.834180    0.221071
     23          6           0       -2.605213   -0.681284   -0.545279
     24          6           0       -2.354550    0.517452    0.120672
     25          6           0       -2.292138    0.606724    1.510429
     26          6           0       -2.490367   -0.558810    2.256608
     27          1           0       -2.896652   -2.677438    2.204996
     28          1           0       -2.997058   -2.778811   -0.277961
     29          1           0       -2.643578   -0.697160   -1.627728
     30          1           0       -2.094224    1.562909    1.979427
     31          1           0       -2.445912   -0.511369    3.340959
     32          7           0       -2.146320    1.744661   -0.679951
     33          8           0       -1.927044    2.788482   -0.069219
     34          8           0       -2.206328    1.639490   -1.903052
 ---------------------------------------------------------------------

 SCF Done:  E(RHF) =  -669.534913537     A.U. after   15 cycles
 E2 =    -0.2093034898D+01 EUMP2 =    -0.67162794843531D+03

 The electronic state is 1-A.
 Alpha  occ. eigenvalues --  -20.60878 -20.60859 -15.85908 -11.31240 -11.27831
 Alpha  occ. eigenvalues --  -11.27807 -11.27571 -11.26820 -11.26807 -11.21588
 Alpha  occ. eigenvalues --  -11.21448 -11.21304 -11.21226 -11.21026 -11.20976
 Alpha  occ. eigenvalues --   -1.59938  -1.39492  -1.19434  -1.08828  -1.08335
 Alpha  occ. eigenvalues --   -1.04833  -1.03453  -0.95923  -0.95656  -0.86945
 Alpha  occ. eigenvalues --   -0.86224  -0.82492  -0.79524  -0.78137  -0.77540
 Alpha  occ. eigenvalues --   -0.72125  -0.71266  -0.70546  -0.65081  -0.64983
 Alpha  occ. eigenvalues --   -0.64816  -0.62194  -0.60857  -0.59289  -0.57517
 Alpha  occ. eigenvalues --   -0.55395  -0.55205  -0.53150  -0.52931  -0.52608
 Alpha  occ. eigenvalues --   -0.52295  -0.49830  -0.48888  -0.48882  -0.47830
 Alpha  occ. eigenvalues --   -0.46553  -0.45683  -0.45607  -0.44861  -0.43718
 Alpha  occ. eigenvalues --   -0.37399  -0.36363
 Alpha virt. eigenvalues --    0.04979   0.11152   0.16443   0.21222   0.22914
 Alpha virt. eigenvalues --    0.24320   0.26595   0.26801   0.27493   0.28026
 Alpha virt. eigenvalues --    0.28762   0.30171   0.31501   0.31840   0.32169

 Mulliken charges:
               1
     1  C   -0.298005
     2  C   -0.300203
     3  C   -0.475557
     4  H    0.147067
     5  H    0.148475
     6  H    0.154697
     7  H    0.153197
     8  H    0.154402
     9  H    0.153529
    10  H    0.160962
    11  C   -0.298567
    12  C   -0.299643
    13  C   -0.478502
    14  H    0.152378
    15  H    0.152021
    16  H    0.149334
    17  H    0.150696
    18  H    0.158612
    19  H    0.160674
    20  H    0.150459
    21  C   -0.170891
    22  C   -0.217841
    23  C   -0.171502
    24  C    0.158969
    25  C   -0.171125
    26  C   -0.218966
    27  H    0.225988
    28  H    0.224020
    29  H    0.277849
    30  H    0.275641
    31  H    0.223556
    32  N    0.488263
    33  O   -0.459856
    34  O   -0.460131
 Sum of Mulliken charges =  -0.00000

 Dipole moment (field-independent basis, Debye):
    X=             -0.7815    Y=             -4.2439    Z=              2.8043  Tot=              5.1464
 Quadrupole moment (field-independent basis, Debye-Ang):
   XX=            -92.2721   YY=            -98.4347   ZZ=            -90.7248
   XY=             10.2752   XZ=             -7.3956   YZ=              3.4644

 Normal termination of Gaussian 16 at Wed May  5 21:43:25 2021.
