 Gaussian 16, Revision A.03,
 Gaussian 16:  EM64L-G16RevA.03 25-Dec-2016

 -------------
 #p 6-31g* mp2
 -------------

 ------------------------------------------------------
 Input file generated by CHIRIPA (05-May-2021 14:55:21)
 ------------------------------------------------------
 Symbolic Z-matrix:
 Charge =  0 Multiplicity = 1

                         Standard orientation:
 ---------------------------------------------------------------------
 Center     Atomic      Atomic             Coordinates (Angstroms)
 Number     Number       Type             X           Y           Z
 ---------------------------------------------------------------------
      1          6           0       -5.023876    0.162034   -0.492361
      2          6           0       -4.586089    0.223151    0.834714
      3          6           0       -3.258877   -0.073427    1.158902
      4          6           0       -2.392514   -0.429101    0.126332
      5          6           0       -2.798563   -0.498928   -1.205411
      6          6           0       -4.130292   -0.198175   -1.506400
      7          1           0       -6.056641    0.394044   -0.735187
      8          1           0       -5.277845    0.502597    1.624289
      9          1           0       -2.893371   -0.033996    2.177856
     10          1           0       -2.085657   -0.780623   -1.970807
     11          1           0       -4.467496   -0.246466   -2.537907
     12          7           0       -0.985063   -0.745284    0.457255
     13          8           0       -0.241492   -1.055991   -0.470754
     14          8           0       -0.652124   -0.676415    1.638375
     15          6           0        3.344765   -0.275508    0.000695
     16          6           0        4.693540   -0.944891   -0.265230
     17          6           0        4.648381   -2.461437   -0.075913
     18          1           0        3.022159   -0.509199    1.024540
     19          1           0        2.590119   -0.707503   -0.671083
     20          1           0        5.445710   -0.510785    0.405893
     21          1           0        5.013063   -0.709422   -1.288497
     22          1           0        3.918848   -2.913004   -0.755964
     23          1           0        4.353954   -2.713239    0.948054
     24          1           0        5.623001   -2.919578   -0.271064
     25          6           0        3.373902    1.240602   -0.184481
     26          6           0        2.025126    1.909985    0.081444
     27          6           0        2.070284    3.426532   -0.107873
     28          1           0        4.128546    1.672597    0.487297
     29          1           0        3.696507    1.474293   -1.208326
     30          1           0        1.705603    1.674515    1.104711
     31          1           0        1.272955    1.475880   -0.589679
     32          1           0        2.364712    3.678334   -1.131840
     33          1           0        2.799818    3.878098    0.572177
     34          1           0        1.095665    3.884673    0.087279
 ---------------------------------------------------------------------

 SCF Done:  E(RHF) =  -669.536315568     A.U. after   15 cycles
 E2 =    -0.2092513072D+01 EUMP2 =    -0.67162882863991D+03

 The electronic state is 1-A.
 Alpha  occ. eigenvalues --  -20.61046 -20.61040 -15.86047 -11.31345 -11.27904
 Alpha  occ. eigenvalues --  -11.27898 -11.27634 -11.26903 -11.26893 -11.20267
 Alpha  occ. eigenvalues --  -11.20257 -11.20161 -11.20038 -11.19855 -11.19519
 Alpha  occ. eigenvalues --   -1.60077  -1.39641  -1.19508  -1.08917  -1.06994
 Alpha  occ. eigenvalues --   -1.04900  -1.02277  -0.95765  -0.94728  -0.86302
 Alpha  occ. eigenvalues --   -0.85752  -0.82605  -0.78326  -0.77659  -0.76737
 Alpha  occ. eigenvalues --   -0.72278  -0.71371  -0.70617  -0.65167  -0.64903
 Alpha  occ. eigenvalues --   -0.63633  -0.62248  -0.59692  -0.58113  -0.56335
 Alpha  occ. eigenvalues --   -0.55405  -0.54028  -0.53233  -0.52992  -0.51501
 Alpha  occ. eigenvalues --   -0.51151  -0.49088  -0.49033  -0.48659  -0.46646
 Alpha  occ. eigenvalues --   -0.45527  -0.44988  -0.44260  -0.43973  -0.42460
 Alpha  occ. eigenvalues --   -0.37481  -0.36499
 Alpha virt. eigenvalues --    0.04841   0.11156   0.16319   0.21280   0.24254
 Alpha virt. eigenvalues --    0.25433   0.27210   0.27957   0.28203   0.28914
 Alpha virt. eigenvalues --    0.29385   0.30940   0.32325   0.32599   0.32780

 Mulliken charges:
               1
     1  C   -0.170466
     2  C   -0.218574
     3  C   -0.170442
     4  C    0.158253
     5  C   -0.170808
     6  C   -0.218496
     7  H    0.226203
     8  H    0.224017
     9  H    0.275908
    10  H    0.275451
    11  H    0.223983
    12  N    0.490723
    13  O   -0.459775
    14  O   -0.458290
    15  C   -0.304003
    16  C   -0.299129
    17  C   -0.474040
    18  H    0.155934
    19  H    0.171319
    20  H    0.146255
    21  H    0.146158
    22  H    0.156692
    23  H    0.155906
    24  H    0.153689
    25  C   -0.297597
    26  C   -0.303495
    27  C   -0.474676
    28  H    0.143570
    29  H    0.143175
    30  H    0.159105
    31  H    0.155861
    32  H    0.151202
    33  H    0.152599
    34  H    0.153784
 Sum of Mulliken charges =  -0.00000

 Dipole moment (field-independent basis, Debye):
    X=             -5.3608    Y=              0.9008    Z=             -1.1005  Tot=              5.5462
 Quadrupole moment (field-independent basis, Debye-Ang):
   XX=            -72.9304   YY=            -98.5845   ZZ=            -89.3955
   XY=             -0.9044   XZ=              1.6115   YZ=              1.9184

 Normal termination of Gaussian 16 at Thu May  6 07:46:59 2021.
