 Gaussian 16, Revision A.03,
 Gaussian 16:  EM64L-G16RevA.03 25-Dec-2016

 -------------
 #p 6-31g* mp2
 -------------

 ------------------------------------------------------
 Input file generated by CHIRIPA (05-May-2021 14:53:17)
 ------------------------------------------------------
 Symbolic Z-matrix:
 Charge =  0 Multiplicity = 1

                         Standard orientation:
 ---------------------------------------------------------------------
 Center     Atomic      Atomic             Coordinates (Angstroms)
 Number     Number       Type             X           Y           Z
 ---------------------------------------------------------------------
      1          6           0        4.405513   -0.384480    0.381493
      2          6           0        5.768012   -0.864476   -0.119692
      3          6           0        6.310524   -2.046725    0.683901
      4          1           0        4.489847   -0.102398    1.439918
      5          1           0        3.691386   -1.218366    0.336198
      6          1           0        6.479007   -0.029561   -0.074766
      7          1           0        5.680469   -1.145267   -1.177098
      8          1           0        5.623300   -2.897237    0.629558
      9          1           0        6.426375   -1.775192    1.738154
     10          1           0        7.285294   -2.373671    0.308682
     11          6           0        3.850022    0.796940   -0.411858
     12          6           0        2.487524    1.276936    0.089327
     13          6           0        1.945011    2.459185   -0.714265
     14          1           0        4.564149    1.630826   -0.366562
     15          1           0        3.765689    0.514858   -1.470282
     16          1           0        2.575067    1.557727    1.146734
     17          1           0        1.776529    0.442021    0.044402
     18          1           0        1.829160    2.187652   -1.768518
     19          1           0        2.632236    3.309697   -0.659922
     20          1           0        0.970241    2.786131   -0.339046
     21          6           0       -5.660183   -0.795045    0.193688
     22          6           0       -4.843613   -1.418313   -0.755665
     23          6           0       -3.492818   -1.074982   -0.865320
     24          6           0       -2.989376   -0.099831   -0.005717
     25          6           0       -3.777420    0.539145    0.950310
     26          6           0       -5.125422    0.179976    1.042150
     27          1           0       -6.708428   -1.067904    0.271951
     28          1           0       -5.256199   -2.175871   -1.415910
     29          1           0       -2.838134   -1.541615   -1.591310
     30          1           0       -3.337526    1.290697    1.594577
     31          1           0       -5.757220    0.665680    1.780370
     32          7           0       -1.560829    0.272021   -0.112374
     33          8           0       -1.141447    1.134186    0.656669
     34          8           0       -0.887563   -0.305727   -0.962997
 ---------------------------------------------------------------------

 SCF Done:  E(RHF) =  -669.536826581     A.U. after   15 cycles
 E2 =    -0.2092443940D+01 EUMP2 =    -0.67162927052059D+03

 The electronic state is 1-A.
 Alpha  occ. eigenvalues --  -20.61180 -20.61174 -15.86161 -11.31422 -11.27969
 Alpha  occ. eigenvalues --  -11.27965 -11.27693 -11.26957 -11.26948 -11.20640
 Alpha  occ. eigenvalues --  -11.20300 -11.20148 -11.19810 -11.19406 -11.18937
 Alpha  occ. eigenvalues --   -1.60201  -1.39761  -1.19576  -1.08994  -1.07006
 Alpha  occ. eigenvalues --   -1.04960  -1.02004  -0.95849  -0.94507  -0.86364
 Alpha  occ. eigenvalues --   -0.85555  -0.82683  -0.78178  -0.77747  -0.76693
 Alpha  occ. eigenvalues --   -0.72373  -0.71500  -0.70684  -0.65232  -0.64965
 Alpha  occ. eigenvalues --   -0.63652  -0.62307  -0.59417  -0.57982  -0.56098
 Alpha  occ. eigenvalues --   -0.55440  -0.53845  -0.53296  -0.53050  -0.51250
 Alpha  occ. eigenvalues --   -0.50956  -0.49143  -0.49001  -0.48525  -0.46462
 Alpha  occ. eigenvalues --   -0.45237  -0.45175  -0.44271  -0.44029  -0.42267
 Alpha  occ. eigenvalues --   -0.37549  -0.36556
 Alpha virt. eigenvalues --    0.04761   0.11101   0.16274   0.21237   0.24155
 Alpha virt. eigenvalues --    0.25930   0.27168   0.27991   0.28138   0.28937
 Alpha virt. eigenvalues --    0.29464   0.30830   0.32322   0.32782   0.33032

 Mulliken charges:
               1
     1  C   -0.297095
     2  C   -0.298340
     3  C   -0.474800
     4  H    0.146651
     5  H    0.150072
     6  H    0.149708
     7  H    0.150495
     8  H    0.153927
     9  H    0.153572
    10  H    0.156897
    11  C   -0.297776
    12  C   -0.300124
    13  C   -0.476928
    14  H    0.142731
    15  H    0.147213
    16  H    0.143594
    17  H    0.173731
    18  H    0.150345
    19  H    0.140962
    20  H    0.174275
    21  C   -0.170281
    22  C   -0.218604
    23  C   -0.170485
    24  C    0.159278
    25  C   -0.170600
    26  C   -0.218595
    27  H    0.226477
    28  H    0.224266
    29  H    0.276009
    30  H    0.276100
    31  H    0.224302
    32  N    0.488803
    33  O   -0.457360
    34  O   -0.458417
 Sum of Mulliken charges =  -0.00000

 Dipole moment (field-independent basis, Debye):
    X=             -5.6474    Y=             -1.4010    Z=              0.3986  Tot=              5.8322
 Quadrupole moment (field-independent basis, Debye-Ang):
   XX=            -67.0417   YY=            -93.7065   ZZ=            -92.3765
   XY=              4.5851   XZ=             -1.5950   YZ=              3.9315

 Normal termination of Gaussian 16 at Thu May  6 12:18:28 2021.
