 Gaussian 16, Revision A.03,
 Gaussian 16:  EM64L-G16RevA.03 25-Dec-2016

 -------------
 #p 6-31g* mp2
 -------------

 ------------------------------------------------------
 Input file generated by CHIRIPA (05-May-2021 14:55:23)
 ------------------------------------------------------
 Symbolic Z-matrix:
 Charge =  0 Multiplicity = 1

                         Standard orientation:
 ---------------------------------------------------------------------
 Center     Atomic      Atomic             Coordinates (Angstroms)
 Number     Number       Type             X           Y           Z
 ---------------------------------------------------------------------
      1          6           0        2.061359   -1.974726    1.827235
      2          6           0        1.805159   -0.617210    2.046400
      3          6           0        2.012544    0.317920    1.028033
      4          6           0        2.478924   -0.141392   -0.202744
      5          6           0        2.743388   -1.487224   -0.451912
      6          6           0        2.528832   -2.404642    0.580976
      7          1           0        1.897472   -2.694278    2.623967
      8          1           0        1.442056   -0.280467    3.013253
      9          1           0        1.822325    1.374770    1.170518
     10          1           0        3.104738   -1.792719   -1.426344
     11          1           0        2.728652   -3.458288    0.407920
     12          7           0        2.702269    0.839213   -1.288530
     13          8           0        3.113665    0.409072   -2.363876
     14          8           0        2.461702    2.019385   -1.043663
     15          6           0       -2.455535    0.748325    0.094426
     16          6           0       -2.532389    2.028291    0.927351
     17          6           0       -1.183395    2.738140    1.046198
     18          1           0       -1.720246    0.068254    0.545867
     19          1           0       -2.079720    0.993820   -0.908515
     20          1           0       -2.909257    1.780660    1.927984
     21          1           0       -3.267720    2.705315    0.473983
     22          1           0       -0.804485    3.013517    0.056655
     23          1           0       -0.443986    2.083610    1.518918
     24          1           0       -1.261286    3.650541    1.645630
     25          6           0       -3.796277    0.027374   -0.033514
     26          6           0       -3.719423   -1.252592   -0.866440
     27          6           0       -5.068416   -1.962442   -0.985287
     28          1           0       -4.172092   -0.218120    0.969427
     29          1           0       -4.531566    0.707445   -0.484956
     30          1           0       -2.984092   -1.929615   -0.413071
     31          1           0       -3.342555   -1.004961   -1.867073
     32          1           0       -5.807826   -1.307911   -1.458006
     33          1           0       -5.447327   -2.237818    0.004256
     34          1           0       -4.990526   -2.874842   -1.584719
 ---------------------------------------------------------------------

 SCF Done:  E(RHF) =  -669.535485764     A.U. after   15 cycles
 E2 =    -0.2092058695D+01 EUMP2 =    -0.67162754445901D+03

 The electronic state is 1-A.
 Alpha  occ. eigenvalues --  -20.60777 -20.60770 -15.85826 -11.31190 -11.27779
 Alpha  occ. eigenvalues --  -11.27750 -11.27532 -11.26803 -11.26787 -11.21661
 Alpha  occ. eigenvalues --  -11.21656 -11.21442 -11.21367 -11.21146 -11.21114
 Alpha  occ. eigenvalues --   -1.59847  -1.39400  -1.19379  -1.08772  -1.08476
 Alpha  occ. eigenvalues --   -1.04789  -1.03587  -0.96040  -0.95603  -0.87059
 Alpha  occ. eigenvalues --   -0.86178  -0.82439  -0.79656  -0.78288  -0.77475
 Alpha  occ. eigenvalues --   -0.72046  -0.71168  -0.70496  -0.65124  -0.65026
 Alpha  occ. eigenvalues --   -0.64792  -0.62175  -0.60972  -0.59399  -0.57642
 Alpha  occ. eigenvalues --   -0.55401  -0.55222  -0.53119  -0.52939  -0.52727
 Alpha  occ. eigenvalues --   -0.52385  -0.49974  -0.48806  -0.48795  -0.47956
 Alpha  occ. eigenvalues --   -0.46681  -0.45829  -0.45744  -0.44797  -0.43835
 Alpha  occ. eigenvalues --   -0.37359  -0.36360
 Alpha virt. eigenvalues --    0.05015   0.11246   0.16452   0.20897   0.22861
 Alpha virt. eigenvalues --    0.24209   0.25878   0.26764   0.27545   0.27848
 Alpha virt. eigenvalues --    0.29089   0.30710   0.31569   0.31708   0.32068

 Mulliken charges:
               1
     1  C   -0.170698
     2  C   -0.220794
     3  C   -0.170630
     4  C    0.157662
     5  C   -0.170612
     6  C   -0.218626
     7  H    0.225645
     8  H    0.223616
     9  H    0.280322
    10  H    0.275685
    11  H    0.223523
    12  N    0.488050
    13  O   -0.460519
    14  O   -0.460187
    15  C   -0.300188
    16  C   -0.299754
    17  C   -0.478257
    18  H    0.147617
    19  H    0.154247
    20  H    0.148549
    21  H    0.154128
    22  H    0.170024
    23  H    0.141671
    24  H    0.160462
    25  C   -0.298144
    26  C   -0.299611
    27  C   -0.475656
    28  H    0.147443
    29  H    0.150841
    30  H    0.149747
    31  H    0.154305
    32  H    0.156199
    33  H    0.153948
    34  H    0.159993
 Sum of Mulliken charges =  -0.00000

 Dipole moment (field-independent basis, Debye):
    X=             -0.7695    Y=             -3.3992    Z=              3.7109  Tot=              5.0909
 Quadrupole moment (field-independent basis, Debye-Ang):
   XX=            -99.8413   YY=            -91.2169   ZZ=            -94.3650
   XY=            -10.6604   XZ=              8.8993   YZ=              1.9044

 Normal termination of Gaussian 16 at Thu May  6 17:39:32 2021.
