 Gaussian 16, Revision A.03,
 Gaussian 16:  EM64L-G16RevA.03 25-Dec-2016

 -------------
 #p 6-31g* mp2
 -------------

 ------------------------------------------------------
 Input file generated by CHIRIPA (05-May-2021 14:53:13)
 ------------------------------------------------------
 Symbolic Z-matrix:
 Charge =  0 Multiplicity = 1

                         Standard orientation:
 ---------------------------------------------------------------------
 Center     Atomic      Atomic             Coordinates (Angstroms)
 Number     Number       Type             X           Y           Z
 ---------------------------------------------------------------------
      1          6           0       -2.779128    0.886220   -0.249127
      2          6           0       -2.727651    2.352089    0.182800
      3          6           0       -1.333810    2.963120    0.035686
      4          1           0       -2.059436    0.309254    0.347614
      5          1           0       -2.451884    0.807716   -1.295141
      6          1           0       -3.056215    2.427975    1.227263
      7          1           0       -3.447686    2.925598   -0.414907
      8          1           0       -1.000866    2.916753   -1.006235
      9          1           0       -0.607171    2.416303    0.645265
     10          1           0       -1.319786    4.011391    0.349997
     11          6           0       -4.165974    0.261375   -0.107867
     12          6           0       -4.217450   -1.204495   -0.539794
     13          6           0       -5.611291   -1.815525   -0.392680
     14          1           0       -4.493217    0.339879    0.938147
     15          1           0       -4.885666    0.838340   -0.704608
     16          1           0       -3.497415   -1.778003    0.057913
     17          1           0       -3.888887   -1.280381   -1.584257
     18          1           0       -6.337931   -1.268708   -1.002260
     19          1           0       -5.944235   -1.769158    0.649241
     20          1           0       -5.625316   -2.863796   -0.706992
     21          6           0        4.757011    0.764330   -0.707448
     22          6           0        4.620252   -0.611161   -0.921553
     23          6           0        3.491921   -1.293347   -0.456749
     24          6           0        2.515316   -0.565510    0.221326
     25          6           0        2.622696    0.805379    0.450287
     26          6           0        3.759555    1.466971   -0.023417
     27          1           0        5.636838    1.286270   -1.071976
     28          1           0        5.393299   -1.159411   -1.452462
     29          1           0        3.360567   -2.357806   -0.608701
     30          1           0        1.835337    1.324831    0.982877
     31          1           0        3.863093    2.535238    0.144306
     32          7           0        1.316289   -1.276808    0.718104
     33          8           0        0.470038   -0.612728    1.312657
     34          8           0        1.245447   -2.484935    0.503519
 ---------------------------------------------------------------------

 SCF Done:  E(RHF) =  -669.536461897     A.U. after   15 cycles
 E2 =    -0.2091881784D+01 EUMP2 =    -0.67162834368106D+03

 The electronic state is 1-A.
 Alpha  occ. eigenvalues --  -20.60995 -20.60990 -15.86012 -11.31282 -11.27843
 Alpha  occ. eigenvalues --  -11.27832 -11.27574 -11.26842 -11.26826 -11.20956
 Alpha  occ. eigenvalues --  -11.20730 -11.20647 -11.20482 -11.20296 -11.20275
 Alpha  occ. eigenvalues --   -1.60044  -1.39603  -1.19447  -1.08862  -1.07556
 Alpha  occ. eigenvalues --   -1.04836  -1.02793  -0.95713  -0.95260  -0.86307
 Alpha  occ. eigenvalues --   -0.86228  -0.82551  -0.78856  -0.77625  -0.77316
 Alpha  occ. eigenvalues --   -0.72244  -0.71346  -0.70561  -0.65108  -0.64844
 Alpha  occ. eigenvalues --   -0.64168  -0.62194  -0.60188  -0.58632  -0.56863
 Alpha  occ. eigenvalues --   -0.55349  -0.54551  -0.53170  -0.52934  -0.52010
 Alpha  occ. eigenvalues --   -0.51694  -0.49262  -0.48998  -0.48947  -0.47183
 Alpha  occ. eigenvalues --   -0.45883  -0.45252  -0.44889  -0.44456  -0.42999
 Alpha  occ. eigenvalues --   -0.37424  -0.36431
 Alpha virt. eigenvalues --    0.04873   0.11202   0.16356   0.20810   0.23654
 Alpha virt. eigenvalues --    0.24470   0.26064   0.27528   0.27803   0.28796
 Alpha virt. eigenvalues --    0.29261   0.30466   0.31517   0.32238   0.32607

 Mulliken charges:
               1
     1  C   -0.311834
     2  C   -0.296701
     3  C   -0.481421
     4  H    0.178960
     5  H    0.143101
     6  H    0.152202
     7  H    0.148296
     8  H    0.151815
     9  H    0.158785
    10  H    0.155541
    11  C   -0.297186
    12  C   -0.301300
    13  C   -0.475281
    14  H    0.148917
    15  H    0.144436
    16  H    0.162587
    17  H    0.148937
    18  H    0.151787
    19  H    0.154520
    20  H    0.159068
    21  C   -0.170307
    22  C   -0.218806
    23  C   -0.170264
    24  C    0.156878
    25  C   -0.171939
    26  C   -0.220062
    27  H    0.226003
    28  H    0.223728
    29  H    0.275695
    30  H    0.281057
    31  H    0.224491
    32  N    0.489787
    33  O   -0.463146
    34  O   -0.458348
 Sum of Mulliken charges =  -0.00000

 Dipole moment (field-independent basis, Debye):
    X=              4.4518    Y=              2.3181    Z=             -1.6469  Tot=              5.2825
 Quadrupole moment (field-independent basis, Debye-Ang):
   XX=            -75.0041   YY=            -94.8480   ZZ=            -94.8059
   XY=              1.9543   XZ=             -4.5353   YZ=              3.1802

 Normal termination of Gaussian 16 at Thu May  6 17:02:15 2021.
