 Gaussian 16, Revision A.03,
 Gaussian 16:  EM64L-G16RevA.03 25-Dec-2016

 -------------
 #p 6-31g* mp2
 -------------

 ------------------------------------------------------
 Input file generated by CHIRIPA (05-May-2021 14:55:24)
 ------------------------------------------------------
 Symbolic Z-matrix:
 Charge =  0 Multiplicity = 1

                         Standard orientation:
 ---------------------------------------------------------------------
 Center     Atomic      Atomic             Coordinates (Angstroms)
 Number     Number       Type             X           Y           Z
 ---------------------------------------------------------------------
      1          6           0       -4.150778   -1.328449    0.850108
      2          6           0       -3.423168   -1.534928   -0.326528
      3          6           0       -2.587162   -0.533513   -0.829331
      4          6           0       -2.502198    0.667559   -0.126838
      5          6           0       -3.214415    0.903449    1.048063
      6          6           0       -4.044266   -0.112065    1.532445
      7          1           0       -4.797817   -2.111848    1.233542
      8          1           0       -3.503930   -2.478585   -0.858537
      9          1           0       -2.012649   -0.666740   -1.737958
     10          1           0       -3.113290    1.854700    1.556308
     11          1           0       -4.608161    0.051080    2.446475
     12          7           0       -1.620413    1.735175   -0.649382
     13          8           0       -1.562966    2.784400   -0.011838
     14          8           0       -1.003413    1.502531   -1.686603
     15          6           0        4.055426   -0.530180    0.411660
     16          6           0        4.726221    0.805260    0.088212
     17          6           0        6.058825    0.988785    0.815041
     18          1           0        3.895727   -0.599811    1.496369
     19          1           0        4.736648   -1.349353    0.142795
     20          1           0        4.043386    1.621636    0.356323
     21          1           0        4.884168    0.871801   -0.995874
     22          1           0        6.760366    0.194659    0.539716
     23          1           0        5.914807    0.948753    1.899595
     24          1           0        6.521039    1.949979    0.569430
     25          6           0        2.722242   -0.728324   -0.307425
     26          6           0        2.051446   -2.063764    0.016023
     27          6           0        0.718842   -2.247289   -0.710807
     28          1           0        2.041020    0.090849   -0.038561
     29          1           0        2.881941   -0.658694   -1.392134
     30          1           0        1.893499   -2.130305    1.100108
     31          1           0        2.734282   -2.880139   -0.252088
     32          1           0        0.862861   -2.207257   -1.795361
     33          1           0        0.017302   -1.453163   -0.435482
     34          1           0        0.256629   -3.208483   -0.465195
 ---------------------------------------------------------------------

 SCF Done:  E(RHF) =  -669.534973658     A.U. after   15 cycles
 E2 =    -0.2092514701D+01 EUMP2 =    -0.67162748835825D+03

 The electronic state is 1-A.
 Alpha  occ. eigenvalues --  -20.60840 -20.60818 -15.85874 -11.31212 -11.27795
 Alpha  occ. eigenvalues --  -11.27756 -11.27530 -11.26791 -11.26770 -11.21401
 Alpha  occ. eigenvalues --  -11.21092 -11.21003 -11.20970 -11.20884 -11.20658
 Alpha  occ. eigenvalues --   -1.59902  -1.39455  -1.19400  -1.08793  -1.08040
 Alpha  occ. eigenvalues --   -1.04797  -1.03211  -0.95710  -0.95601  -0.86725
 Alpha  occ. eigenvalues --   -0.86182  -0.82456  -0.79286  -0.77823  -0.77496
 Alpha  occ. eigenvalues --   -0.72089  -0.71230  -0.70507  -0.65044  -0.64803
 Alpha  occ. eigenvalues --   -0.64664  -0.62151  -0.60617  -0.59047  -0.57279
 Alpha  occ. eigenvalues --   -0.55310  -0.55004  -0.53178  -0.52898  -0.52389
 Alpha  occ. eigenvalues --   -0.52030  -0.49609  -0.48851  -0.48847  -0.47590
 Alpha  occ. eigenvalues --   -0.46301  -0.45394  -0.45295  -0.44795  -0.43450
 Alpha  occ. eigenvalues --   -0.37372  -0.36330
 Alpha virt. eigenvalues --    0.05012   0.11188   0.16493   0.21293   0.23208
 Alpha virt. eigenvalues --    0.24553   0.26687   0.27067   0.27723   0.28151
 Alpha virt. eigenvalues --    0.28903   0.30778   0.31632   0.31879   0.32231

 Mulliken charges:
               1
     1  C   -0.170697
     2  C   -0.217952
     3  C   -0.172726
     4  C    0.158496
     5  C   -0.171035
     6  C   -0.218659
     7  H    0.225777
     8  H    0.224273
     9  H    0.279158
    10  H    0.275541
    11  H    0.223461
    12  N    0.488085
    13  O   -0.460442
    14  O   -0.459962
    15  C   -0.298400
    16  C   -0.300165
    17  C   -0.475603
    18  H    0.147671
    19  H    0.147230
    20  H    0.156747
    21  H    0.153034
    22  H    0.153410
    23  H    0.153915
    24  H    0.160506
    25  C   -0.298838
    26  C   -0.299059
    27  C   -0.480645
    28  H    0.156275
    29  H    0.152397
    30  H    0.150147
    31  H    0.150424
    32  H    0.155706
    33  H    0.158629
    34  H    0.153300
 Sum of Mulliken charges =  -0.00000

 Dipole moment (field-independent basis, Debye):
    X=             -3.1707    Y=             -3.6535    Z=              1.7926  Tot=              5.1590
 Quadrupole moment (field-independent basis, Debye-Ang):
   XX=            -80.4087   YY=            -98.7632   ZZ=            -92.1835
   XY=              6.4730   XZ=             -6.4593   YZ=              4.5257

 Normal termination of Gaussian 16 at Thu May  6 17:39:47 2021.
