 Gaussian 16, Revision A.03,
 Gaussian 16:  EM64L-G16RevA.03 25-Dec-2016

 -------------
 #p 6-31g* mp2
 -------------

 ------------------------------------------------------
 Input file generated by CHIRIPA (05-May-2021 14:51:11)
 ------------------------------------------------------
 Symbolic Z-matrix:
 Charge =  0 Multiplicity = 1

                         Standard orientation:
 ---------------------------------------------------------------------
 Center     Atomic      Atomic             Coordinates (Angstroms)
 Number     Number       Type             X           Y           Z
 ---------------------------------------------------------------------
      1          6           0        2.427166   -0.987545    0.374009
      2          6           0        1.196548   -0.364696    1.034027
      3          6           0        0.088028   -1.384005    1.298579
      4          1           0        2.128444   -1.460256   -0.571641
      5          1           0        2.812379   -1.790967    1.017064
      6          1           0        0.814591    0.438233    0.390575
      7          1           0        1.498269    0.106752    1.978122
      8          1           0        0.446378   -2.180132    1.959160
      9          1           0       -0.241185   -1.846768    0.362593
     10          1           0       -0.782121   -0.917358    1.770746
     11          6           0        3.544037    0.018923    0.103179
     12          6           0        4.774655   -0.603926   -0.556838
     13          6           0        5.883175    0.415382   -0.821391
     14          1           0        3.158824    0.822345   -0.539876
     15          1           0        3.842759    0.491633    1.048830
     16          1           0        4.472934   -1.075375   -1.500934
     17          1           0        5.156612   -1.406855    0.086613
     18          1           0        6.212388    0.878146    0.114595
     19          1           0        5.524826    1.211510   -1.481972
     20          1           0        6.753325   -0.051265   -1.293557
     21          6           0       -2.560750    1.062109   -0.501430
     22          6           0       -2.410567    2.208461    0.499224
     23          6           0       -1.557972    3.356909   -0.041095
     24          1           0       -1.564282    0.685809   -0.770495
     25          1           0       -3.009185    1.448962   -1.426981
     26          1           0       -1.963822    1.819286    1.423117
     27          1           0       -3.407517    2.581949    0.766083
     28          1           0       -2.003345    3.772431   -0.950813
     29          1           0       -0.551448    3.005435   -0.290046
     30          1           0       -1.463690    4.165552    0.690388
     31          6           0       -3.410454   -0.093487    0.024241
     32          6           0       -3.560637   -1.239838   -0.976412
     33          6           0       -4.413232   -2.388286   -0.436093
     34          1           0       -2.962018   -0.480340    0.949792
     35          1           0       -4.406921    0.282814    0.293306
     36          1           0       -2.563687   -1.613327   -1.243272
     37          1           0       -4.007381   -0.850663   -1.900305
     38          1           0       -5.419756   -2.036812   -0.187142
     39          1           0       -3.967858   -2.803809    0.473624
     40          1           0       -4.507513   -3.196929   -1.167576
 ---------------------------------------------------------------------

 SCF Done:  E(RHF) =  -470.732666684     A.U. after   11 cycles
 E2 =    -0.1584605613D+01 EUMP2 =    -0.47231727229699D+03

 The electronic state is 1-A.
 Alpha  occ. eigenvalues --  -11.21698 -11.21637 -11.21590 -11.21562 -11.21468
 Alpha  occ. eigenvalues --  -11.21405 -11.21351 -11.21279 -11.21164 -11.21095
 Alpha  occ. eigenvalues --  -11.21073 -11.21028  -1.08513  -1.08380  -1.03600
 Alpha  occ. eigenvalues --   -1.03501  -0.96073  -0.95926  -0.87078  -0.86958
 Alpha  occ. eigenvalues --   -0.79668  -0.79567  -0.78318  -0.78204  -0.65344
 Alpha  occ. eigenvalues --   -0.64899  -0.60990  -0.60896  -0.59412  -0.59317
 Alpha  occ. eigenvalues --   -0.57674  -0.57548  -0.55420  -0.55145  -0.52764
 Alpha  occ. eigenvalues --   -0.52651  -0.52482  -0.52345  -0.50043  -0.49836
 Alpha  occ. eigenvalues --   -0.48022  -0.47885  -0.46773  -0.46524  -0.45948
 Alpha  occ. eigenvalues --   -0.45792  -0.45716  -0.45526  -0.43801  -0.43736
 Alpha virt. eigenvalues --    0.19320   0.22837   0.23232   0.24906   0.24974
 Alpha virt. eigenvalues --    0.26093   0.27056   0.27492   0.28245   0.29952
 Alpha virt. eigenvalues --    0.30354   0.31425   0.31586   0.32017   0.32331

 Mulliken charges:
               1
     1  C   -0.298425
     2  C   -0.304891
     3  C   -0.481808
     4  H    0.149625
     5  H    0.149958
     6  H    0.155966
     7  H    0.152544
     8  H    0.155765
     9  H    0.156916
    10  H    0.164528
    11  C   -0.298348
    12  C   -0.299712
    13  C   -0.475770
    14  H    0.149425
    15  H    0.149898
    16  H    0.152047
    17  H    0.152025
    18  H    0.155261
    19  H    0.155341
    20  H    0.160392
    21  C   -0.302138
    22  C   -0.300644
    23  C   -0.476976
    24  H    0.153348
    25  H    0.149433
    26  H    0.152675
    27  H    0.152137
    28  H    0.155153
    29  H    0.155697
    30  H    0.160430
    31  C   -0.301244
    32  C   -0.300944
    33  C   -0.475968
    34  H    0.153922
    35  H    0.149212
    36  H    0.152722
    37  H    0.151620
    38  H    0.155015
    39  H    0.155900
    40  H    0.159913
 Sum of Mulliken charges =  -0.00000

 Dipole moment (field-independent basis, Debye):
    X=              0.0323    Y=             -0.0128    Z=              0.0193  Tot=              0.0397
 Quadrupole moment (field-independent basis, Debye-Ang):
   XX=            -85.1079   YY=            -85.7819   ZZ=            -83.8937
   XY=             -1.5331   XZ=              1.0285   YZ=              0.0164

 Normal termination of Gaussian 16 at Wed May  5 23:07:11 2021.
