 Gaussian 16, Revision A.03,
 Gaussian 16:  EM64L-G16RevA.03 25-Dec-2016

 -------------
 #p 6-31g* mp2
 -------------

 ------------------------------------------------------
 Input file generated by CHIRIPA (05-May-2021 14:55:25)
 ------------------------------------------------------
 Symbolic Z-matrix:
 Charge =  0 Multiplicity = 1

                         Standard orientation:
 ---------------------------------------------------------------------
 Center     Atomic      Atomic             Coordinates (Angstroms)
 Number     Number       Type             X           Y           Z
 ---------------------------------------------------------------------
      1          6           0       -0.241606   -1.844337    0.901703
      2          6           0       -0.446768   -1.719840   -0.476314
      3          6           0       -1.564556   -1.039995   -0.969171
      4          6           0       -2.460983   -0.494495   -0.051490
      5          6           0       -2.284216   -0.601719    1.327113
      6          6           0       -1.159367   -1.285864    1.797439
      7          1           0        0.629462   -2.374127    1.275815
      8          1           0        0.264317   -2.152548   -1.174288
      9          1           0       -1.747776   -0.928776   -2.030999
     10          1           0       -3.010565   -0.159732    1.998294
     11          1           0       -1.002592   -1.380995    2.868148
     12          7           0       -3.648074    0.227502   -0.561330
     13          8           0       -4.423049    0.699104    0.267913
     14          8           0       -3.781062    0.308131   -1.780530
     15          6           0        3.647758    0.632375   -0.022628
     16          6           0        3.990225   -0.780238   -0.497207
     17          6           0        5.490652   -1.071084   -0.453378
     18          1           0        4.182439    1.361632   -0.646523
     19          1           0        4.018497    0.767078    1.002947
     20          1           0        3.617731   -0.912699   -1.521081
     21          1           0        3.454517   -1.506212    0.127768
     22          1           0        5.873707   -0.966415    0.566875
     23          1           0        6.037848   -0.369529   -1.091343
     24          1           0        5.713015   -2.086218   -0.796771
     25          6           0        2.151503    0.938157   -0.060668
     26          6           0        1.809036    2.350770    0.413911
     27          6           0        0.308609    2.641615    0.370081
     28          1           0        1.780764    0.803454   -1.086243
     29          1           0        1.616823    0.208899    0.563226
     30          1           0        2.344744    3.076744   -0.211065
     31          1           0        2.181531    2.483230    1.437785
     32          1           0       -0.238586    1.940060    1.008046
     33          1           0       -0.074445    2.536946   -0.650171
     34          1           0        0.086247    3.656749    0.713474
 ---------------------------------------------------------------------

 SCF Done:  E(RHF) =  -669.534303961     A.U. after   15 cycles
 E2 =    -0.2095044749D+01 EUMP2 =    -0.67162934870996D+03

 The electronic state is 1-A.
 Alpha  occ. eigenvalues --  -20.60783 -20.60778 -15.85838 -11.31240 -11.27821
 Alpha  occ. eigenvalues --  -11.27781 -11.27533 -11.26858 -11.26794 -11.22387
 Alpha  occ. eigenvalues --  -11.21869 -11.21790 -11.21697 -11.21612 -11.21068
 Alpha  occ. eigenvalues --   -1.59857  -1.39410  -1.19421  -1.08914  -1.08769
 Alpha  occ. eigenvalues --   -1.04823  -1.03933  -0.96351  -0.95639  -0.87367
 Alpha  occ. eigenvalues --   -0.86219  -0.82467  -0.80042  -0.78680  -0.77500
 Alpha  occ. eigenvalues --   -0.72057  -0.71177  -0.70536  -0.65523  -0.65067
 Alpha  occ. eigenvalues --   -0.64818  -0.62165  -0.61348  -0.59753  -0.57972
 Alpha  occ. eigenvalues --   -0.55639  -0.55327  -0.53302  -0.53019  -0.52907
 Alpha  occ. eigenvalues --   -0.52785  -0.50311  -0.48819  -0.48809  -0.48309
 Alpha  occ. eigenvalues --   -0.47099  -0.46157  -0.46092  -0.44809  -0.44171
 Alpha  occ. eigenvalues --   -0.37267  -0.36385
 Alpha virt. eigenvalues --    0.04978   0.11182   0.16365   0.20009   0.22889
 Alpha virt. eigenvalues --    0.23798   0.25393   0.25893   0.27413   0.27925
 Alpha virt. eigenvalues --    0.29408   0.30235   0.31340   0.31423   0.31734

 Mulliken charges:
               1
     1  C   -0.176140
     2  C   -0.210771
     3  C   -0.171829
     4  C    0.162308
     5  C   -0.172638
     6  C   -0.218258
     7  H    0.227030
     8  H    0.225278
     9  H    0.275556
    10  H    0.276125
    11  H    0.223886
    12  N    0.488024
    13  O   -0.460172
    14  O   -0.460466
    15  C   -0.297900
    16  C   -0.298703
    17  C   -0.475525
    18  H    0.151943
    19  H    0.149149
    20  H    0.150372
    21  H    0.141024
    22  H    0.156237
    23  H    0.158422
    24  H    0.159913
    25  C   -0.302587
    26  C   -0.299561
    27  C   -0.478836
    28  H    0.146529
    29  H    0.154307
    30  H    0.152488
    31  H    0.149853
    32  H    0.156401
    33  H    0.156737
    34  H    0.161805
 Sum of Mulliken charges =  -0.00000

 Dipole moment (field-independent basis, Debye):
    X=              4.1261    Y=             -2.5374    Z=              1.7745  Tot=              5.1587
 Quadrupole moment (field-independent basis, Debye-Ang):
   XX=           -116.6453   YY=            -92.8526   ZZ=            -89.6903
   XY=              4.4031   XZ=             -6.4040   YZ=             -0.2024

 Normal termination of Gaussian 16 at Thu May  6 01:38:07 2021.
