 Gaussian 16, Revision A.03,
 Gaussian 16:  EM64L-G16RevA.03 25-Dec-2016

 -------------
 #p 6-31g* mp2
 -------------

 ------------------------------------------------------
 Input file generated by CHIRIPA (05-May-2021 14:53:13)
 ------------------------------------------------------
 Symbolic Z-matrix:
 Charge =  0 Multiplicity = 1

                         Standard orientation:
 ---------------------------------------------------------------------
 Center     Atomic      Atomic             Coordinates (Angstroms)
 Number     Number       Type             X           Y           Z
 ---------------------------------------------------------------------
      1          6           0       -4.321785    0.080399    0.568561
      2          6           0       -3.091235   -0.422888   -0.186710
      3          6           0       -1.804116   -0.295501    0.628699
      4          1           0       -4.166961    1.130931    0.850262
      5          1           0       -4.423534   -0.482977    1.506457
      6          1           0       -2.992629    0.140323   -1.123559
      7          1           0       -3.249086   -1.472288   -0.466813
      8          1           0       -1.877316   -0.871836    1.556644
      9          1           0       -1.619401    0.749938    0.896166
     10          1           0       -0.936981   -0.661009    0.069825
     11          6           0       -5.616281   -0.040408   -0.233571
     12          6           0       -6.846831    0.462879    0.521699
     13          6           0       -8.133950    0.335492   -0.293709
     14          1           0       -5.514532    0.522968   -1.171467
     15          1           0       -5.771105   -1.090940   -0.515272
     16          1           0       -6.688980    1.512279    0.801803
     17          1           0       -6.945437   -0.100332    1.458549
     18          1           0       -8.318665   -0.709947   -0.561176
     19          1           0       -8.060750    0.911827   -1.221654
     20          1           0       -9.001085    0.701000    0.265165
     21          6           0        6.211024    0.708499    0.515278
     22          6           0        5.290390    1.650502    0.044550
     23          6           0        3.997224    1.260603   -0.316351
     24          6           0        3.656901   -0.085627   -0.193321
     25          6           0        4.551640   -1.047852    0.272356
     26          6           0        5.839366   -0.635303    0.627480
     27          1           0        7.213473    1.020180    0.793390
     28          1           0        5.576253    2.694797   -0.043628
     29          1           0        3.264637    1.968971   -0.683703
     30          1           0        4.237471   -2.081678    0.349302
     31          1           0        6.552260   -1.369066    0.992746
     32          7           0        2.290764   -0.510384   -0.572333
     33          8           0        2.015597   -1.702476   -0.454696
     34          8           0        1.521020    0.356824   -0.979863
 ---------------------------------------------------------------------

 SCF Done:  E(RHF) =  -669.536653830     A.U. after   15 cycles
 E2 =    -0.2091209827D+01 EUMP2 =    -0.67162786365657D+03

 The electronic state is 1-A.
 Alpha  occ. eigenvalues --  -20.61022 -20.61014 -15.86019 -11.31324 -11.27879
 Alpha  occ. eigenvalues --  -11.27875 -11.27613 -11.26880 -11.26870 -11.20958
 Alpha  occ. eigenvalues --  -11.20569 -11.20534 -11.20363 -11.20235 -11.19248
 Alpha  occ. eigenvalues --   -1.60059  -1.39615  -1.19485  -1.08895  -1.07481
 Alpha  occ. eigenvalues --   -1.04877  -1.02477  -0.95741  -0.94906  -0.86278
 Alpha  occ. eigenvalues --   -0.85929  -0.82574  -0.78592  -0.77633  -0.77254
 Alpha  occ. eigenvalues --   -0.72229  -0.71365  -0.70594  -0.65139  -0.64881
 Alpha  occ. eigenvalues --   -0.64127  -0.62223  -0.59891  -0.58337  -0.56490
 Alpha  occ. eigenvalues --   -0.55381  -0.54226  -0.53211  -0.52968  -0.51582
 Alpha  occ. eigenvalues --   -0.51355  -0.49006  -0.48974  -0.48857  -0.46857
 Alpha  occ. eigenvalues --   -0.45667  -0.45029  -0.44793  -0.44705  -0.42673
 Alpha  occ. eigenvalues --   -0.37461  -0.36475
 Alpha virt. eigenvalues --    0.04881   0.11181   0.16386   0.21318   0.23738
 Alpha virt. eigenvalues --    0.25463   0.27237   0.27532   0.28198   0.28388
 Alpha virt. eigenvalues --    0.29171   0.30873   0.32371   0.32443   0.32624

 Mulliken charges:
               1
     1  C   -0.297034
     2  C   -0.298838
     3  C   -0.484461
     4  H    0.146910
     5  H    0.146706
     6  H    0.152373
     7  H    0.149860
     8  H    0.145187
     9  H    0.148261
    10  H    0.190162
    11  C   -0.297422
    12  C   -0.298789
    13  C   -0.475160
    14  H    0.148649
    15  H    0.148686
    16  H    0.150551
    17  H    0.150676
    18  H    0.154568
    19  H    0.154483
    20  H    0.158042
    21  C   -0.170463
    22  C   -0.218610
    23  C   -0.170620
    24  C    0.159884
    25  C   -0.170675
    26  C   -0.218626
    27  H    0.226100
    28  H    0.223928
    29  H    0.275966
    30  H    0.275970
    31  H    0.223931
    32  N    0.488299
    33  O   -0.460006
    34  O   -0.458485
 Sum of Mulliken charges =  -0.00000

 Dipole moment (field-independent basis, Debye):
    X=              5.2510    Y=              1.4705    Z=              1.2321  Tot=              5.5905
 Quadrupole moment (field-independent basis, Debye-Ang):
   XX=            -62.1401   YY=            -89.7314   ZZ=            -96.1078
   XY=              4.1502   XZ=              4.1638   YZ=             -2.1085

 Normal termination of Gaussian 16 at Thu May  6 05:46:10 2021.
