 Gaussian 16, Revision A.03,
 Gaussian 16:  EM64L-G16RevA.03 25-Dec-2016

 -------------
 #p 6-31g* mp2
 -------------

 ------------------------------------------------------
 Input file generated by CHIRIPA (05-May-2021 14:57:24)
 ------------------------------------------------------
 Symbolic Z-matrix:
 Charge =  0 Multiplicity = 1

                         Standard orientation:
 ---------------------------------------------------------------------
 Center     Atomic      Atomic             Coordinates (Angstroms)
 Number     Number       Type             X           Y           Z
 ---------------------------------------------------------------------
      1          6           0       -4.375054    1.895683   -0.772691
      2          6           0       -4.062135    1.819408    0.588480
      3          6           0       -3.362290    0.720517    1.095631
      4          6           0       -2.989143   -0.288647    0.209267
      5          6           0       -3.286162   -0.241564   -1.151929
      6          6           0       -3.986754    0.866768   -1.637027
      7          1           0       -4.919001    2.752995   -1.158092
      8          1           0       -4.362424    2.617000    1.262065
      9          1           0       -3.107023    0.635956    2.144967
     10          1           0       -2.973441   -1.052208   -1.798829
     11          1           0       -4.228407    0.923330   -2.694594
     12          7           0       -2.247853   -1.456991    0.734492
     13          8           0       -1.930404   -2.332925   -0.067134
     14          8           0       -1.998315   -1.474683    1.937843
     15          6           0        4.050121    2.395095    0.323554
     16          6           0        2.668434    2.214831    0.201217
     17          6           0        2.137146    0.945520   -0.046034
     18          6           0        3.020557   -0.126170   -0.165846
     19          6           0        4.401819    0.021313   -0.049007
     20          6           0        4.910887    1.299691    0.198273
     21          1           0        4.454208    3.384647    0.515635
     22          1           0        1.997566    3.063715    0.298048
     23          1           0        1.071596    0.777627   -0.145197
     24          1           0        5.045422   -0.844083   -0.150414
     25          1           0        5.984354    1.436715    0.292814
     26          7           0        2.469868   -1.474732   -0.427613
     27          8           0        3.269387   -2.402694   -0.529048
     28          8           0        1.249143   -1.578237   -0.526396
 ---------------------------------------------------------------------

 SCF Done:  E(RHF) =  -868.335632922     A.U. after   16 cycles
 E2 =    -0.2600871622D+01 EUMP2 =    -0.87093650454380D+03

 The electronic state is 1-A.
 Alpha  occ. eigenvalues --  -20.60093 -20.60079 -20.60032 -20.59933 -15.85120
 Alpha  occ. eigenvalues --  -15.85068 -11.30868 -11.30778 -11.27506 -11.27429
 Alpha  occ. eigenvalues --  -11.27406 -11.27374 -11.27298 -11.27190 -11.26603
 Alpha  occ. eigenvalues --  -11.26551 -11.26487 -11.26454  -1.59136  -1.59059
 Alpha  occ. eigenvalues --   -1.38687  -1.38603  -1.19076  -1.18981  -1.08389
 Alpha  occ. eigenvalues --   -1.08322  -1.04532  -1.04432  -0.95157  -0.95099
 Alpha  occ. eigenvalues --   -0.85906  -0.85818  -0.81995  -0.81922  -0.76969
 Alpha  occ. eigenvalues --   -0.76928  -0.71438  -0.71221  -0.70490  -0.70319
 Alpha  occ. eigenvalues --   -0.70164  -0.70089  -0.64710  -0.64626  -0.64528
 Alpha  occ. eigenvalues --   -0.64446  -0.61862  -0.61784  -0.55017  -0.54931
 Alpha  occ. eigenvalues --   -0.52859  -0.52739  -0.52618  -0.52534  -0.48157
 Alpha  occ. eigenvalues --   -0.48090  -0.48038  -0.47988  -0.44043  -0.43865
 Alpha  occ. eigenvalues --   -0.37089  -0.36976  -0.36165  -0.36046
 Alpha virt. eigenvalues --    0.05583   0.05617   0.11485   0.11605   0.17001
 Alpha virt. eigenvalues --    0.17046   0.21605   0.21658   0.27497   0.27509
 Alpha virt. eigenvalues --    0.28466   0.28583   0.30941   0.31283   0.32665

 Mulliken charges:
               1
     1  C   -0.172873
     2  C   -0.219757
     3  C   -0.174687
     4  C    0.157466
     5  C   -0.170918
     6  C   -0.219474
     7  H    0.223541
     8  H    0.220986
     9  H    0.274524
    10  H    0.280138
    11  H    0.222880
    12  N    0.488888
    13  O   -0.443990
    14  O   -0.465734
    15  C   -0.171675
    16  C   -0.218435
    17  C   -0.169263
    18  C    0.160110
    19  C   -0.171018
    20  C   -0.218418
    21  H    0.223453
    22  H    0.220076
    23  H    0.272163
    24  H    0.275750
    25  H    0.222211
    26  N    0.488630
    27  O   -0.462062
    28  O   -0.452510
 Sum of Mulliken charges =  -0.00000

 Dipole moment (field-independent basis, Debye):
    X=             -0.6580    Y=              8.5046    Z=             -1.0235  Tot=              8.5912
 Quadrupole moment (field-independent basis, Debye-Ang):
   XX=            -75.0330   YY=           -108.0238   ZZ=           -102.8347
   XY=              0.7629   XZ=              7.6671   YZ=              2.7321

 Normal termination of Gaussian 16 at Fri May  7 09:33:28 2021.
