 Gaussian 16, Revision A.03,
 Gaussian 16:  EM64L-G16RevA.03 25-Dec-2016

 -------------
 #p 6-31g* mp2
 -------------

 ------------------------------------------------------
 Input file generated by CHIRIPA (05-May-2021 14:51:10)
 ------------------------------------------------------
 Symbolic Z-matrix:
 Charge =  0 Multiplicity = 1

                         Standard orientation:
 ---------------------------------------------------------------------
 Center     Atomic      Atomic             Coordinates (Angstroms)
 Number     Number       Type             X           Y           Z
 ---------------------------------------------------------------------
      1          6           0       -2.260267    1.605869   -0.309068
      2          6           0       -1.401046    2.422501    0.656766
      3          6           0       -1.039757    3.801897    0.104924
      4          1           0       -1.723699    1.492505   -1.261007
      5          1           0       -3.179590    2.164503   -0.533051
      6          1           0       -0.484252    1.861878    0.879943
      7          1           0       -1.939641    2.533771    1.606582
      8          1           0       -1.944201    4.383497   -0.100804
      9          1           0       -0.480542    3.707787   -0.831572
     10          1           0       -0.425363    4.368635    0.811457
     11          6           0       -2.629636    0.224440    0.228471
     12          6           0       -3.488858   -0.592193   -0.737363
     13          6           0       -3.850147   -1.971589   -0.185521
     14          1           0       -1.710313   -0.334195    0.452453
     15          1           0       -3.166205    0.337803    1.180410
     16          1           0       -2.950262   -0.703462   -1.687179
     17          1           0       -4.405651   -0.031570   -0.960540
     18          1           0       -4.409361   -1.877478    0.750975
     19          1           0       -2.945703   -2.553189    0.020207
     20          1           0       -4.464540   -2.538326   -0.892054
     21          6           0        1.954334   -1.431075   -0.236381
     22          6           0        0.960909   -1.943594    0.806892
     23          6           0       -0.014020   -2.975063    0.238232
     24          1           0        1.399735   -0.989740   -1.075778
     25          1           0        2.516635   -2.281618   -0.646003
     26          1           0        0.401616   -1.092177    1.215421
     27          1           0        1.517942   -2.383588    1.643992
     28          1           0        0.527557   -3.842660   -0.152371
     29          1           0       -0.595113   -2.543911   -0.583376
     30          1           0       -0.715125   -3.327994    1.000960
     31          6           0        2.935569   -0.399233    0.316978
     32          6           0        3.928994    0.113285   -0.726295
     33          6           0        4.903924    1.144755   -0.157635
     34          1           0        2.373268    0.451309    0.726600
     35          1           0        3.490169   -0.840569    1.156375
     36          1           0        3.371960    0.553279   -1.563395
     37          1           0        4.488288   -0.738131   -1.134824
     38          1           0        5.485016    0.713604    0.663973
     39          1           0        4.362347    2.012351    0.232968
     40          1           0        5.605028    1.497687   -0.920362
 ---------------------------------------------------------------------

 SCF Done:  E(RHF) =  -470.732041032     A.U. after   11 cycles
 E2 =    -0.1585144513D+01 EUMP2 =    -0.47231718554470D+03

 The electronic state is 1-A.
 Alpha  occ. eigenvalues --  -11.21690 -11.21660 -11.21654 -11.21569 -11.21489
 Alpha  occ. eigenvalues --  -11.21427 -11.21409 -11.21317 -11.21174 -11.21117
 Alpha  occ. eigenvalues --  -11.21105 -11.20909  -1.08537  -1.08416  -1.03643
 Alpha  occ. eigenvalues --   -1.03500  -0.96081  -0.95956  -0.87116  -0.86957
 Alpha  occ. eigenvalues --   -0.79701  -0.79573  -0.78362  -0.78224  -0.65466
 Alpha  occ. eigenvalues --   -0.64819  -0.61271  -0.60703  -0.59465  -0.59304
 Alpha  occ. eigenvalues --   -0.57673  -0.57586  -0.55427  -0.55220  -0.52828
 Alpha  occ. eigenvalues --   -0.52654  -0.52484  -0.52341  -0.50143  -0.49770
 Alpha  occ. eigenvalues --   -0.48012  -0.47881  -0.46756  -0.46571  -0.46105
 Alpha  occ. eigenvalues --   -0.45824  -0.45758  -0.45329  -0.43849  -0.43773
 Alpha virt. eigenvalues --    0.19378   0.22302   0.24030   0.24274   0.25828
 Alpha virt. eigenvalues --    0.26469   0.26919   0.27905   0.28276   0.30040
 Alpha virt. eigenvalues --    0.30758   0.30967   0.31735   0.32150   0.32361

 Mulliken charges:
               1
     1  C   -0.297464
     2  C   -0.302247
     3  C   -0.475659
     4  H    0.148739
     5  H    0.149878
     6  H    0.152489
     7  H    0.152437
     8  H    0.155654
     9  H    0.154988
    10  H    0.160305
    11  C   -0.309152
    12  C   -0.298833
    13  C   -0.483546
    14  H    0.160994
    15  H    0.149447
    16  H    0.150350
    17  H    0.151938
    18  H    0.154087
    19  H    0.164823
    20  H    0.159435
    21  C   -0.298520
    22  C   -0.306203
    23  C   -0.481318
    24  H    0.149272
    25  H    0.150205
    26  H    0.156452
    27  H    0.153346
    28  H    0.156644
    29  H    0.158285
    30  H    0.162659
    31  C   -0.300108
    32  C   -0.299604
    33  C   -0.475837
    34  H    0.150698
    35  H    0.150143
    36  H    0.151866
    37  H    0.152132
    38  H    0.155282
    39  H    0.155487
    40  H    0.160458
 Sum of Mulliken charges =  -0.00000

 Dipole moment (field-independent basis, Debye):
    X=              0.0574    Y=             -0.0386    Z=              0.0230  Tot=              0.0729
 Quadrupole moment (field-independent basis, Debye-Ang):
   XX=            -84.5257   YY=            -85.5562   ZZ=            -84.6968
   XY=             -1.8198   XZ=             -0.3529   YZ=              0.0171

 Normal termination of Gaussian 16 at Wed May  5 23:04:01 2021.
