 Gaussian 16, Revision A.03,
 Gaussian 16:  EM64L-G16RevA.03 25-Dec-2016

 -------------
 #p 6-31g* mp2
 -------------

 ------------------------------------------------------
 Input file generated by CHIRIPA (05-May-2021 14:53:17)
 ------------------------------------------------------
 Symbolic Z-matrix:
 Charge =  0 Multiplicity = 1

                         Standard orientation:
 ---------------------------------------------------------------------
 Center     Atomic      Atomic             Coordinates (Angstroms)
 Number     Number       Type             X           Y           Z
 ---------------------------------------------------------------------
      1          6           0        3.466821    0.398051    0.292754
      2          6           0        3.642611   -1.118541    0.376613
      3          6           0        4.913374   -1.525985    1.122901
      4          1           0        4.342707    0.835296   -0.205830
      5          1           0        3.445586    0.814481    1.309381
      6          1           0        3.662120   -1.532144   -0.639835
      7          1           0        2.766117   -1.552245    0.874884
      8          1           0        4.898621   -1.140779    2.147596
      9          1           0        5.799715   -1.120563    0.624270
     10          1           0        5.019202   -2.614260    1.171060
     11          6           0        2.200928    0.821012   -0.450448
     12          6           0        2.025137    2.337604   -0.534307
     13          6           0        0.754375    2.745048   -1.280595
     14          1           0        2.222163    0.404582   -1.467075
     15          1           0        1.325042    0.383767    0.048136
     16          1           0        2.901632    2.771308   -1.032578
     17          1           0        2.005629    2.751207    0.482141
     18          1           0       -0.131967    2.339626   -0.781964
     19          1           0        0.769127    2.359842   -2.305290
     20          1           0        0.648547    3.833323   -1.328754
     21          6           0       -3.221060    0.603717    2.107441
     22          6           0       -1.935638    0.055324    2.166393
     23          6           0       -1.367652   -0.545505    1.039031
     24          6           0       -2.116602   -0.580599   -0.136185
     25          6           0       -3.399620   -0.043009   -0.226482
     26          6           0       -3.947667    0.552889    0.913297
     27          1           0       -3.654541    1.068540    2.988026
     28          1           0       -1.369032    0.093359    3.092436
     29          1           0       -0.374568   -0.977807    1.056820
     30          1           0       -3.940064   -0.096075   -1.163776
     31          1           0       -4.946158    0.977966    0.864595
     32          7           0       -1.525854   -1.214059   -1.336245
     33          8           0       -2.206261   -1.232184   -2.359649
     34          8           0       -0.393606   -1.680447   -1.230726
 ---------------------------------------------------------------------

 SCF Done:  E(RHF) =  -669.535149141     A.U. after   15 cycles
 E2 =    -0.2093647041D+01 EUMP2 =    -0.67162879618199D+03

 The electronic state is 1-A.
 Alpha  occ. eigenvalues --  -20.60842 -20.60818 -15.85870 -11.31280 -11.27842
 Alpha  occ. eigenvalues --  -11.27829 -11.27574 -11.26861 -11.26845 -11.21311
 Alpha  occ. eigenvalues --  -11.21230 -11.21068 -11.20861 -11.20811 -11.20798
 Alpha  occ. eigenvalues --   -1.59897  -1.39450  -1.19448  -1.08830  -1.08079
 Alpha  occ. eigenvalues --   -1.04853  -1.03219  -0.95696  -0.95637  -0.86690
 Alpha  occ. eigenvalues --   -0.86249  -0.82493  -0.79268  -0.77956  -0.77449
 Alpha  occ. eigenvalues --   -0.72091  -0.71210  -0.70556  -0.65096  -0.64956
 Alpha  occ. eigenvalues --   -0.64648  -0.62200  -0.60633  -0.59033  -0.57267
 Alpha  occ. eigenvalues --   -0.55357  -0.54966  -0.53183  -0.52952  -0.52377
 Alpha  occ. eigenvalues --   -0.52080  -0.49624  -0.48869  -0.48852  -0.47587
 Alpha  occ. eigenvalues --   -0.46314  -0.45572  -0.45315  -0.44620  -0.43453
 Alpha  occ. eigenvalues --   -0.37408  -0.36432
 Alpha virt. eigenvalues --    0.04966   0.11088   0.16474   0.20505   0.23046
 Alpha virt. eigenvalues --    0.24314   0.25329   0.27436   0.27610   0.27981
 Alpha virt. eigenvalues --    0.29444   0.31037   0.31423   0.32005   0.32155

 Mulliken charges:
               1
     1  C   -0.299551
     2  C   -0.297797
     3  C   -0.475772
     4  H    0.149519
     5  H    0.143000
     6  H    0.160434
     7  H    0.147823
     8  H    0.151249
     9  H    0.155232
    10  H    0.160707
    11  C   -0.300059
    12  C   -0.299061
    13  C   -0.477352
    14  H    0.161682
    15  H    0.147089
    16  H    0.151719
    17  H    0.146316
    18  H    0.151816
    19  H    0.160762
    20  H    0.157747
    21  C   -0.170602
    22  C   -0.219934
    23  C   -0.172716
    24  C    0.159783
    25  C   -0.170951
    26  C   -0.218152
    27  H    0.226027
    28  H    0.223959
    29  H    0.278225
    30  H    0.276096
    31  H    0.223946
    32  N    0.488231
    33  O   -0.460048
    34  O   -0.459366
 Sum of Mulliken charges =  -0.00000

 Dipole moment (field-independent basis, Debye):
    X=             -2.1643    Y=              2.1090    Z=              4.0579  Tot=              5.0595
 Quadrupole moment (field-independent basis, Debye-Ang):
   XX=            -83.1723   YY=            -98.4656   ZZ=            -94.4407
   XY=             -4.4417   XZ=             -7.8047   YZ=             -3.0647

 Normal termination of Gaussian 16 at Wed May  5 20:25:54 2021.
