 Gaussian 16, Revision A.03,
 Gaussian 16:  EM64L-G16RevA.03 25-Dec-2016

 -------------
 #p 6-31g* mp2
 -------------

 ------------------------------------------------------
 Input file generated by CHIRIPA (05-May-2021 14:51:07)
 ------------------------------------------------------
 Symbolic Z-matrix:
 Charge =  0 Multiplicity = 1

                         Standard orientation:
 ---------------------------------------------------------------------
 Center     Atomic      Atomic             Coordinates (Angstroms)
 Number     Number       Type             X           Y           Z
 ---------------------------------------------------------------------
      1          6           0       -2.871603    1.218095   -0.358500
      2          6           0       -2.163058    1.993568    0.752621
      3          6           0       -2.204058    3.506615    0.536285
      4          1           0       -2.406817    1.464766   -1.322903
      5          1           0       -3.916498    1.552377   -0.420513
      6          1           0       -1.120178    1.656938    0.813440
      7          1           0       -2.629461    1.744876    1.714513
      8          1           0       -3.238745    3.862268    0.497099
      9          1           0       -1.720887    3.773831   -0.409095
     10          1           0       -1.691780    4.041414    1.342151
     11          6           0       -2.839113   -0.295775   -0.156338
     12          6           0       -3.547658   -1.071247   -1.267460
     13          6           0       -3.506657   -2.584294   -1.051123
     14          1           0       -1.794218   -0.630056   -0.094326
     15          1           0       -3.303899   -0.542445    0.808065
     16          1           0       -3.081255   -0.822555   -2.229352
     17          1           0       -4.590538   -0.734618   -1.328278
     18          1           0       -3.989829   -2.851510   -0.105744
     19          1           0       -2.471971   -2.939947   -1.011937
     20          1           0       -4.018936   -3.119093   -1.856989
     21          6           0        2.542127   -1.079295    0.578710
     22          6           0        1.180982   -0.805824    1.219399
     23          6           0        0.567093   -2.052084    1.857967
     24          1           0        2.431522   -1.865488   -0.180640
     25          1           0        3.225817   -1.475945    1.342013
     26          1           0        0.500470   -0.408508    0.455422
     27          1           0        1.294804   -0.020055    1.977178
     28          1           0        1.223611   -2.447519    2.639770
     29          1           0        0.424765   -2.838177    1.109369
     30          1           0       -0.405515   -1.833933    2.309968
     31          6           0        3.168589    0.156974   -0.063872
     32          6           0        4.529734   -0.116497   -0.704561
     33          6           0        5.143623    1.129763   -1.343128
     34          1           0        2.484900    0.553624   -0.827175
     35          1           0        3.279193    0.943168    0.695479
     36          1           0        4.415912   -0.902265   -1.462340
     37          1           0        5.210245   -0.513813    0.059416
     38          1           0        5.285952    1.915857   -0.594530
     39          1           0        4.487105    1.525198   -2.124932
     40          1           0        6.116231    0.911612   -1.795129
 ---------------------------------------------------------------------

 SCF Done:  E(RHF) =  -470.733001525     A.U. after   11 cycles
 E2 =    -0.1583822017D+01 EUMP2 =    -0.47231682354179D+03

 The electronic state is 1-A.
 Alpha  occ. eigenvalues --  -11.21635 -11.21634 -11.21597 -11.21544 -11.21448
 Alpha  occ. eigenvalues --  -11.21388 -11.21380 -11.21319 -11.21098 -11.21080
 Alpha  occ. eigenvalues --  -11.21068 -11.21042  -1.08487  -1.08402  -1.03567
 Alpha  occ. eigenvalues --   -1.03508  -0.96017  -0.95955  -0.87027  -0.86974
 Alpha  occ. eigenvalues --   -0.79661  -0.79555  -0.78386  -0.78133  -0.65248
 Alpha  occ. eigenvalues --   -0.64935  -0.60987  -0.60894  -0.59383  -0.59325
 Alpha  occ. eigenvalues --   -0.57678  -0.57516  -0.55340  -0.55214  -0.52711
 Alpha  occ. eigenvalues --   -0.52644  -0.52463  -0.52352  -0.49973  -0.49891
 Alpha  occ. eigenvalues --   -0.48044  -0.47846  -0.46785  -0.46611  -0.46091
 Alpha  occ. eigenvalues --   -0.45781  -0.45745  -0.45187  -0.43813  -0.43761
 Alpha virt. eigenvalues --    0.20742   0.23265   0.23668   0.24276   0.25876
 Alpha virt. eigenvalues --    0.26591   0.26867   0.27424   0.28068   0.29640
 Alpha virt. eigenvalues --    0.30431   0.31591   0.31696   0.31935   0.32152

 Mulliken charges:
               1
     1  C   -0.297694
     2  C   -0.304900
     3  C   -0.475392
     4  H    0.148755
     5  H    0.149500
     6  H    0.157858
     7  H    0.151404
     8  H    0.154977
     9  H    0.154945
    10  H    0.160119
    11  C   -0.307167
    12  C   -0.299140
    13  C   -0.475678
    14  H    0.158890
    15  H    0.149328
    16  H    0.151388
    17  H    0.151985
    18  H    0.155397
    19  H    0.154982
    20  H    0.160141
    21  C   -0.297462
    22  C   -0.307895
    23  C   -0.476463
    24  H    0.149371
    25  H    0.149841
    26  H    0.157709
    27  H    0.152743
    28  H    0.155363
    29  H    0.154640
    30  H    0.162603
    31  C   -0.298422
    32  C   -0.299643
    33  C   -0.475736
    34  H    0.148906
    35  H    0.149845
    36  H    0.151964
    37  H    0.152128
    38  H    0.155297
    39  H    0.155118
    40  H    0.160395
 Sum of Mulliken charges =  -0.00000

 Dipole moment (field-independent basis, Debye):
    X=              0.0254    Y=             -0.0142    Z=              0.0229  Tot=              0.0370
 Quadrupole moment (field-independent basis, Debye-Ang):
   XX=            -84.1840   YY=            -86.6884   ZZ=            -83.9524
   XY=             -0.4164   XZ=              0.2226   YZ=              0.6363

 Normal termination of Gaussian 16 at Wed May  5 15:02:45 2021.
