 Gaussian 16, Revision A.03,
 Gaussian 16:  EM64L-G16RevA.03 25-Dec-2016

 -------------
 #p 6-31g* mp2
 -------------

 ------------------------------------------------------
 Input file generated by CHIRIPA (05-May-2021 14:57:27)
 ------------------------------------------------------
 Symbolic Z-matrix:
 Charge =  0 Multiplicity = 1

                         Standard orientation:
 ---------------------------------------------------------------------
 Center     Atomic      Atomic             Coordinates (Angstroms)
 Number     Number       Type             X           Y           Z
 ---------------------------------------------------------------------
      1          6           0        2.761531    2.301215    0.949305
      2          6           0        3.705980    1.301066    1.202762
      3          6           0        3.655659    0.085855    0.513359
      4          6           0        2.642820   -0.096280   -0.427000
      5          6           0        1.687384    0.880908   -0.701837
      6          6           0        1.757018    2.088319   -0.000511
      7          1           0        2.808123    3.242190    1.489481
      8          1           0        4.487209    1.463631    1.939850
      9          1           0        4.374063   -0.705442    0.689889
     10          1           0        0.920329    0.689639   -1.442418
     11          1           0        1.022210    2.863264   -0.199413
     12          7           0        2.579324   -1.378641   -1.163151
     13          8           0        1.677123   -1.514436   -1.986698
     14          8           0        3.432959   -2.223679   -0.902660
     15          6           0       -1.310616   -1.568402    1.871235
     16          6           0       -2.560933   -1.999167    1.415528
     17          6           0       -3.313584   -1.202160    0.547862
     18          6           0       -2.783088    0.025435    0.154320
     19          6           0       -1.540570    0.482321    0.591004
     20          6           0       -0.805316   -0.331214    1.458246
     21          1           0       -0.732695   -2.193955    2.545096
     22          1           0       -2.955858   -2.959516    1.734603
     23          1           0       -4.284365   -1.511200    0.179761
     24          1           0       -1.173254    1.444562    0.255462
     25          1           0        0.165401    0.005886    1.810550
     26          7           0       -3.570678    0.877938   -0.764015
     27          8           0       -3.081053    1.955300   -1.095973
     28          8           0       -4.662703    0.452627   -1.134460
 ---------------------------------------------------------------------

 SCF Done:  E(RHF) =  -868.336547373     A.U. after   16 cycles
 E2 =    -0.2603689995D+01 EUMP2 =    -0.87094023736780D+03

 The electronic state is 1-A.
 Alpha  occ. eigenvalues --  -20.61306 -20.61275 -20.60950 -20.60910 -15.86353
 Alpha  occ. eigenvalues --  -15.85979 -11.31867 -11.31251 -11.28515 -11.28437
 Alpha  occ. eigenvalues --  -11.28270 -11.27840 -11.27736 -11.27507 -11.27471
 Alpha  occ. eigenvalues --  -11.27451 -11.26746 -11.26732  -1.60369  -1.60002
 Alpha  occ. eigenvalues --   -1.39915  -1.39564  -1.20123  -1.19386  -1.09451
 Alpha  occ. eigenvalues --   -1.08792  -1.05571  -1.04756  -0.96253  -0.95657
 Alpha  occ. eigenvalues --   -0.86886  -0.86195  -0.83091  -0.82491  -0.78122
 Alpha  occ. eigenvalues --   -0.77560  -0.72564  -0.72204  -0.71709  -0.71321
 Alpha  occ. eigenvalues --   -0.71166  -0.70509  -0.65741  -0.65484  -0.65046
 Alpha  occ. eigenvalues --   -0.64802  -0.62885  -0.62122  -0.55973  -0.55299
 Alpha  occ. eigenvalues --   -0.53946  -0.53582  -0.53027  -0.52768  -0.49340
 Alpha  occ. eigenvalues --   -0.49308  -0.48974  -0.48937  -0.45285  -0.44991
 Alpha  occ. eigenvalues --   -0.38184  -0.37384  -0.37318  -0.36041
 Alpha virt. eigenvalues --    0.04285   0.05063   0.10429   0.11208   0.15749
 Alpha virt. eigenvalues --    0.16553   0.20061   0.21866   0.25323   0.27564
 Alpha virt. eigenvalues --    0.27683   0.28847   0.29940   0.31472   0.31793

 Mulliken charges:
               1
     1  C   -0.172086
     2  C   -0.221151
     3  C   -0.172931
     4  C    0.156931
     5  C   -0.172830
     6  C   -0.233230
     7  H    0.229762
     8  H    0.226039
     9  H    0.277446
    10  H    0.283698
    11  H    0.231303
    12  N    0.487995
    13  O   -0.455432
    14  O   -0.461016
    15  C   -0.169665
    16  C   -0.216121
    17  C   -0.169719
    18  C    0.161709
    19  C   -0.176264
    20  C   -0.220172
    21  H    0.226956
    22  H    0.225090
    23  H    0.276278
    24  H    0.265287
    25  H    0.227552
    26  N    0.488735
    27  O   -0.466849
    28  O   -0.457314
 Sum of Mulliken charges =  -0.00000

 Dipole moment (field-independent basis, Debye):
    X=              3.0754    Y=              1.3516    Z=              5.7784  Tot=              6.6839
 Quadrupole moment (field-independent basis, Debye-Ang):
   XX=           -113.3185   YY=           -103.6421   ZZ=           -105.9842
   XY=             22.4268   XZ=              0.5276   YZ=             -3.5011

 Normal termination of Gaussian 16 at Fri May  7 12:45:21 2021.
