 Gaussian 16, Revision A.03,
 Gaussian 16:  EM64L-G16RevA.03 25-Dec-2016

 -------------
 #p 6-31g* mp2
 -------------

 ------------------------------------------------------
 Input file generated by CHIRIPA (05-May-2021 14:57:24)
 ------------------------------------------------------
 Symbolic Z-matrix:
 Charge =  0 Multiplicity = 1

                         Standard orientation:
 ---------------------------------------------------------------------
 Center     Atomic      Atomic             Coordinates (Angstroms)
 Number     Number       Type             X           Y           Z
 ---------------------------------------------------------------------
      1          6           0       -2.090679    2.036595    0.220375
      2          6           0       -1.854837    0.926432    1.037956
      3          6           0       -2.690740   -0.192406    0.974575
      4          6           0       -3.758042   -0.167033    0.078187
      5          6           0       -4.019081    0.923918   -0.749445
      6          6           0       -3.170145    2.031803   -0.669148
      7          1           0       -1.436268    2.901481    0.276182
      8          1           0       -1.017268    0.927365    1.729709
      9          1           0       -2.531157   -1.065208    1.595999
     10          1           0       -4.861999    0.893608   -1.429142
     11          1           0       -3.355714    2.892571   -1.305299
     12          7           0       -4.649873   -1.345698    0.002134
     13          8           0       -5.583424   -1.298539   -0.795924
     14          8           0       -4.398453   -2.294377    0.742021
     15          6           0        1.861067    1.789140   -0.025341
     16          6           0        3.202498    2.100359    0.220076
     17          6           0        4.180623    1.102016    0.186461
     18          6           0        3.780240   -0.202826   -0.097042
     19          6           0        2.451830   -0.544439   -0.345873
     20          6           0        1.490669    0.470059   -0.307034
     21          1           0        1.107825    2.570952    0.002801
     22          1           0        3.493055    3.123906    0.439106
     23          1           0        5.226251    1.315123    0.372643
     24          1           0        2.192736   -1.573914   -0.561442
     25          1           0        0.449644    0.225446   -0.498027
     26          7           0        4.806758   -1.268279   -0.135393
     27          8           0        4.428231   -2.410118   -0.387500
     28          8           0        5.970432   -0.941367    0.087378
 ---------------------------------------------------------------------

 SCF Done:  E(RHF) =  -868.336032469     A.U. after   16 cycles
 E2 =    -0.2602220600D+01 EUMP2 =    -0.87093825306813D+03

 The electronic state is 1-A.
 Alpha  occ. eigenvalues --  -20.61497 -20.61492 -20.61161 -20.61154 -15.86557
 Alpha  occ. eigenvalues --  -15.86214 -11.32179 -11.31729 -11.28750 -11.28717
 Alpha  occ. eigenvalues --  -11.28644 -11.28289 -11.28249 -11.28178 -11.27846
 Alpha  occ. eigenvalues --  -11.27828 -11.27403 -11.27249  -1.60567  -1.60232
 Alpha  occ. eigenvalues --   -1.40113  -1.39781  -1.20389  -1.19911  -1.09771
 Alpha  occ. eigenvalues --   -1.09304  -1.05810  -1.05307  -0.96550  -0.96113
 Alpha  occ. eigenvalues --   -0.87230  -0.86689  -0.83357  -0.82920  -0.78337
 Alpha  occ. eigenvalues --   -0.77920  -0.72770  -0.72431  -0.71895  -0.71684
 Alpha  occ. eigenvalues --   -0.71556  -0.70970  -0.66042  -0.65881  -0.65548
 Alpha  occ. eigenvalues --   -0.65239  -0.63119  -0.62624  -0.56552  -0.55750
 Alpha  occ. eigenvalues --   -0.54259  -0.53918  -0.53611  -0.53259  -0.49549
 Alpha  occ. eigenvalues --   -0.49509  -0.49200  -0.49177  -0.45460  -0.45152
 Alpha  occ. eigenvalues --   -0.38434  -0.37977  -0.37407  -0.36852
 Alpha virt. eigenvalues --    0.04144   0.04565   0.09954   0.10864   0.15479
 Alpha virt. eigenvalues --    0.16026   0.18712   0.21855   0.24884   0.26448
 Alpha virt. eigenvalues --    0.27140   0.29176   0.29893   0.31510   0.32218

 Mulliken charges:
               1
     1  C   -0.178279
     2  C   -0.229034
     3  C   -0.172674
     4  C    0.160033
     5  C   -0.169953
     6  C   -0.216734
     7  H    0.221971
     8  H    0.230317
     9  H    0.280117
    10  H    0.279387
    11  H    0.226893
    12  N    0.487823
    13  O   -0.457282
    14  O   -0.457147
    15  C   -0.177923
    16  C   -0.217773
    17  C   -0.170977
    18  C    0.159876
    19  C   -0.171971
    20  C   -0.227299
    21  H    0.216061
    22  H    0.223906
    23  H    0.277267
    24  H    0.278735
    25  H    0.234005
    26  N    0.487742
    27  O   -0.457959
    28  O   -0.459128
 Sum of Mulliken charges =  -0.00000

 Dipole moment (field-independent basis, Debye):
    X=             -0.6742    Y=              7.6924    Z=              0.3720  Tot=              7.7309
 Quadrupole moment (field-independent basis, Debye-Ang):
   XX=           -150.8299   YY=           -105.4275   ZZ=           -103.1937
   XY=              0.0174   XZ=              3.2374   YZ=             -1.2221

 Normal termination of Gaussian 16 at Thu May  6 14:39:47 2021.
