 Gaussian 16, Revision A.03,
 Gaussian 16:  EM64L-G16RevA.03 25-Dec-2016

 -------------
 #p 6-31g* mp2
 -------------

 ------------------------------------------------------
 Input file generated by CHIRIPA (05-May-2021 14:55:24)
 ------------------------------------------------------
 Symbolic Z-matrix:
 Charge =  0 Multiplicity = 1

                         Standard orientation:
 ---------------------------------------------------------------------
 Center     Atomic      Atomic             Coordinates (Angstroms)
 Number     Number       Type             X           Y           Z
 ---------------------------------------------------------------------
      1          6           0       -5.833378    0.849756   -0.835048
      2          6           0       -4.617940    1.531241   -0.956741
      3          6           0       -3.425564    0.937824   -0.531719
      4          6           0       -3.485550   -0.344057    0.012774
      5          6           0       -4.680843   -1.048662    0.147298
      6          6           0       -5.860902   -0.435754   -0.284387
      7          1           0       -6.754860    1.318307   -1.167803
      8          1           0       -4.593553    2.529686   -1.384008
      9          1           0       -2.470778    1.442796   -0.614214
     10          1           0       -4.673418   -2.042895    0.577257
     11          1           0       -6.803377   -0.967374   -0.188650
     12          7           0       -2.229755   -0.982598    0.466253
     13          8           0       -2.309395   -2.112838    0.942543
     14          8           0       -1.189600   -0.340756    0.336814
     15          6           0        3.975011    0.439485    0.049230
     16          6           0        3.456525    1.255617    1.233749
     17          6           0        1.951556    1.515082    1.159320
     18          1           0        3.738429    0.968624   -0.884037
     19          1           0        3.438322   -0.518547    0.010043
     20          1           0        3.995004    2.211248    1.271511
     21          1           0        3.694538    0.724566    2.164314
     22          1           0        1.398052    0.570610    1.144940
     23          1           0        1.700226    2.065740    0.247065
     24          1           0        1.602179    2.100054    2.015826
     25          6           0        5.477841    0.171889    0.109399
     26          6           0        5.996326   -0.644243   -1.075120
     27          6           0        7.501295   -0.903709   -1.000691
     28          1           0        6.014530    1.129921    0.148585
     29          1           0        5.714423   -0.357250    1.042665
     30          1           0        5.758313   -0.113192   -2.005685
     31          1           0        5.457848   -1.599874   -1.112883
     32          1           0        7.752626   -1.454365   -0.088436
     33          1           0        8.054800    0.040763   -0.986311
     34          1           0        7.850673   -1.488680   -1.857198
 ---------------------------------------------------------------------

 SCF Done:  E(RHF) =  -669.536022424     A.U. after   15 cycles
 E2 =    -0.2090653573D+01 EUMP2 =    -0.67162667599769D+03

 The electronic state is 1-A.
 Alpha  occ. eigenvalues --  -20.60892 -20.60880 -15.85927 -11.31254 -11.27821
 Alpha  occ. eigenvalues --  -11.27811 -11.27561 -11.26830 -11.26819 -11.20993
 Alpha  occ. eigenvalues --  -11.20671 -11.20606 -11.20571 -11.20461 -11.19706
 Alpha  occ. eigenvalues --   -1.59955  -1.39509  -1.19424  -1.08828  -1.07618
 Alpha  occ. eigenvalues --   -1.04821  -1.02681  -0.95671  -0.95111  -0.86222
 Alpha  occ. eigenvalues --   -0.86124  -0.82502  -0.78764  -0.77557  -0.77401
 Alpha  occ. eigenvalues --   -0.72153  -0.71270  -0.70533  -0.65080  -0.64825
 Alpha  occ. eigenvalues --   -0.64252  -0.62167  -0.60075  -0.58528  -0.56723
 Alpha  occ. eigenvalues --   -0.55328  -0.54386  -0.53154  -0.52913  -0.51825
 Alpha  occ. eigenvalues --   -0.51520  -0.49138  -0.48903  -0.48808  -0.47051
 Alpha  occ. eigenvalues --   -0.45797  -0.44972  -0.44927  -0.44815  -0.42951
 Alpha  occ. eigenvalues --   -0.37405  -0.36423
 Alpha virt. eigenvalues --    0.04976   0.11232   0.16471   0.21346   0.23647
 Alpha virt. eigenvalues --    0.25180   0.27236   0.27480   0.27989   0.28343
 Alpha virt. eigenvalues --    0.29034   0.30924   0.32191   0.32360   0.32665

 Mulliken charges:
               1
     1  C   -0.170633
     2  C   -0.218600
     3  C   -0.170858
     4  C    0.157633
     5  C   -0.170577
     6  C   -0.218641
     7  H    0.225832
     8  H    0.223758
     9  H    0.276494
    10  H    0.275710
    11  H    0.223633
    12  N    0.492842
    13  O   -0.459921
    14  O   -0.463813
    15  C   -0.298223
    16  C   -0.299257
    17  C   -0.482552
    18  H    0.146820
    19  H    0.155443
    20  H    0.145948
    21  H    0.150431
    22  H    0.183897
    23  H    0.147194
    24  H    0.152881
    25  C   -0.297713
    26  C   -0.299216
    27  C   -0.475263
    28  H    0.146927
    29  H    0.149095
    30  H    0.150434
    31  H    0.153114
    32  H    0.154836
    33  H    0.153752
    34  H    0.158595
 Sum of Mulliken charges =  -0.00000

 Dipole moment (field-independent basis, Debye):
    X=             -4.7110    Y=              2.1230    Z=             -1.5962  Tot=              5.4082
 Quadrupole moment (field-independent basis, Debye-Ang):
   XX=            -65.2805   YY=            -92.9246   ZZ=            -95.1200
   XY=             -4.0109   XZ=              4.8488   YZ=             -1.4709

 Normal termination of Gaussian 16 at Wed May  5 20:47:33 2021.
