 Gaussian 16, Revision A.03,
 Gaussian 16:  EM64L-G16RevA.03 25-Dec-2016

 -------------
 #p 6-31g* mp2
 -------------

 ------------------------------------------------------
 Input file generated by CHIRIPA (05-May-2021 14:55:20)
 ------------------------------------------------------
 Symbolic Z-matrix:
 Charge =  0 Multiplicity = 1

                         Standard orientation:
 ---------------------------------------------------------------------
 Center     Atomic      Atomic             Coordinates (Angstroms)
 Number     Number       Type             X           Y           Z
 ---------------------------------------------------------------------
      1          6           0        2.116009   -0.929260    2.374619
      2          6           0        3.346920   -1.187816    1.762632
      3          6           0        3.600209   -0.743400    0.461522
      4          6           0        2.595571   -0.040165   -0.201390
      5          6           0        1.359037    0.233143    0.381344
      6          6           0        1.127739   -0.220854    1.683240
      7          1           0        1.927790   -1.278214    3.385658
      8          1           0        4.116274   -1.737735    2.297168
      9          1           0        4.544186   -0.929710   -0.036086
     10          1           0        0.611599    0.783831   -0.176775
     11          1           0        0.170859   -0.018604    2.156020
     12          7           0        2.852076    0.435390   -1.579233
     13          8           0        1.950533    1.052830   -2.141927
     14          8           0        3.949812    0.181686   -2.070403
     15          6           0       -3.234210    0.904152   -0.159944
     16          6           0       -2.575304    1.682331    0.979469
     17          6           0       -2.514664    3.186264    0.710571
     18          1           0       -2.680414    1.089672   -1.090448
     19          1           0       -4.250549    1.290448   -0.318770
     20          1           0       -1.561004    1.293754    1.137018
     21          1           0       -3.130619    1.494786    1.907406
     22          1           0       -3.521491    3.594204    0.574615
     23          1           0       -1.942959    3.392030   -0.200151
     24          1           0       -2.039914    3.723169    1.537737
     25          6           0       -3.302226   -0.600684    0.094163
     26          6           0       -3.961133   -1.378865   -1.045251
     27          6           0       -4.021773   -2.882796   -0.776351
     28          1           0       -2.285886   -0.986980    0.252988
     29          1           0       -3.856022   -0.786205    1.024667
     30          1           0       -3.405817   -1.191318   -1.973187
     31          1           0       -4.975432   -0.990287   -1.202799
     32          1           0       -4.593477   -3.088564    0.134370
     33          1           0       -3.014945   -3.290737   -0.640395
     34          1           0       -4.496523   -3.419701   -1.603518
 ---------------------------------------------------------------------

 SCF Done:  E(RHF) =  -669.535372115     A.U. after   15 cycles
 E2 =    -0.2092242797D+01 EUMP2 =    -0.67162761491179D+03

 The electronic state is 1-A.
 Alpha  occ. eigenvalues --  -20.60782 -20.60777 -15.85834 -11.31189 -11.27759
 Alpha  occ. eigenvalues --  -11.27746 -11.27490 -11.26771 -11.26731 -11.22398
 Alpha  occ. eigenvalues --  -11.21907 -11.21867 -11.21822 -11.21541 -11.21304
 Alpha  occ. eigenvalues --   -1.59857  -1.39411  -1.19359  -1.08932  -1.08754
 Alpha  occ. eigenvalues --   -1.04767  -1.03985  -0.96396  -0.95593  -0.87416
 Alpha  occ. eigenvalues --   -0.86158  -0.82439  -0.80085  -0.78748  -0.77469
 Alpha  occ. eigenvalues --   -0.72054  -0.71179  -0.70476  -0.65607  -0.65000
 Alpha  occ. eigenvalues --   -0.64766  -0.62204  -0.61292  -0.59773  -0.58017
 Alpha  occ. eigenvalues --   -0.55671  -0.55260  -0.53107  -0.53087  -0.52864
 Alpha  occ. eigenvalues --   -0.52797  -0.50339  -0.48813  -0.48810  -0.48368
 Alpha  occ. eigenvalues --   -0.47123  -0.46260  -0.46176  -0.44819  -0.44238
 Alpha  occ. eigenvalues --   -0.37337  -0.36361
 Alpha virt. eigenvalues --    0.05040   0.11291   0.16488   0.19129   0.22715
 Alpha virt. eigenvalues --    0.23828   0.24978   0.26194   0.27617   0.28213
 Alpha virt. eigenvalues --    0.29762   0.30062   0.31295   0.31504   0.32502

 Mulliken charges:
               1
     1  C   -0.170605
     2  C   -0.218679
     3  C   -0.170751
     4  C    0.159086
     5  C   -0.174975
     6  C   -0.223690
     7  H    0.225950
     8  H    0.223503
     9  H    0.275579
    10  H    0.277621
    11  H    0.229262
    12  N    0.488483
    13  O   -0.461155
    14  O   -0.460289
    15  C   -0.300714
    16  C   -0.306686
    17  C   -0.476861
    18  H    0.156012
    19  H    0.153357
    20  H    0.142225
    21  H    0.153098
    22  H    0.158750
    23  H    0.161398
    24  H    0.160528
    25  C   -0.299568
    26  C   -0.300521
    27  C   -0.476213
    28  H    0.145186
    29  H    0.148740
    30  H    0.156634
    31  H    0.153214
    32  H    0.154082
    33  H    0.155519
    34  H    0.162478
 Sum of Mulliken charges =  -0.00000

 Dipole moment (field-independent basis, Debye):
    X=             -1.0406    Y=             -1.6311    Z=              4.7617  Tot=              5.1398
 Quadrupole moment (field-independent basis, Debye-Ang):
   XX=            -93.9166   YY=            -95.3940   ZZ=            -97.1218
   XY=             -6.9740   XZ=             13.0011   YZ=              0.0824

 Normal termination of Gaussian 16 at Wed May  5 23:46:39 2021.
