 Gaussian 16, Revision A.03,
 Gaussian 16:  EM64L-G16RevA.03 25-Dec-2016

 -------------
 #p 6-31g* mp2
 -------------

 ------------------------------------------------------
 Input file generated by CHIRIPA (05-May-2021 14:57:26)
 ------------------------------------------------------
 Symbolic Z-matrix:
 Charge =  0 Multiplicity = 1

                         Standard orientation:
 ---------------------------------------------------------------------
 Center     Atomic      Atomic             Coordinates (Angstroms)
 Number     Number       Type             X           Y           Z
 ---------------------------------------------------------------------
      1          6           0       -5.463515    0.413892    0.975111
      2          6           0       -4.788801   -0.700526    1.484381
      3          6           0       -3.595550   -1.136096    0.900449
      4          6           0       -3.103287   -0.430546   -0.196441
      5          6           0       -3.752328    0.683337   -0.726819
      6          6           0       -4.944041    1.101055   -0.126920
      7          1           0       -6.389865    0.745319    1.434926
      8          1           0       -5.189892   -1.236120    2.340132
      9          1           0       -3.052743   -1.995698    1.274431
     10          1           0       -3.327842    1.196863   -1.580939
     11          1           0       -5.465888    1.966855   -0.524551
     12          7           0       -1.840859   -0.882215   -0.823076
     13          8           0       -1.427994   -0.243419   -1.788539
     14          8           0       -1.288137   -1.866478   -0.336904
     15          6           0        1.767630    2.332346   -0.184910
     16          6           0        2.549099    2.211435    0.968870
     17          6           0        3.407952    1.120664    1.133615
     18          6           0        3.460592    0.165050    0.120048
     19          6           0        2.694590    0.257445   -1.040984
     20          6           0        1.842737    1.356685   -1.184392
     21          1           0        1.103172    3.182973   -0.304600
     22          1           0        2.492823    2.967624    1.746724
     23          1           0        4.024052    1.002290    2.016692
     24          1           0        2.772316   -0.512404   -1.799081
     25          1           0        1.237003    1.447990   -2.081497
     26          7           0        4.366115   -0.994183    0.283161
     27          8           0        4.394233   -1.822537   -0.624405
     28          8           0        5.030600   -1.052485    1.315488
 ---------------------------------------------------------------------

 SCF Done:  E(RHF) =  -868.338896495     A.U. after   16 cycles
 E2 =    -0.2599196664D+01 EUMP2 =    -0.87093809315887D+03

 The electronic state is 1-A.
 Alpha  occ. eigenvalues --  -20.61394 -20.61334 -20.59887 -20.59861 -15.86403
 Alpha  occ. eigenvalues --  -15.84923 -11.31677 -11.30187 -11.28266 -11.28197
 Alpha  occ. eigenvalues --  -11.27947 -11.27242 -11.27195 -11.26804 -11.26622
 Alpha  occ. eigenvalues --  -11.26514 -11.25869 -11.25601  -1.60424  -1.58951
 Alpha  occ. eigenvalues --   -1.39985  -1.38507  -1.19837  -1.18347  -1.09247
 Alpha  occ. eigenvalues --   -1.07784  -1.05227  -1.03713  -0.96100  -0.94634
 Alpha  occ. eigenvalues --   -0.86628  -0.85134  -0.82939  -0.81450  -0.77998
 Alpha  occ. eigenvalues --   -0.76496  -0.72637  -0.71732  -0.71151  -0.70942
 Alpha  occ. eigenvalues --   -0.70265  -0.69505  -0.65493  -0.65226  -0.64004
 Alpha  occ. eigenvalues --   -0.63713  -0.62576  -0.61052  -0.55724  -0.54297
 Alpha  occ. eigenvalues --   -0.53561  -0.53316  -0.52078  -0.51803  -0.49402
 Alpha  occ. eigenvalues --   -0.49360  -0.47910  -0.47895  -0.45406  -0.43935
 Alpha  occ. eigenvalues --   -0.37810  -0.36828  -0.36369  -0.35276
 Alpha virt. eigenvalues --    0.04520   0.06013   0.10828   0.12346   0.16030
 Alpha virt. eigenvalues --    0.17526   0.20978   0.22405   0.26896   0.27783
 Alpha virt. eigenvalues --    0.28483   0.29194   0.30562   0.31854   0.32141

 Mulliken charges:
               1
     1  C   -0.170514
     2  C   -0.218512
     3  C   -0.170406
     4  C    0.158656
     5  C   -0.171938
     6  C   -0.218608
     7  H    0.227020
     8  H    0.225541
     9  H    0.278074
    10  H    0.272260
    11  H    0.223651
    12  N    0.490092
    13  O   -0.469969
    14  O   -0.453900
    15  C   -0.175119
    16  C   -0.219142
    17  C   -0.173196
    18  C    0.158091
    19  C   -0.166089
    20  C   -0.212165
    21  H    0.219560
    22  H    0.217816
    23  H    0.271687
    24  H    0.279175
    25  H    0.233431
    26  N    0.488339
    27  O   -0.458921
    28  O   -0.464914
 Sum of Mulliken charges =  -0.00000

 Dipole moment (field-independent basis, Debye):
    X=             -7.9304    Y=              5.4523    Z=              1.5204  Tot=              9.7433
 Quadrupole moment (field-independent basis, Debye-Ang):
   XX=           -100.5455   YY=           -102.6988   ZZ=           -100.2693
   XY=             10.6392   XZ=             -7.6562   YZ=             -2.1441

 Normal termination of Gaussian 16 at Fri May  7 00:28:36 2021.
