 Gaussian 16, Revision A.03,
 Gaussian 16:  EM64L-G16RevA.03 25-Dec-2016

 -------------
 #p 6-31g* mp2
 -------------

 ------------------------------------------------------
 Input file generated by CHIRIPA (05-May-2021 14:55:24)
 ------------------------------------------------------
 Symbolic Z-matrix:
 Charge =  0 Multiplicity = 1

                         Standard orientation:
 ---------------------------------------------------------------------
 Center     Atomic      Atomic             Coordinates (Angstroms)
 Number     Number       Type             X           Y           Z
 ---------------------------------------------------------------------
      1          6           0       -6.044055    0.070717    0.160819
      2          6           0       -5.429858   -1.091453    0.638987
      3          6           0       -4.051694   -1.276981    0.494797
      4          6           0       -3.314819   -0.275414   -0.135418
      5          6           0       -3.897684    0.893526   -0.622386
      6          6           0       -5.277359    1.057757   -0.467234
      7          1           0       -7.115233    0.206568    0.277087
      8          1           0       -6.022786   -1.859680    1.127155
      9          1           0       -3.550548   -2.166951    0.855664
     10          1           0       -3.280306    1.641641   -1.104659
     11          1           0       -5.751663    1.961335   -0.839562
     12          7           0       -1.855019   -0.460552   -0.293868
     13          8           0       -1.228050    0.436766   -0.852766
     14          8           0       -1.365437   -1.499475    0.143838
     15          6           0        3.788376    0.357515    0.137184
     16          6           0        3.257743    1.714942    0.599576
     17          6           0        1.730522    1.787544    0.588660
     18          1           0        3.417324    0.151778   -0.876195
     19          1           0        3.378338   -0.428934    0.785845
     20          1           0        3.669756    2.498733   -0.048908
     21          1           0        3.630258    1.917558    1.611898
     22          1           0        1.303935    1.026508    1.250060
     23          1           0        1.343658    1.610985   -0.420183
     24          1           0        1.372742    2.766455    0.922707
     25          6           0        5.313479    0.269432    0.142632
     26          6           0        5.844112   -1.087994   -0.319759
     27          6           0        7.371333   -1.160596   -0.308843
     28          1           0        5.723517    1.055883   -0.506027
     29          1           0        5.684531    0.475171    1.156012
     30          1           0        5.471598   -1.290610   -1.332080
     31          1           0        5.432099   -1.871785    0.328725
     32          1           0        7.758197   -0.984037    0.700000
     33          1           0        7.797920   -0.399560   -0.970243
     34          1           0        7.729113   -2.139506   -0.642890
 ---------------------------------------------------------------------

 SCF Done:  E(RHF) =  -669.535791063     A.U. after   15 cycles
 E2 =    -0.2090982160D+01 EUMP2 =    -0.67162677322269D+03

 The electronic state is 1-A.
 Alpha  occ. eigenvalues --  -20.60887 -20.60867 -15.85915 -11.31258 -11.27824
 Alpha  occ. eigenvalues --  -11.27820 -11.27565 -11.26836 -11.26826 -11.20786
 Alpha  occ. eigenvalues --  -11.20449 -11.20413 -11.20337 -11.20153 -11.19348
 Alpha  occ. eigenvalues --   -1.59939  -1.39496  -1.19428  -1.08828  -1.07369
 Alpha  occ. eigenvalues --   -1.04828  -1.02432  -0.95670  -0.94855  -0.86228
 Alpha  occ. eigenvalues --   -0.85864  -0.82501  -0.78521  -0.77550  -0.77134
 Alpha  occ. eigenvalues --   -0.72139  -0.71254  -0.70537  -0.65084  -0.64831
 Alpha  occ. eigenvalues --   -0.64011  -0.62175  -0.59836  -0.58292  -0.56466
 Alpha  occ. eigenvalues --   -0.55331  -0.54136  -0.53159  -0.52920  -0.51585
 Alpha  occ. eigenvalues --   -0.51276  -0.48971  -0.48888  -0.48701  -0.46776
 Alpha  occ. eigenvalues --   -0.45568  -0.44935  -0.44620  -0.44567  -0.42702
 Alpha  occ. eigenvalues --   -0.37408  -0.36430
 Alpha virt. eigenvalues --    0.04973   0.11225   0.16464   0.21356   0.23861
 Alpha virt. eigenvalues --    0.25434   0.27273   0.27700   0.28199   0.28550
 Alpha virt. eigenvalues --    0.29203   0.30931   0.32378   0.32572   0.32741

 Mulliken charges:
               1
     1  C   -0.170676
     2  C   -0.218585
     3  C   -0.170719
     4  C    0.158057
     5  C   -0.170735
     6  C   -0.218559
     7  H    0.225834
     8  H    0.223657
     9  H    0.275721
    10  H    0.275812
    11  H    0.223694
    12  N    0.489958
    13  O   -0.459917
    14  O   -0.460058
    15  C   -0.297323
    16  C   -0.300524
    17  C   -0.475782
    18  H    0.153237
    19  H    0.152310
    20  H    0.146459
    21  H    0.145574
    22  H    0.156669
    23  H    0.175311
    24  H    0.148568
    25  C   -0.297600
    26  C   -0.298952
    27  C   -0.475108
    28  H    0.146826
    29  H    0.146803
    30  H    0.152246
    31  H    0.152196
    32  H    0.153647
    33  H    0.153720
    34  H    0.158239
 Sum of Mulliken charges =  -0.00000

 Dipole moment (field-independent basis, Debye):
    X=             -5.4808    Y=              0.5584    Z=              0.4614  Tot=              5.5285
 Quadrupole moment (field-independent basis, Debye-Ang):
   XX=            -63.9020   YY=            -91.7077   ZZ=            -93.7630
   XY=             -0.5501   XZ=             -1.5757   YZ=             -3.2429

 Normal termination of Gaussian 16 at Thu May  6 04:45:43 2021.
