 Gaussian 16, Revision A.03,
 Gaussian 16:  EM64L-G16RevA.03 25-Dec-2016

 -------------
 #p 6-31g* mp2
 -------------

 ------------------------------------------------------
 Input file generated by CHIRIPA (05-May-2021 14:53:14)
 ------------------------------------------------------
 Symbolic Z-matrix:
 Charge =  0 Multiplicity = 1

                         Standard orientation:
 ---------------------------------------------------------------------
 Center     Atomic      Atomic             Coordinates (Angstroms)
 Number     Number       Type             X           Y           Z
 ---------------------------------------------------------------------
      1          6           0       -3.886963    0.527314   -0.227590
      2          6           0       -4.198741   -0.934015    0.096902
      3          6           0       -5.677853   -1.276963   -0.083121
      4          1           0       -4.496375    1.177117    0.415308
      5          1           0       -4.189973    0.738559   -1.262460
      6          1           0       -3.893961   -1.142810    1.130405
      7          1           0       -3.588376   -1.580415   -0.546711
      8          1           0       -5.992171   -1.096556   -1.116203
      9          1           0       -6.299493   -0.656464    0.570442
     10          1           0       -5.878410   -2.326407    0.154164
     11          6           0       -2.412266    0.885484   -0.052344
     12          6           0       -2.100488    2.346813   -0.376836
     13          6           0       -0.621376    2.689762   -0.196813
     14          1           0       -2.109256    0.674239    0.982526
     15          1           0       -1.802854    0.235681   -0.695242
     16          1           0       -2.710853    2.993214    0.266777
     17          1           0       -2.405267    2.555608   -1.410339
     18          1           0        0.000264    2.069262   -0.850376
     19          1           0       -0.307057    2.509354    0.836269
     20          1           0       -0.420819    3.739205   -0.434098
     21          6           0        4.478079    0.945179   -0.124485
     22          6           0        4.458423   -0.305785   -0.749965
     23          6           0        3.345940   -1.143560   -0.627241
     24          6           0        2.265597   -0.696604    0.131956
     25          6           0        2.255114    0.544246    0.767149
     26          6           0        3.378301    1.365461    0.630743
     27          1           0        5.346441    1.589550   -0.225134
     28          1           0        5.311103   -0.634792   -1.337109
     29          1           0        3.304193   -2.116881   -1.100867
     30          1           0        1.390119    0.844715    1.345871
     31          1           0        3.390785    2.336465    1.117611
     32          7           0        1.082195   -1.574752    0.269120
     33          8           0        0.143078   -1.157766    0.943521
     34          8           0        1.116170   -2.663405   -0.300370
 ---------------------------------------------------------------------

 SCF Done:  E(RHF) =  -669.534638765     A.U. after   15 cycles
 E2 =    -0.2093586992D+01 EUMP2 =    -0.67162822575749D+03

 The electronic state is 1-A.
 Alpha  occ. eigenvalues --  -20.60870 -20.60827 -15.85873 -11.31184 -11.27770
 Alpha  occ. eigenvalues --  -11.27721 -11.27504 -11.26764 -11.26740 -11.21155
 Alpha  occ. eigenvalues --  -11.21070 -11.20545 -11.20483 -11.20302 -11.20241
 Alpha  occ. eigenvalues --   -1.59916  -1.39473  -1.19367  -1.08772  -1.07615
 Alpha  occ. eigenvalues --   -1.04761  -1.02886  -0.95618  -0.95360  -0.86437
 Alpha  occ. eigenvalues --   -0.86132  -0.82452  -0.78960  -0.77617  -0.77201
 Alpha  occ. eigenvalues --   -0.72096  -0.71231  -0.70485  -0.65019  -0.64772
 Alpha  occ. eigenvalues --   -0.64258  -0.62136  -0.60300  -0.58746  -0.56948
 Alpha  occ. eigenvalues --   -0.55275  -0.54671  -0.53141  -0.52879  -0.52104
 Alpha  occ. eigenvalues --   -0.51707  -0.49352  -0.48875  -0.48855  -0.47259
 Alpha  occ. eigenvalues --   -0.45941  -0.45357  -0.44784  -0.44314  -0.43061
 Alpha  occ. eigenvalues --   -0.37349  -0.36324
 Alpha virt. eigenvalues --    0.05012   0.11272   0.16469   0.20885   0.23490
 Alpha virt. eigenvalues --    0.24537   0.26128   0.27539   0.27843   0.28726
 Alpha virt. eigenvalues --    0.29301   0.30828   0.31536   0.32129   0.32494

 Mulliken charges:
               1
     1  C   -0.299431
     2  C   -0.298539
     3  C   -0.475629
     4  H    0.144777
     5  H    0.144951
     6  H    0.156605
     7  H    0.158529
     8  H    0.152150
     9  H    0.151757
    10  H    0.159781
    11  C   -0.295632
    12  C   -0.299769
    13  C   -0.476100
    14  H    0.159957
    15  H    0.154911
    16  H    0.149353
    17  H    0.150059
    18  H    0.156030
    19  H    0.145497
    20  H    0.156874
    21  C   -0.170450
    22  C   -0.219016
    23  C   -0.170790
    24  C    0.155391
    25  C   -0.168161
    26  C   -0.220587
    27  H    0.225652
    28  H    0.223306
    29  H    0.275360
    30  H    0.280077
    31  H    0.224040
    32  N    0.489256
    33  O   -0.459614
    34  O   -0.460594
 Sum of Mulliken charges =  -0.00000

 Dipole moment (field-independent basis, Debye):
    X=              4.2777    Y=              2.9078    Z=             -0.4229  Tot=              5.1897
 Quadrupole moment (field-independent basis, Debye-Ang):
   XX=            -77.2995   YY=            -97.7153   ZZ=            -92.9424
   XY=              2.3836   XZ=             -2.4997   YZ=              3.2752

 Normal termination of Gaussian 16 at Thu May  6 04:13:43 2021.
