 Gaussian 16, Revision A.03,
 Gaussian 16:  EM64L-G16RevA.03 25-Dec-2016

 -------------
 #p 6-31g* mp2
 -------------

 ------------------------------------------------------
 Input file generated by CHIRIPA (05-May-2021 14:51:08)
 ------------------------------------------------------
 Symbolic Z-matrix:
 Charge =  0 Multiplicity = 1

                         Standard orientation:
 ---------------------------------------------------------------------
 Center     Atomic      Atomic             Coordinates (Angstroms)
 Number     Number       Type             X           Y           Z
 ---------------------------------------------------------------------
      1          6           0        2.984085   -0.521696    0.143529
      2          6           0        2.753258   -1.540506   -0.973042
      3          6           0        2.450305   -2.941715   -0.441416
      4          1           0        3.814725   -0.862795    0.776486
      5          1           0        2.094517   -0.486120    0.787576
      6          1           0        3.642457   -1.573144   -1.615597
      7          1           0        1.923197   -1.196846   -1.603527
      8          1           0        1.551118   -2.930748    0.183038
      9          1           0        3.280146   -3.309184    0.170900
     10          1           0        2.288669   -3.654071   -1.256452
     11          6           0        3.288087    0.883792   -0.372140
     12          6           0        3.518914    1.902602    0.744430
     13          6           0        3.821868    3.303812    0.212805
     14          1           0        4.177656    0.848216   -1.016188
     15          1           0        2.457448    1.224891   -1.005098
     16          1           0        4.348976    1.558942    1.374915
     17          1           0        2.629716    1.935240    1.386985
     18          1           0        2.992026    3.671280   -0.399512
     19          1           0        4.721055    3.292844   -0.411650
     20          1           0        3.983504    4.016167    1.027840
     21          6           0       -2.697655   -0.601925    0.576986
     22          6           0       -2.300486   -1.950268   -0.024854
     23          6           0       -1.423489   -2.780779    0.912654
     24          1           0       -1.789036   -0.037433    0.827398
     25          1           0       -3.229984   -0.773010    1.522900
     26          1           0       -1.770278   -1.776738   -0.970044
     27          1           0       -3.210156   -2.511536   -0.274039
     28          1           0       -1.947836   -2.983129    1.852184
     29          1           0       -0.499777   -2.244156    1.152224
     30          1           0       -1.151278   -3.740547    0.462535
     31          6           0       -3.574517    0.239828   -0.348374
     32          6           0       -3.971687    1.588172    0.253466
     33          6           0       -4.848683    2.418682   -0.684043
     34          1           0       -3.042189    0.410913   -1.294288
     35          1           0       -4.483136   -0.324663   -0.598786
     36          1           0       -3.062016    2.149440    0.502651
     37          1           0       -4.501894    1.414642    1.198656
     38          1           0       -5.772395    1.882059   -0.923613
     39          1           0       -4.324336    2.621033   -1.623572
     40          1           0       -5.120894    3.378450   -0.233923
 ---------------------------------------------------------------------

 SCF Done:  E(RHF) =  -470.733065352     A.U. after   11 cycles
 E2 =    -0.1582910120D+01 EUMP2 =    -0.47231597547135D+03

 The electronic state is 1-A.
 Alpha  occ. eigenvalues --  -11.21662 -11.21642 -11.21625 -11.21592 -11.21461
 Alpha  occ. eigenvalues --  -11.21432 -11.21400 -11.21373 -11.21130 -11.21103
 Alpha  occ. eigenvalues --  -11.21092 -11.20957  -1.08486  -1.08442  -1.03596
 Alpha  occ. eigenvalues --   -1.03514  -0.96062  -0.95947  -0.87094  -0.86951
 Alpha  occ. eigenvalues --   -0.79685  -0.79553  -0.78304  -0.78250  -0.65188
 Alpha  occ. eigenvalues --   -0.65017  -0.61162  -0.60771  -0.59403  -0.59341
 Alpha  occ. eigenvalues --   -0.57646  -0.57585  -0.55544  -0.55064  -0.52762
 Alpha  occ. eigenvalues --   -0.52653  -0.52470  -0.52357  -0.50175  -0.49716
 Alpha  occ. eigenvalues --   -0.48003  -0.47862  -0.46820  -0.46476  -0.45890
 Alpha  occ. eigenvalues --   -0.45791  -0.45774  -0.45606  -0.43833  -0.43784
 Alpha virt. eigenvalues --    0.20368   0.23318   0.23560   0.25305   0.25740
 Alpha virt. eigenvalues --    0.26627   0.27076   0.27433   0.28144   0.29150
 Alpha virt. eigenvalues --    0.30587   0.31355   0.31442   0.31923   0.32114

 Mulliken charges:
               1
     1  C   -0.299336
     2  C   -0.299176
     3  C   -0.483248
     4  H    0.150125
     5  H    0.148903
     6  H    0.151902
     7  H    0.151040
     8  H    0.164672
     9  H    0.154566
    10  H    0.159485
    11  C   -0.298217
    12  C   -0.299649
    13  C   -0.475698
    14  H    0.149845
    15  H    0.149232
    16  H    0.152146
    17  H    0.151698
    18  H    0.155033
    19  H    0.155291
    20  H    0.160370
    21  C   -0.298559
    22  C   -0.300032
    23  C   -0.480151
    24  H    0.149125
    25  H    0.149865
    26  H    0.152242
    27  H    0.152485
    28  H    0.155895
    29  H    0.157648
    30  H    0.162130
    31  C   -0.298341
    32  C   -0.299672
    33  C   -0.475738
    34  H    0.149447
    35  H    0.149913
    36  H    0.151786
    37  H    0.152080
    38  H    0.155295
    39  H    0.155193
    40  H    0.160408
 Sum of Mulliken charges =  -0.00000

 Dipole moment (field-independent basis, Debye):
    X=             -0.0359    Y=             -0.0154    Z=              0.0142  Tot=              0.0416
 Quadrupole moment (field-independent basis, Debye-Ang):
   XX=            -83.4769   YY=            -86.1541   ZZ=            -85.0233
   XY=              0.4473   XZ=             -0.6269   YZ=              0.4289

 Normal termination of Gaussian 16 at Wed May  5 22:56:18 2021.
