 Gaussian 16, Revision A.03,
 Gaussian 16:  EM64L-G16RevA.03 25-Dec-2016

 -------------
 #p 6-31g* mp2
 -------------

 ------------------------------------------------------
 Input file generated by CHIRIPA (05-May-2021 14:53:13)
 ------------------------------------------------------
 Symbolic Z-matrix:
 Charge =  0 Multiplicity = 1

                         Standard orientation:
 ---------------------------------------------------------------------
 Center     Atomic      Atomic             Coordinates (Angstroms)
 Number     Number       Type             X           Y           Z
 ---------------------------------------------------------------------
      1          6           0        3.675556    1.137472   -0.134076
      2          6           0        2.549349    1.637725    0.771126
      3          6           0        2.380459    3.156501    0.720222
      4          1           0        4.616457    1.622517    0.159830
      5          1           0        3.472183    1.450278   -1.167607
      6          1           0        2.754083    1.322881    1.802423
      7          1           0        1.611055    1.151289    0.475154
      8          1           0        2.151872    3.484750   -0.298896
      9          1           0        3.301394    3.657317    1.035914
     10          1           0        1.570097    3.492485    1.374659
     11          6           0        3.856697   -0.378876   -0.094036
     12          6           0        4.982904   -0.879129   -0.999238
     13          6           0        5.151794   -2.397905   -0.948334
     14          1           0        4.060070   -0.691682    0.939495
     15          1           0        2.915795   -0.863921   -0.387943
     16          1           0        5.921198   -0.392693   -0.703266
     17          1           0        4.778170   -0.564285   -2.030535
     18          1           0        4.230858   -2.898721   -1.264026
     19          1           0        5.380381   -2.726154    0.070784
     20          1           0        5.962156   -2.733889   -1.602772
     21          6           0       -4.755593    0.798221   -1.281954
     22          6           0       -4.944909   -0.490528   -0.772244
     23          6           0       -3.947044   -1.106762   -0.011278
     24          6           0       -2.766983   -0.402144    0.221655
     25          6           0       -2.548526    0.882919   -0.272492
     26          6           0       -3.560112    1.479631   -1.030894
     27          1           0       -5.536088    1.269345   -1.872095
     28          1           0       -5.872315   -1.022097   -0.965629
     29          1           0       -4.067280   -2.103542    0.395404
     30          1           0       -1.613298    1.387754   -0.062948
     31          1           0       -3.410328    2.480587   -1.425476
     32          7           0       -1.703324   -1.044189    1.025900
     33          8           0       -0.672759   -0.402262    1.216958
     34          8           0       -1.920334   -2.177194    1.449978
 ---------------------------------------------------------------------

 SCF Done:  E(RHF) =  -669.535930452     A.U. after   15 cycles
 E2 =    -0.2091091754D+01 EUMP2 =    -0.67162702220607D+03

 The electronic state is 1-A.
 Alpha  occ. eigenvalues --  -20.60912 -20.60902 -15.85950 -11.31283 -11.27849
 Alpha  occ. eigenvalues --  -11.27845 -11.27586 -11.26858 -11.26848 -11.20960
 Alpha  occ. eigenvalues --  -11.20671 -11.20614 -11.20548 -11.20523 -11.20463
 Alpha  occ. eigenvalues --   -1.59977  -1.39532  -1.19453  -1.08855  -1.07667
 Alpha  occ. eigenvalues --   -1.04851  -1.02831  -0.95695  -0.95322  -0.86338
 Alpha  occ. eigenvalues --   -0.86251  -0.82531  -0.78867  -0.77614  -0.77401
 Alpha  occ. eigenvalues --   -0.72172  -0.71294  -0.70562  -0.65111  -0.64854
 Alpha  occ. eigenvalues --   -0.64303  -0.62200  -0.60237  -0.58676  -0.56909
 Alpha  occ. eigenvalues --   -0.55354  -0.54630  -0.53183  -0.52943  -0.52036
 Alpha  occ. eigenvalues --   -0.51733  -0.49279  -0.48930  -0.48925  -0.47177
 Alpha  occ. eigenvalues --   -0.45885  -0.45076  -0.44978  -0.44763  -0.43076
 Alpha  occ. eigenvalues --   -0.37433  -0.36454
 Alpha virt. eigenvalues --    0.04937   0.11199   0.16424   0.20968   0.23376
 Alpha virt. eigenvalues --    0.24495   0.26718   0.27478   0.27755   0.28633
 Alpha virt. eigenvalues --    0.28951   0.30648   0.31701   0.32152   0.32447

 Mulliken charges:
               1
     1  C   -0.298040
     2  C   -0.306834
     3  C   -0.476317
     4  H    0.146144
     5  H    0.144055
     6  H    0.155260
     7  H    0.170736
     8  H    0.148224
     9  H    0.153650
    10  H    0.157579
    11  C   -0.298224
    12  C   -0.299217
    13  C   -0.475157
    14  H    0.151795
    15  H    0.156017
    16  H    0.149684
    17  H    0.148765
    18  H    0.156121
    19  H    0.156005
    20  H    0.157217
    21  C   -0.170592
    22  C   -0.218574
    23  C   -0.170902
    24  C    0.157716
    25  C   -0.171368
    26  C   -0.218872
    27  H    0.225978
    28  H    0.223785
    29  H    0.275809
    30  H    0.276913
    31  H    0.224083
    32  N    0.493451
    33  O   -0.465641
    34  O   -0.459250
 Sum of Mulliken charges =  -0.00000

 Dipole moment (field-independent basis, Debye):
    X=             -3.9612    Y=              2.1166    Z=             -2.7415  Tot=              5.2619
 Quadrupole moment (field-independent basis, Debye-Ang):
   XX=            -73.0968   YY=            -95.2556   ZZ=            -96.2427
   XY=             -2.1424   XZ=              7.8178   YZ=              1.0108

 Normal termination of Gaussian 16 at Wed May  5 23:25:26 2021.
