 Gaussian 16, Revision A.03,
 Gaussian 16:  EM64L-G16RevA.03 25-Dec-2016

 -------------
 #p 6-31g* mp2
 -------------

 ------------------------------------------------------
 Input file generated by CHIRIPA (05-May-2021 14:57:27)
 ------------------------------------------------------
 Symbolic Z-matrix:
 Charge =  0 Multiplicity = 1

                         Standard orientation:
 ---------------------------------------------------------------------
 Center     Atomic      Atomic             Coordinates (Angstroms)
 Number     Number       Type             X           Y           Z
 ---------------------------------------------------------------------
      1          6           0       -2.537905   -1.926006   -1.424022
      2          6           0       -2.349440   -1.975431   -0.038901
      3          6           0       -2.375198   -0.803781    0.723412
      4          6           0       -2.592856    0.405527    0.065013
      5          6           0       -2.783943    0.487408   -1.313418
      6          6           0       -2.754174   -0.696911   -2.055746
      7          1           0       -2.516337   -2.841092   -2.008443
      8          1           0       -2.181280   -2.928550    0.454385
      9          1           0       -2.232218   -0.813247    1.797137
     10          1           0       -2.949443    1.452405   -1.776891
     11          1           0       -2.900845   -0.655508   -3.131301
     12          7           0       -2.622249    1.652606    0.861461
     13          8           0       -2.815803    2.705444    0.257553
     14          8           0       -2.451175    1.553615    2.074545
     15          6           0        1.425791   -1.833582    1.598097
     16          6           0        1.137252   -1.830576    0.229427
     17          6           0        1.775167   -0.929890   -0.628697
     18          6           0        2.700372   -0.042064   -0.081842
     19          6           0        3.009244   -0.020536    1.277358
     20          6           0        2.359221   -0.930146    2.116780
     21          1           0        0.925540   -2.536723    2.257444
     22          1           0        0.412782   -2.531061   -0.176171
     23          1           0        1.570668   -0.905927   -1.692193
     24          1           0        3.736105    0.689717    1.652365
     25          1           0        2.585282   -0.930212    3.179296
     26          7           0        3.382113    0.916176   -0.980400
     27          8           0        4.193274    1.688240   -0.473872
     28          8           0        3.092392    0.877034   -2.174204
 ---------------------------------------------------------------------

 SCF Done:  E(RHF) =  -868.335516733     A.U. after   16 cycles
 E2 =    -0.2603049597D+01 EUMP2 =    -0.87093856632970D+03

 The electronic state is 1-A.
 Alpha  occ. eigenvalues --  -20.61167 -20.61145 -20.60798 -20.60781 -15.86220
 Alpha  occ. eigenvalues --  -15.85845 -11.31761 -11.31265 -11.28414 -11.28307
 Alpha  occ. eigenvalues --  -11.28181 -11.27819 -11.27768 -11.27621 -11.27513
 Alpha  occ. eigenvalues --  -11.27368 -11.26875 -11.26854  -1.60227  -1.59863
 Alpha  occ. eigenvalues --   -1.39777  -1.39416  -1.19981  -1.19429  -1.09354
 Alpha  occ. eigenvalues --   -1.08841  -1.05429  -1.04826  -0.96142  -0.95665
 Alpha  occ. eigenvalues --   -0.86830  -0.86243  -0.82977  -0.82491  -0.77991
 Alpha  occ. eigenvalues --   -0.77515  -0.72438  -0.72067  -0.71548  -0.71181
 Alpha  occ. eigenvalues --   -0.71087  -0.70588  -0.65636  -0.65512  -0.65091
 Alpha  occ. eigenvalues --   -0.64842  -0.62762  -0.62191  -0.55921  -0.55420
 Alpha  occ. eigenvalues --   -0.53987  -0.53528  -0.53058  -0.52762  -0.49211
 Alpha  occ. eigenvalues --   -0.49178  -0.48829  -0.48815  -0.45143  -0.44810
 Alpha  occ. eigenvalues --   -0.37996  -0.37773  -0.36960  -0.36050
 Alpha virt. eigenvalues --    0.04529   0.05006   0.10472   0.11235   0.16008
 Alpha virt. eigenvalues --    0.16456   0.19698   0.21984   0.25827   0.26925
 Alpha virt. eigenvalues --    0.28084   0.28902   0.30327   0.30815   0.32043

 Mulliken charges:
               1
     1  C   -0.175705
     2  C   -0.226724
     3  C   -0.162868
     4  C    0.159691
     5  C   -0.168685
     6  C   -0.218385
     7  H    0.226138
     8  H    0.217927
     9  H    0.273955
    10  H    0.280074
    11  H    0.227518
    12  N    0.488269
    13  O   -0.456314
    14  O   -0.460743
    15  C   -0.175795
    16  C   -0.209533
    17  C   -0.173259
    18  C    0.159801
    19  C   -0.170104
    20  C   -0.215332
    21  H    0.219712
    22  H    0.216565
    23  H    0.273085
    24  H    0.277285
    25  H    0.225178
    26  N    0.488316
    27  O   -0.458206
    28  O   -0.461860
 Sum of Mulliken charges =  -0.00000

 Dipole moment (field-independent basis, Debye):
    X=             -2.3694    Y=             -7.4548    Z=              0.3292  Tot=              7.8292
 Quadrupole moment (field-independent basis, Debye-Ang):
   XX=           -117.8510   YY=           -107.5448   ZZ=            -99.4564
   XY=              2.8246   XZ=             19.6073   YZ=             -2.1102

 Normal termination of Gaussian 16 at Thu May  6 11:31:45 2021.
