 Gaussian 16, Revision A.03,
 Gaussian 16:  EM64L-G16RevA.03 25-Dec-2016

 -------------
 #p 6-31g* mp2
 -------------

 ------------------------------------------------------
 Input file generated by CHIRIPA (05-May-2021 14:51:11)
 ------------------------------------------------------
 Symbolic Z-matrix:
 Charge =  0 Multiplicity = 1

                         Standard orientation:
 ---------------------------------------------------------------------
 Center     Atomic      Atomic             Coordinates (Angstroms)
 Number     Number       Type             X           Y           Z
 ---------------------------------------------------------------------
      1          6           0       -4.572459   -0.532506    0.341552
      2          6           0       -5.737848   -1.014725   -0.522925
      3          6           0       -6.380086   -2.295219    0.011545
      4          1           0       -3.815625   -1.326576    0.401554
      5          1           0       -4.930601   -0.363955    1.366599
      6          1           0       -5.377919   -1.180992   -1.546361
      7          1           0       -6.491908   -0.219343   -0.581032
      8          1           0       -6.766037   -2.139010    1.024087
      9          1           0       -5.645719   -3.106122    0.053273
     10          1           0       -7.210879   -2.622139   -0.621516
     11          6           0       -3.920091    0.746649   -0.179894
     12          6           0       -2.754703    1.228868    0.684583
     13          6           0       -2.112465    2.509362    0.150113
     14          1           0       -3.561950    0.578098   -1.204940
     15          1           0       -4.676925    1.540719   -0.239896
     16          1           0       -2.000643    0.433486    0.742691
     17          1           0       -3.114632    1.395134    1.708020
     18          1           0       -2.846832    3.320265    0.108385
     19          1           0       -1.726514    2.353152   -0.862429
     20          1           0       -1.281672    2.836281    0.783175
     21          6           0        3.749807    0.420037   -0.323953
     22          6           0        2.299401    0.100204    0.039383
     23          6           0        1.318081    1.163957   -0.453802
     24          1           0        4.020873    1.396191    0.101006
     25          1           0        3.833692    0.519938   -1.414997
     26          1           0        2.218555   -0.000432    1.129315
     27          1           0        2.031816   -0.875391   -0.386329
     28          1           0        1.369351    1.259904   -1.543190
     29          1           0        1.557150    2.139835   -0.018934
     30          1           0        0.287122    0.915362   -0.183270
     31          6           0        4.742743   -0.634180    0.162294
     32          6           0        6.193150   -0.314346   -0.201041
     33          6           0        7.174471   -1.378100    0.292144
     34          1           0        4.658859   -0.734081    1.253339
     35          1           0        4.471677   -1.610334   -0.262664
     36          1           0        6.460734    0.661249    0.224671
     37          1           0        6.273997   -0.213711   -1.290973
     38          1           0        6.935401   -2.353977   -0.142723
     39          1           0        7.123200   -1.474047    1.381531
     40          1           0        8.205427   -1.129504    0.021612
 ---------------------------------------------------------------------

 SCF Done:  E(RHF) =  -470.732560644     A.U. after   11 cycles
 E2 =    -0.1583004904D+01 EUMP2 =    -0.47231556554807D+03

 The electronic state is 1-A.
 Alpha  occ. eigenvalues --  -11.21611 -11.21601 -11.21592 -11.21568 -11.21405
 Alpha  occ. eigenvalues --  -11.21387 -11.21346 -11.21328 -11.21071 -11.21065
 Alpha  occ. eigenvalues --  -11.20979 -11.20972  -1.08439  -1.08404  -1.03571
 Alpha  occ. eigenvalues --   -1.03464  -0.96061  -0.95865  -0.87088  -0.86867
 Alpha  occ. eigenvalues --   -0.79628  -0.79531  -0.78246  -0.78224  -0.65084
 Alpha  occ. eigenvalues --   -0.65043  -0.61050  -0.60908  -0.59497  -0.59133
 Alpha  occ. eigenvalues --   -0.57676  -0.57456  -0.55287  -0.55236  -0.52793
 Alpha  occ. eigenvalues --   -0.52448  -0.52396  -0.52333  -0.49904  -0.49875
 Alpha  occ. eigenvalues --   -0.47934  -0.47857  -0.46626  -0.46605  -0.45786
 Alpha  occ. eigenvalues --   -0.45773  -0.45701  -0.45692  -0.43801  -0.43692
 Alpha virt. eigenvalues --    0.21624   0.23042   0.23568   0.25136   0.26472
 Alpha virt. eigenvalues --    0.26628   0.27046   0.27366   0.27755   0.29082
 Alpha virt. eigenvalues --    0.29994   0.31065   0.31423   0.32089   0.32311

 Mulliken charges:
               1
     1  C   -0.298382
     2  C   -0.299661
     3  C   -0.475710
     4  H    0.149610
     5  H    0.149545
     6  H    0.151939
     7  H    0.151978
     8  H    0.155187
     9  H    0.155169
    10  H    0.160257
    11  C   -0.297901
    12  C   -0.304660
    13  C   -0.478983
    14  H    0.149605
    15  H    0.149921
    16  H    0.153447
    17  H    0.152375
    18  H    0.155518
    19  H    0.157577
    20  H    0.162411
    21  C   -0.298508
    22  C   -0.299696
    23  C   -0.482598
    24  H    0.149595
    25  H    0.149399
    26  H    0.151595
    27  H    0.151158
    28  H    0.153927
    29  H    0.154911
    30  H    0.171160
    31  C   -0.298172
    32  C   -0.299596
    33  C   -0.475681
    34  H    0.149452
    35  H    0.149495
    36  H    0.151930
    37  H    0.151883
    38  H    0.155125
    39  H    0.155162
    40  H    0.160219
 Sum of Mulliken charges =  -0.00000

 Dipole moment (field-independent basis, Debye):
    X=             -0.0241    Y=              0.0185    Z=             -0.0007  Tot=              0.0304
 Quadrupole moment (field-independent basis, Debye-Ang):
   XX=            -85.4993   YY=            -85.5199   ZZ=            -83.8429
   XY=             -0.2607   XZ=             -0.3455   YZ=              1.2241

 Normal termination of Gaussian 16 at Wed May  5 19:52:04 2021.
