 Gaussian 16, Revision A.03,
 Gaussian 16:  EM64L-G16RevA.03 25-Dec-2016

 -------------
 #p 6-31g* mp2
 -------------

 ------------------------------------------------------
 Input file generated by CHIRIPA (05-May-2021 14:53:18)
 ------------------------------------------------------
 Symbolic Z-matrix:
 Charge =  0 Multiplicity = 1

                         Standard orientation:
 ---------------------------------------------------------------------
 Center     Atomic      Atomic             Coordinates (Angstroms)
 Number     Number       Type             X           Y           Z
 ---------------------------------------------------------------------
      1          6           0       -2.749178   -0.486997   -0.705000
      2          6           0       -2.843321   -1.855065   -0.028603
      3          6           0       -2.408654   -2.998939   -0.945342
      4          1           0       -3.370864   -0.489323   -1.610785
      5          1           0       -1.714883   -0.319876   -1.036209
      6          1           0       -3.876833   -2.018966    0.302463
      7          1           0       -2.221490   -1.849419    0.875780
      8          1           0       -1.370689   -2.862669   -1.265746
      9          1           0       -3.035437   -3.033179   -1.842321
     10          1           0       -2.483846   -3.967746   -0.441735
     11          6           0       -3.180374    0.666644    0.198832
     12          6           0       -3.086231    2.034712   -0.477565
     13          6           0       -3.520898    3.178586    0.439174
     14          1           0       -4.214669    0.499523    0.530041
     15          1           0       -2.558688    0.668970    1.104617
     16          1           0       -3.708062    2.029066   -1.381949
     17          1           0       -2.052719    2.198613   -0.808631
     18          1           0       -2.894115    3.212826    1.336153
     19          1           0       -4.558863    3.042317    0.759578
     20          1           0       -3.445705    4.147393   -0.064433
     21          6           0        3.575323    0.855212   -1.783256
     22          6           0        3.878380    1.298899   -0.491815
     23          6           0        3.187201    0.793097    0.613167
     24          6           0        2.194507   -0.159638    0.389236
     25          6           0        1.869515   -0.621635   -0.885217
     26          6           0        2.573623   -0.101951   -1.975496
     27          1           0        4.117269    1.253523   -2.635921
     28          1           0        4.655821    2.042161   -0.339522
     29          1           0        3.401481    1.118989    1.623758
     30          1           0        1.089335   -1.363444   -1.005456
     31          1           0        2.336132   -0.448369   -2.977313
     32          7           0        1.455943   -0.702456    1.551247
     33          8           0        0.585759   -1.541066    1.327308
     34          8           0        1.761225   -0.279028    2.663969
 ---------------------------------------------------------------------

 SCF Done:  E(RHF) =  -669.536254485     A.U. after   15 cycles
 E2 =    -0.2092360096D+01 EUMP2 =    -0.67162861458153D+03

 The electronic state is 1-A.
 Alpha  occ. eigenvalues --  -20.60998 -20.60992 -15.86026 -11.31328 -11.27885
 Alpha  occ. eigenvalues --  -11.27880 -11.27612 -11.26888 -11.26878 -11.21269
 Alpha  occ. eigenvalues --  -11.20881 -11.20816 -11.20766 -11.20654 -11.20521
 Alpha  occ. eigenvalues --   -1.60056  -1.39613  -1.19491  -1.08898  -1.07875
 Alpha  occ. eigenvalues --   -1.04883  -1.02983  -0.95746  -0.95480  -0.86503
 Alpha  occ. eigenvalues --   -0.86284  -0.82580  -0.79055  -0.77682  -0.77638
 Alpha  occ. eigenvalues --   -0.72260  -0.71372  -0.70598  -0.65156  -0.64895
 Alpha  occ. eigenvalues --   -0.64469  -0.62235  -0.60346  -0.58850  -0.57082
 Alpha  occ. eigenvalues --   -0.55386  -0.54778  -0.53215  -0.52975  -0.52180
 Alpha  occ. eigenvalues --   -0.51914  -0.49441  -0.49013  -0.49002  -0.47387
 Alpha  occ. eigenvalues --   -0.46071  -0.45316  -0.45177  -0.44833  -0.43249
 Alpha  occ. eigenvalues --   -0.37465  -0.36478
 Alpha virt. eigenvalues --    0.04849   0.11106   0.16351   0.20039   0.23002
 Alpha virt. eigenvalues --    0.24020   0.26217   0.27507   0.28072   0.28114
 Alpha virt. eigenvalues --    0.29199   0.30448   0.31453   0.32301   0.32394

 Mulliken charges:
               1
     1  C   -0.295960
     2  C   -0.307115
     3  C   -0.473488
     4  H    0.144663
     5  H    0.141575
     6  H    0.147553
     7  H    0.179865
     8  H    0.147872
     9  H    0.149388
    10  H    0.162393
    11  C   -0.299995
    12  C   -0.298874
    13  C   -0.475593
    14  H    0.149017
    15  H    0.157046
    16  H    0.149624
    17  H    0.148447
    18  H    0.156923
    19  H    0.155332
    20  H    0.157492
    21  C   -0.170284
    22  C   -0.218613
    23  C   -0.170245
    24  C    0.156709
    25  C   -0.174344
    26  C   -0.220031
    27  H    0.226269
    28  H    0.224009
    29  H    0.275865
    30  H    0.281802
    31  H    0.224722
    32  N    0.490472
    33  O   -0.463821
    34  O   -0.458675
 Sum of Mulliken charges =  -0.00000

 Dipole moment (field-independent basis, Debye):
    X=              2.7623    Y=              1.8751    Z=             -3.8740  Tot=              5.1142
 Quadrupole moment (field-independent basis, Debye-Ang):
   XX=            -81.7489   YY=            -95.3450   ZZ=            -96.7029
   XY=              6.2507   XZ=             -6.3528   YZ=              2.6852

 Normal termination of Gaussian 16 at Wed May  5 20:26:03 2021.
