 Gaussian 16, Revision A.03,
 Gaussian 16:  EM64L-G16RevA.03 25-Dec-2016

 -------------
 #p 6-31g* mp2
 -------------

 ------------------------------------------------------
 Input file generated by CHIRIPA (05-May-2021 14:51:11)
 ------------------------------------------------------
 Symbolic Z-matrix:
 Charge =  0 Multiplicity = 1

                         Standard orientation:
 ---------------------------------------------------------------------
 Center     Atomic      Atomic             Coordinates (Angstroms)
 Number     Number       Type             X           Y           Z
 ---------------------------------------------------------------------
      1          6           0       -1.709025   -0.910340    0.339541
      2          6           0       -1.986929   -1.932423    1.442310
      3          6           0       -0.713020   -2.591018    1.972597
      4          1           0       -1.179771   -1.405795   -0.485904
      5          1           0       -1.030148   -0.138282    0.727417
      6          1           0       -2.666180   -2.701570    1.052890
      7          1           0       -2.515753   -1.434520    2.265143
      8          1           0       -0.034108   -1.838631    2.386836
      9          1           0       -0.185390   -3.112880    1.167696
     10          1           0       -0.934830   -3.318068    2.760035
     11          6           0       -2.972740   -0.243381   -0.200753
     12          6           0       -2.694837    0.778703   -1.303522
     13          6           0       -3.968745    1.437297   -1.833809
     14          1           0       -3.651618   -1.015439   -0.588629
     15          1           0       -3.501995    0.252074    0.624692
     16          1           0       -2.166013    0.280800   -2.126355
     17          1           0       -2.015586    1.547849   -0.914102
     18          1           0       -4.496376    1.959160   -1.028908
     19          1           0       -4.647657    0.684911   -2.248048
     20          1           0       -3.746935    2.164347   -2.621248
     21          6           0        2.439043    1.238231    0.299909
     22          6           0        1.170576    1.741785    0.989410
     23          6           0        1.382888    3.065853    1.723957
     24          1           0        3.233802    1.120192    1.049156
     25          1           0        2.789353    2.000334   -0.409933
     26          1           0        0.821986    0.978375    1.696735
     27          1           0        0.378688    1.858455    0.238466
     28          1           0        1.708331    3.845074    1.027177
     29          1           0        2.154148    2.959995    2.493732
     30          1           0        0.463479    3.407454    2.209607
     31          6           0        2.242722   -0.084510   -0.438697
     32          6           0        3.511189   -0.588064   -1.128198
     33          6           0        3.298878   -1.912133   -1.862745
     34          1           0        1.892413   -0.846614    0.271144
     35          1           0        1.447963    0.033527   -1.187943
     36          1           0        4.303078   -0.704734   -0.377254
     37          1           0        3.859780    0.175344   -1.835523
     38          1           0        2.527618   -1.806275   -2.632519
     39          1           0        2.973434   -2.691354   -1.165965
     40          1           0        4.218286   -2.253734   -2.348395
 ---------------------------------------------------------------------

 SCF Done:  E(RHF) =  -470.732128895     A.U. after   11 cycles
 E2 =    -0.1585418245D+01 EUMP2 =    -0.47231754714025D+03

 The electronic state is 1-A.
 Alpha  occ. eigenvalues --  -11.21658 -11.21605 -11.21578 -11.21546 -11.21405
 Alpha  occ. eigenvalues --  -11.21319 -11.21303 -11.21150 -11.21127 -11.21093
 Alpha  occ. eigenvalues --  -11.21073 -11.21067  -1.08480  -1.08332  -1.03559
 Alpha  occ. eigenvalues --   -1.03509  -0.95994  -0.95950  -0.87020  -0.86966
 Alpha  occ. eigenvalues --   -0.79675  -0.79579  -0.78580  -0.77838  -0.65079
 Alpha  occ. eigenvalues --   -0.65012  -0.61046  -0.60826  -0.59378  -0.59318
 Alpha  occ. eigenvalues --   -0.57613  -0.57563  -0.55282  -0.55240  -0.52732
 Alpha  occ. eigenvalues --   -0.52648  -0.52440  -0.52363  -0.49959  -0.49886
 Alpha  occ. eigenvalues --   -0.48092  -0.47949  -0.46837  -0.46510  -0.46398
 Alpha  occ. eigenvalues --   -0.45667  -0.45591  -0.44808  -0.43787  -0.43725
 Alpha virt. eigenvalues --    0.20723   0.22162   0.23411   0.23704   0.25152
 Alpha virt. eigenvalues --    0.26264   0.26917   0.27629   0.28748   0.29282
 Alpha virt. eigenvalues --    0.30785   0.31645   0.31754   0.31922   0.32166

 Mulliken charges:
               1
     1  C   -0.309681
     2  C   -0.299107
     3  C   -0.477875
     4  H    0.149873
     5  H    0.164351
     6  H    0.151474
     7  H    0.151185
     8  H    0.155213
     9  H    0.155655
    10  H    0.160244
    11  C   -0.297518
    12  C   -0.303827
    13  C   -0.475420
    14  H    0.148970
    15  H    0.148888
    16  H    0.151417
    17  H    0.154748
    18  H    0.155244
    19  H    0.155419
    20  H    0.159910
    21  C   -0.297463
    22  C   -0.310039
    23  C   -0.474457
    24  H    0.149486
    25  H    0.149462
    26  H    0.154015
    27  H    0.158052
    28  H    0.155497
    29  H    0.155417
    30  H    0.159774
    31  C   -0.302717
    32  C   -0.299645
    33  C   -0.475710
    34  H    0.154083
    35  H    0.151458
    36  H    0.151780
    37  H    0.151671
    38  H    0.154774
    39  H    0.155130
    40  H    0.160266
 Sum of Mulliken charges =  -0.00000

 Dipole moment (field-independent basis, Debye):
    X=              0.0312    Y=              0.0249    Z=              0.0056  Tot=              0.0404
 Quadrupole moment (field-independent basis, Debye-Ang):
   XX=            -85.5478   YY=            -85.2689   ZZ=            -84.1929
   XY=              0.3753   XZ=             -0.1107   YZ=             -0.1681

 Normal termination of Gaussian 16 at Thu May  6 02:17:32 2021.
