 Gaussian 16, Revision A.03,
 Gaussian 16:  EM64L-G16RevA.03 25-Dec-2016

 -------------
 #p 6-31g* mp2
 -------------

 ------------------------------------------------------
 Input file generated by CHIRIPA (05-May-2021 14:51:09)
 ------------------------------------------------------
 Symbolic Z-matrix:
 Charge =  0 Multiplicity = 1

                         Standard orientation:
 ---------------------------------------------------------------------
 Center     Atomic      Atomic             Coordinates (Angstroms)
 Number     Number       Type             X           Y           Z
 ---------------------------------------------------------------------
      1          6           0        3.978429    0.018119    0.174279
      2          6           0        4.784571   -0.674373   -0.925073
      3          6           0        5.776621   -1.699194   -0.374280
      4          1           0        4.669440    0.512260    0.870895
      5          1           0        3.437656   -0.741010    0.756244
      6          1           0        5.322573    0.085950   -1.505659
      7          1           0        4.091552   -1.166761   -1.619259
      8          1           0        5.252731   -2.478768    0.188218
      9          1           0        6.490747   -1.218941    0.302464
     10          1           0        6.342216   -2.182184   -1.177202
     11          6           0        2.982357    1.045454   -0.360654
     12          6           0        2.176215    1.737946    0.738698
     13          6           0        1.184165    2.762767    0.187906
     14          1           0        3.523130    1.804583   -0.942618
     15          1           0        2.291346    0.551314   -1.057269
     16          1           0        2.869234    2.230334    1.432885
     17          1           0        1.638213    0.977624    1.319285
     18          1           0        0.470039    2.282514   -0.488838
     19          1           0        1.708055    3.542342   -0.374592
     20          1           0        0.618571    3.245757    0.990827
     21          6           0       -4.224002   -0.688874    0.017019
     22          6           0       -5.039010    0.484726   -0.527418
     23          6           0       -6.524792    0.155029   -0.674188
     24          1           0       -4.345157   -1.552454   -0.651185
     25          1           0       -4.632114   -0.988558    0.992225
     26          1           0       -4.628616    0.783001   -1.500672
     27          1           0       -4.915746    1.345671    0.142056
     28          1           0       -6.955390   -0.121835    0.293558
     29          1           0       -6.666629   -0.687702   -1.358504
     30          1           0       -7.088590    1.007889   -1.064856
     31          6           0       -2.736785   -0.374699    0.169356
     32          6           0       -1.921777   -1.548299    0.713792
     33          6           0       -0.435993   -1.218601    0.860562
     34          1           0       -2.328672   -0.075016   -0.805852
     35          1           0       -2.615628    0.488881    0.837559
     36          1           0       -2.045039   -2.409244    0.044318
     37          1           0       -2.332171   -1.846575    1.687047
     38          1           0       -0.294158   -0.375872    1.544879
     39          1           0       -0.005396   -0.941737   -0.107184
     40          1           0        0.127804   -2.071463    1.251230
 ---------------------------------------------------------------------

 SCF Done:  E(RHF) =  -470.732986658     A.U. after   11 cycles
 E2 =    -0.1583411918D+01 EUMP2 =    -0.47231639857584D+03

 The electronic state is 1-A.
 Alpha  occ. eigenvalues --  -11.21671 -11.21622 -11.21549 -11.21449 -11.21440
 Alpha  occ. eigenvalues --  -11.21388 -11.21323 -11.21263 -11.21170 -11.21087
 Alpha  occ. eigenvalues --  -11.21032 -11.20987  -1.08480  -1.08343  -1.03595
 Alpha  occ. eigenvalues --   -1.03439  -0.96040  -0.95905  -0.87072  -0.86911
 Alpha  occ. eigenvalues --   -0.79680  -0.79490  -0.78292  -0.78157  -0.65106
 Alpha  occ. eigenvalues --   -0.64989  -0.61006  -0.60865  -0.59398  -0.59278
 Alpha  occ. eigenvalues --   -0.57647  -0.57502  -0.55387  -0.55140  -0.52738
 Alpha  occ. eigenvalues --   -0.52599  -0.52475  -0.52328  -0.50004  -0.49835
 Alpha  occ. eigenvalues --   -0.48087  -0.47729  -0.46786  -0.46427  -0.45900
 Alpha  occ. eigenvalues --   -0.45779  -0.45634  -0.45491  -0.43832  -0.43704
 Alpha virt. eigenvalues --    0.20672   0.22936   0.23793   0.25015   0.25644
 Alpha virt. eigenvalues --    0.26019   0.27010   0.27474   0.28311   0.29448
 Alpha virt. eigenvalues --    0.30181   0.31068   0.31526   0.31879   0.32335

 Mulliken charges:
               1
     1  C   -0.299061
     2  C   -0.299523
     3  C   -0.475640
     4  H    0.149338
     5  H    0.150856
     6  H    0.151706
     7  H    0.151623
     8  H    0.155114
     9  H    0.155081
    10  H    0.159999
    11  C   -0.298491
    12  C   -0.305454
    13  C   -0.476232
    14  H    0.148998
    15  H    0.149665
    16  H    0.150905
    17  H    0.160011
    18  H    0.155832
    19  H    0.154784
    20  H    0.159110
    21  C   -0.298348
    22  C   -0.299705
    23  C   -0.475748
    24  H    0.149694
    25  H    0.149650
    26  H    0.152028
    27  H    0.152190
    28  H    0.155202
    29  H    0.155177
    30  H    0.160405
    31  C   -0.298597
    32  C   -0.300100
    33  C   -0.480299
    34  H    0.149227
    35  H    0.150420
    36  H    0.152064
    37  H    0.152286
    38  H    0.158590
    39  H    0.156992
    40  H    0.160248
 Sum of Mulliken charges =  -0.00000

 Dipole moment (field-independent basis, Debye):
    X=             -0.0502    Y=             -0.0271    Z=              0.0214  Tot=              0.0610
 Quadrupole moment (field-independent basis, Debye-Ang):
   XX=            -86.1394   YY=            -84.8661   ZZ=            -83.9359
   XY=              0.9116   XZ=             -0.4646   YZ=              0.5262

 Normal termination of Gaussian 16 at Thu May  6 06:56:24 2021.
