 Gaussian 16, Revision A.03,
 Gaussian 16:  EM64L-G16RevA.03 25-Dec-2016

 -------------
 #p 6-31g* mp2
 -------------

 ------------------------------------------------------
 Input file generated by CHIRIPA (05-May-2021 14:51:13)
 ------------------------------------------------------
 Symbolic Z-matrix:
 Charge =  0 Multiplicity = 1

                         Standard orientation:
 ---------------------------------------------------------------------
 Center     Atomic      Atomic             Coordinates (Angstroms)
 Number     Number       Type             X           Y           Z
 ---------------------------------------------------------------------
      1          6           0        4.848512   -0.019451   -0.207294
      2          6           0        5.688096    1.176454    0.243142
      3          6           0        7.115137    1.136647   -0.304365
      4          1           0        5.340736   -0.947178    0.115169
      5          1           0        4.820305   -0.045968   -1.305427
      6          1           0        5.713564    1.201507    1.340111
      7          1           0        5.193718    2.101448   -0.080264
      8          1           0        7.107825    1.135313   -1.399146
      9          1           0        7.630626    0.230259    0.029299
     10          1           0        7.697656    2.000800    0.029959
     11          6           0        3.419429    0.006153    0.331961
     12          6           0        2.579845   -1.189753   -0.118475
     13          6           0        1.152804   -1.149946    0.429032
     14          1           0        3.447636    0.032670    1.430094
     15          1           0        2.927205    0.933880    0.009498
     16          1           0        3.074223   -2.114747    0.204932
     17          1           0        2.554377   -1.214805   -1.215444
     18          1           0        0.637315   -0.243557    0.095368
     19          1           0        1.160116   -1.148611    1.523813
     20          1           0        0.570285   -2.014098    0.094708
     21          6           0       -3.592794   -0.481284   -0.291421
     22          6           0       -3.811594   -1.908893    0.210620
     23          6           0       -2.720738   -2.873321   -0.255970
     24          1           0       -3.552083   -0.487665   -1.389259
     25          1           0       -2.613323   -0.124078    0.055614
     26          1           0       -4.790957   -2.262800   -0.136097
     27          1           0       -3.851981   -1.899087    1.307383
     28          1           0       -1.739021   -2.546965    0.102255
     29          1           0       -2.683332   -2.912744   -1.349426
     30          1           0       -2.896832   -3.888098    0.114272
     31          6           0       -4.675147    0.494583    0.166754
     32          6           0       -4.456347    1.922191   -0.335287
     33          6           0       -5.547203    2.886620    0.131303
     34          1           0       -5.654619    0.137377   -0.180281
     35          1           0       -4.715858    0.500963    1.264592
     36          1           0       -4.415960    1.912386   -1.432050
     37          1           0       -3.476983    2.276098    0.011431
     38          1           0       -5.584607    2.926042    1.224759
     39          1           0       -6.528920    2.560263   -0.226923
     40          1           0       -5.371108    3.901396   -0.238938
 ---------------------------------------------------------------------

 SCF Done:  E(RHF) =  -470.733288359     A.U. after   11 cycles
 E2 =    -0.1582425167D+01 EUMP2 =    -0.47231571352609D+03

 The electronic state is 1-A.
 Alpha  occ. eigenvalues --  -11.21627 -11.21612 -11.21579 -11.21546 -11.21421
 Alpha  occ. eigenvalues --  -11.21361 -11.21361 -11.21298 -11.21108 -11.21078
 Alpha  occ. eigenvalues --  -11.21053 -11.20980  -1.08448  -1.08386  -1.03555
 Alpha  occ. eigenvalues --   -1.03482  -0.96018  -0.95924  -0.87052  -0.86929
 Alpha  occ. eigenvalues --   -0.79648  -0.79521  -0.78262  -0.78194  -0.65078
 Alpha  occ. eigenvalues --   -0.65016  -0.60951  -0.60899  -0.59422  -0.59275
 Alpha  occ. eigenvalues --   -0.57685  -0.57483  -0.55289  -0.55234  -0.52816
 Alpha  occ. eigenvalues --   -0.52631  -0.52459  -0.52231  -0.49946  -0.49858
 Alpha  occ. eigenvalues --   -0.47959  -0.47830  -0.46657  -0.46574  -0.45818
 Alpha  occ. eigenvalues --   -0.45745  -0.45719  -0.45646  -0.43763  -0.43737
 Alpha virt. eigenvalues --    0.22003   0.22971   0.23600   0.24712   0.25907
 Alpha virt. eigenvalues --    0.26583   0.26977   0.27209   0.27810   0.28958
 Alpha virt. eigenvalues --    0.30133   0.31083   0.31676   0.31803   0.32010

 Mulliken charges:
               1
     1  C   -0.298271
     2  C   -0.299634
     3  C   -0.475712
     4  H    0.149710
     5  H    0.149632
     6  H    0.151910
     7  H    0.151958
     8  H    0.155225
     9  H    0.155204
    10  H    0.160278
    11  C   -0.298737
    12  C   -0.299336
    13  C   -0.481989
    14  H    0.149459
    15  H    0.149666
    16  H    0.152185
    17  H    0.152402
    18  H    0.155837
    19  H    0.155025
    20  H    0.165902
    21  C   -0.299682
    22  C   -0.298877
    23  C   -0.483510
    24  H    0.149267
    25  H    0.151418
    26  H    0.151565
    27  H    0.151827
    28  H    0.163466
    29  H    0.154545
    30  H    0.159720
    31  C   -0.298259
    32  C   -0.299596
    33  C   -0.475668
    34  H    0.149415
    35  H    0.149653
    36  H    0.151785
    37  H    0.151772
    38  H    0.155191
    39  H    0.155153
    40  H    0.160102
 Sum of Mulliken charges =  -0.00000

 Dipole moment (field-independent basis, Debye):
    X=              0.0360    Y=             -0.0017    Z=              0.0028  Tot=              0.0361
 Quadrupole moment (field-independent basis, Debye-Ang):
   XX=            -86.1408   YY=            -85.2101   ZZ=            -83.5539
   XY=              0.3548   XZ=              1.2044   YZ=             -0.4508

 Normal termination of Gaussian 16 at Thu May  6 07:07:18 2021.
