 Gaussian 16, Revision A.03,
 Gaussian 16:  EM64L-G16RevA.03 25-Dec-2016

 -------------
 #p 6-31g* mp2
 -------------

 ------------------------------------------------------
 Input file generated by CHIRIPA (05-May-2021 14:55:21)
 ------------------------------------------------------
 Symbolic Z-matrix:
 Charge =  0 Multiplicity = 1

                         Standard orientation:
 ---------------------------------------------------------------------
 Center     Atomic      Atomic             Coordinates (Angstroms)
 Number     Number       Type             X           Y           Z
 ---------------------------------------------------------------------
      1          6           0        0.743260   -1.516326    1.017901
      2          6           0        1.927697   -2.210573    0.750223
      3          6           0        3.046590   -1.538849    0.248812
      4          6           0        2.945533   -0.166498    0.025808
      5          6           0        1.779554    0.553135    0.282537
      6          6           0        0.673093   -0.139116    0.783617
      7          1           0       -0.121094   -2.046110    1.407280
      8          1           0        1.985070   -3.280152    0.931207
      9          1           0        3.975986   -2.051661    0.032791
     10          1           0        1.752715    1.619147    0.091969
     11          1           0       -0.245452    0.402630    0.990578
     12          7           0        4.123475    0.555491   -0.504837
     13          8           0        4.008816    1.764700   -0.692731
     14          8           0        5.139099   -0.101493   -0.722816
     15          6           0       -4.054417   -0.140932   -0.353148
     16          6           0       -3.557320   -1.586779   -0.333014
     17          6           0       -4.634268   -2.588046   -0.751871
     18          1           0       -4.922157   -0.048910    0.314312
     19          1           0       -4.410147    0.103114   -1.363739
     20          1           0       -3.201352   -1.827588    0.676894
     21          1           0       -2.690544   -1.675326   -1.000453
     22          1           0       -4.983471   -2.375834   -1.767560
     23          1           0       -5.497180   -2.528961   -0.080683
     24          1           0       -4.257463   -3.615381   -0.730378
     25          6           0       -2.989152    0.871788    0.063190
     26          6           0       -3.486249    2.317635    0.043054
     27          6           0       -2.409301    3.318903    0.461912
     28          1           0       -2.633423    0.627742    1.073780
     29          1           0       -2.121412    0.779767   -0.604271
     30          1           0       -4.353024    2.406183    0.710494
     31          1           0       -3.842218    2.558445   -0.966853
     32          1           0       -1.546388    3.259818   -0.209277
     33          1           0       -2.060098    3.106691    1.477601
     34          1           0       -2.786106    4.346238    0.440418
 ---------------------------------------------------------------------

 SCF Done:  E(RHF) =  -669.535261323     A.U. after   15 cycles
 E2 =    -0.2092493867D+01 EUMP2 =    -0.67162775519083D+03

 The electronic state is 1-A.
 Alpha  occ. eigenvalues --  -20.60683 -20.60678 -15.85733 -11.31072 -11.27639
 Alpha  occ. eigenvalues --  -11.27608 -11.27345 -11.26654 -11.26516 -11.22590
 Alpha  occ. eigenvalues --  -11.22538 -11.22459 -11.22308 -11.21942 -11.21855
 Alpha  occ. eigenvalues --   -1.59759  -1.39313  -1.19232  -1.09426  -1.08628
 Alpha  occ. eigenvalues --   -1.04629  -1.04439  -0.96889  -0.95473  -0.87905
 Alpha  occ. eigenvalues --   -0.86031  -0.82311  -0.80514  -0.79328  -0.77338
 Alpha  occ. eigenvalues --   -0.71952  -0.71082  -0.70337  -0.66037  -0.64877
 Alpha  occ. eigenvalues --   -0.64636  -0.61998  -0.61821  -0.60252  -0.58513
 Alpha  occ. eigenvalues --   -0.56168  -0.55127  -0.53548  -0.53393  -0.52962
 Alpha  occ. eigenvalues --   -0.52655  -0.50821  -0.48845  -0.48710  -0.48677
 Alpha  occ. eigenvalues --   -0.47540  -0.46749  -0.46703  -0.44725  -0.44715
 Alpha  occ. eigenvalues --   -0.37206  -0.36222
 Alpha virt. eigenvalues --    0.05157   0.11356   0.16612   0.19806   0.22381
 Alpha virt. eigenvalues --    0.22750   0.24858   0.25977   0.26639   0.28420
 Alpha virt. eigenvalues --    0.28965   0.29952   0.30992   0.31475   0.31562

 Mulliken charges:
               1
     1  C   -0.174952
     2  C   -0.218645
     3  C   -0.171582
     4  C    0.159032
     5  C   -0.175025
     6  C   -0.224742
     7  H    0.226648
     8  H    0.222793
     9  H    0.275014
    10  H    0.275460
    11  H    0.236708
    12  N    0.488011
    13  O   -0.460736
    14  O   -0.460889
    15  C   -0.297234
    16  C   -0.302521
    17  C   -0.475924
    18  H    0.152505
    19  H    0.154389
    20  H    0.144393
    21  H    0.154859
    22  H    0.158691
    23  H    0.157105
    24  H    0.160889
    25  C   -0.307425
    26  C   -0.299048
    27  C   -0.479608
    28  H    0.142172
    29  H    0.153398
    30  H    0.154920
    31  H    0.156615
    32  H    0.154730
    33  H    0.153001
    34  H    0.166997
 Sum of Mulliken charges =  -0.00000

 Dipole moment (field-independent basis, Debye):
    X=             -4.4537    Y=             -2.4635    Z=              1.7613  Tot=              5.3858
 Quadrupole moment (field-independent basis, Debye-Ang):
   XX=           -117.8715   YY=            -90.6666   ZZ=            -94.6313
   XY=            -10.1637   XZ=              5.2705   YZ=             -0.6221

 Normal termination of Gaussian 16 at Thu May  6 09:21:15 2021.
