 Gaussian 16, Revision A.03,
 Gaussian 16:  EM64L-G16RevA.03 25-Dec-2016

 -------------
 #p 6-31g* mp2
 -------------

 ------------------------------------------------------
 Input file generated by CHIRIPA (05-May-2021 14:55:22)
 ------------------------------------------------------
 Symbolic Z-matrix:
 Charge =  0 Multiplicity = 1

                         Standard orientation:
 ---------------------------------------------------------------------
 Center     Atomic      Atomic             Coordinates (Angstroms)
 Number     Number       Type             X           Y           Z
 ---------------------------------------------------------------------
      1          6           0       -0.180444   -2.528994   -0.497295
      2          6           0        0.809181   -2.219698   -1.436177
      3          6           0        1.830599   -1.318791   -1.120552
      4          6           0        1.831779   -0.743073    0.149030
      5          6           0        0.859937   -1.030949    1.106078
      6          6           0       -0.151957   -1.934680    0.768604
      7          1           0       -0.970207   -3.229937   -0.750966
      8          1           0        0.789573   -2.679731   -2.420062
      9          1           0        2.609214   -1.061446   -1.828330
     10          1           0        0.905992   -0.556370    2.078740
     11          1           0       -0.919204   -2.173007    1.499752
     12          7           0        2.908068    0.212171    0.494733
     13          8           0        2.886727    0.705875    1.620095
     14          8           0        3.752624    0.449100   -0.366212
     15          6           0       -2.631134    0.821509    0.340521
     16          6           0       -3.336135   -0.373452   -0.302152
     17          6           0       -4.360491   -1.025314    0.627130
     18          1           0       -2.134116    0.492934    1.263536
     19          1           0       -3.383113    1.565356    0.638204
     20          1           0       -2.582940   -1.114212   -0.599786
     21          1           0       -3.831372   -0.042033   -1.223844
     22          1           0       -5.133148   -0.304922    0.914599
     23          1           0       -3.877622   -1.383194    1.542203
     24          1           0       -4.852522   -1.877299    0.147664
     25          6           0       -1.604115    1.483795   -0.576180
     26          6           0       -0.899114    2.678755    0.066494
     27          6           0        0.125242    3.330618   -0.862788
     28          1           0       -0.852136    0.739948   -0.873862
     29          1           0       -2.101133    1.812370   -1.499194
     30          1           0       -0.403877    2.347337    0.988186
     31          1           0       -1.652309    3.419515    0.364129
     32          1           0       -0.357626    3.688498   -1.777862
     33          1           0        0.897899    2.610226   -1.150257
     34          1           0        0.617273    4.182603   -0.383322
 ---------------------------------------------------------------------

 SCF Done:  E(RHF) =  -669.533978189     A.U. after   15 cycles
 E2 =    -0.2097498622D+01 EUMP2 =    -0.67163147681145D+03

 The electronic state is 1-A.
 Alpha  occ. eigenvalues --  -20.60921 -20.60916 -15.85972 -11.31377 -11.27946
 Alpha  occ. eigenvalues --  -11.27921 -11.27662 -11.26964 -11.26934 -11.22017
 Alpha  occ. eigenvalues --  -11.21755 -11.21666 -11.21454 -11.21343 -11.20780
 Alpha  occ. eigenvalues --   -1.59991  -1.39543  -1.19567  -1.08970  -1.08594
 Alpha  occ. eigenvalues --   -1.04958  -1.03709  -0.96158  -0.95770  -0.87175
 Alpha  occ. eigenvalues --   -0.86349  -0.82599  -0.79802  -0.78383  -0.77632
 Alpha  occ. eigenvalues --   -0.72185  -0.71323  -0.70663  -0.65439  -0.65198
 Alpha  occ. eigenvalues --   -0.64872  -0.62296  -0.61103  -0.59572  -0.57742
 Alpha  occ. eigenvalues --   -0.55518  -0.55451  -0.53289  -0.53034  -0.52820
 Alpha  occ. eigenvalues --   -0.52567  -0.50137  -0.48947  -0.48939  -0.48114
 Alpha  occ. eigenvalues --   -0.46884  -0.45912  -0.45730  -0.44920  -0.43925
 Alpha  occ. eigenvalues --   -0.37436  -0.36516
 Alpha virt. eigenvalues --    0.04835   0.10988   0.16193   0.19709   0.23056
 Alpha virt. eigenvalues --    0.23720   0.25404   0.26668   0.27484   0.28590
 Alpha virt. eigenvalues --    0.29056   0.29342   0.31255   0.31734   0.32175

 Mulliken charges:
               1
     1  C   -0.173168
     2  C   -0.218367
     3  C   -0.172494
     4  C    0.158937
     5  C   -0.171643
     6  C   -0.214512
     7  H    0.227928
     8  H    0.224919
     9  H    0.276743
    10  H    0.276288
    11  H    0.226820
    12  N    0.488584
    13  O   -0.459729
    14  O   -0.459728
    15  C   -0.294650
    16  C   -0.305987
    17  C   -0.475969
    18  H    0.142090
    19  H    0.151102
    20  H    0.150854
    21  H    0.153572
    22  H    0.160013
    23  H    0.147529
    24  H    0.158430
    25  C   -0.303211
    26  C   -0.302485
    27  C   -0.474859
    28  H    0.155838
    29  H    0.148199
    30  H    0.154356
    31  H    0.151081
    32  H    0.152731
    33  H    0.155301
    34  H    0.165488
 Sum of Mulliken charges =  -0.00000

 Dipole moment (field-independent basis, Debye):
    X=             -3.6162    Y=             -3.3602    Z=             -1.2540  Tot=              5.0932
 Quadrupole moment (field-independent basis, Debye-Ang):
   XX=           -108.8685   YY=            -90.0432   ZZ=            -91.3477
   XY=             -4.5920   XZ=             -4.1447   YZ=              1.2978

 Normal termination of Gaussian 16 at Thu May  6 04:39:15 2021.
