 Gaussian 16, Revision A.03,
 Gaussian 16:  EM64L-G16RevA.03 25-Dec-2016

 -------------
 #p 6-31g* mp2
 -------------

 ------------------------------------------------------
 Input file generated by CHIRIPA (05-May-2021 14:55:21)
 ------------------------------------------------------
 Symbolic Z-matrix:
 Charge =  0 Multiplicity = 1

                         Standard orientation:
 ---------------------------------------------------------------------
 Center     Atomic      Atomic             Coordinates (Angstroms)
 Number     Number       Type             X           Y           Z
 ---------------------------------------------------------------------
      1          6           0       -3.163304    0.319026   -1.487517
      2          6           0       -2.182260   -0.569199   -1.940429
      3          6           0       -1.302169   -1.175008   -1.038773
      4          6           0       -1.432031   -0.868498    0.314917
      5          6           0       -2.399061    0.012247    0.797029
      6          6           0       -3.268389    0.606407   -0.122640
      7          1           0       -3.842799    0.785109   -2.194942
      8          1           0       -2.098322   -0.794250   -2.999840
      9          1           0       -0.533492   -1.866361   -1.362169
     10          1           0       -2.458210    0.216917    1.859116
     11          1           0       -4.029318    1.295824    0.231952
     12          7           0       -0.506016   -1.503675    1.278995
     13          8           0       -0.641129   -1.217031    2.466520
     14          8           0        0.337374   -2.276144    0.828858
     15          6           0        1.532787    1.530389   -0.379606
     16          6           0        1.354078    2.568782    0.728451
     17          6           0        0.359620    3.668045    0.353663
     18          1           0        1.869823    2.035038   -1.295401
     19          1           0        0.557561    1.080351   -0.611542
     20          1           0        2.329582    3.015738    0.959190
     21          1           0        1.017613    2.061576    1.641769
     22          1           0       -0.626055    3.240474    0.143362
     23          1           0        0.693366    4.200058   -0.543096
     24          1           0        0.247097    4.399554    1.159948
     25          6           0        2.523917    0.424972   -0.019819
     26          6           0        2.702625   -0.613420   -1.127875
     27          6           0        3.697083   -1.712683   -0.753088
     28          1           0        3.499142    0.875010    0.212117
     29          1           0        2.186880   -0.079677    0.895976
     30          1           0        3.039089   -0.106214   -2.041193
     31          1           0        1.727122   -1.060376   -1.358615
     32          1           0        3.363337   -2.244697    0.143672
     33          1           0        4.682760   -1.285113   -0.542786
     34          1           0        3.809606   -2.444192   -1.559372
 ---------------------------------------------------------------------

 SCF Done:  E(RHF) =  -669.534727575     A.U. after   15 cycles
 E2 =    -0.2097377120D+01 EUMP2 =    -0.67163210469444D+03

 The electronic state is 1-A.
 Alpha  occ. eigenvalues --  -20.61106 -20.61101 -15.86105 -11.31381 -11.27971
 Alpha  occ. eigenvalues --  -11.27937 -11.27696 -11.26976 -11.26948 -11.21273
 Alpha  occ. eigenvalues --  -11.20957 -11.20928 -11.20919 -11.20634 -11.20114
 Alpha  occ. eigenvalues --   -1.60160  -1.39717  -1.19587  -1.08985  -1.07911
 Alpha  occ. eigenvalues --   -1.04970  -1.02996  -0.95834  -0.95452  -0.86475
 Alpha  occ. eigenvalues --   -0.86363  -0.82666  -0.79118  -0.77805  -0.77637
 Alpha  occ. eigenvalues --   -0.72353  -0.71554  -0.70683  -0.65248  -0.64981
 Alpha  occ. eigenvalues --   -0.64471  -0.62339  -0.60360  -0.58851  -0.57075
 Alpha  occ. eigenvalues --   -0.55465  -0.54765  -0.53342  -0.53058  -0.52161
 Alpha  occ. eigenvalues --   -0.51872  -0.49417  -0.49112  -0.49095  -0.47414
 Alpha  occ. eigenvalues --   -0.46106  -0.45388  -0.45105  -0.44882  -0.43252
 Alpha  occ. eigenvalues --   -0.37491  -0.36521
 Alpha virt. eigenvalues --    0.04727   0.10983   0.16210   0.20977   0.23204
 Alpha virt. eigenvalues --    0.24644   0.26439   0.27220   0.27907   0.28460
 Alpha virt. eigenvalues --    0.28672   0.30456   0.31445   0.32102   0.32557

 Mulliken charges:
               1
     1  C   -0.170424
     2  C   -0.216769
     3  C   -0.173381
     4  C    0.159606
     5  C   -0.171345
     6  C   -0.218150
     7  H    0.227034
     8  H    0.225088
     9  H    0.278225
    10  H    0.276523
    11  H    0.224990
    12  N    0.489372
    13  O   -0.458542
    14  O   -0.459733
    15  C   -0.306415
    16  C   -0.300286
    17  C   -0.476319
    18  H    0.146158
    19  H    0.150959
    20  H    0.152567
    21  H    0.155788
    22  H    0.150868
    23  H    0.153513
    24  H    0.158929
    25  C   -0.306488
    26  C   -0.294651
    27  C   -0.479544
    28  H    0.147991
    29  H    0.164710
    30  H    0.144132
    31  H    0.146522
    32  H    0.175015
    33  H    0.150439
    34  H    0.153620
 Sum of Mulliken charges =  -0.00000

 Dipole moment (field-independent basis, Debye):
    X=             -3.4405    Y=              2.0133    Z=             -3.2193  Tot=              5.1239
 Quadrupole moment (field-independent basis, Debye-Ang):
   XX=            -84.8683   YY=            -98.8368   ZZ=            -94.2801
   XY=             -0.9015   XZ=              2.2850   YZ=              5.5446

 Normal termination of Gaussian 16 at Wed May  5 22:15:04 2021.
