 Gaussian 16, Revision A.03,
 Gaussian 16:  EM64L-G16RevA.03 25-Dec-2016

 -------------
 #p 6-31g* mp2
 -------------

 ------------------------------------------------------
 Input file generated by CHIRIPA (05-May-2021 14:55:22)
 ------------------------------------------------------
 Symbolic Z-matrix:
 Charge =  0 Multiplicity = 1

                         Standard orientation:
 ---------------------------------------------------------------------
 Center     Atomic      Atomic             Coordinates (Angstroms)
 Number     Number       Type             X           Y           Z
 ---------------------------------------------------------------------
      1          6           0        1.687864    2.567816    0.173189
      2          6           0        2.723440    2.292638   -0.725912
      3          6           0        3.359700    1.047795   -0.716661
      4          6           0        2.933055    0.097090    0.209311
      5          6           0        1.904290    0.341121    1.117817
      6          6           0        1.282310    1.592898    1.090566
      7          1           0        1.199148    3.537533    0.159011
      8          1           0        3.040487    3.047864   -1.439466
      9          1           0        4.164059    0.808170   -1.401501
     10          1           0        1.610248   -0.431832    1.817461
     11          1           0        0.478346    1.803817    1.789995
     12          7           0        3.599077   -1.224440    0.228633
     13          8           0        3.204622   -2.045036    1.054262
     14          8           0        4.502948   -1.414635   -0.582219
     15          6           0       -2.984058   -0.309128   -0.685771
     16          6           0       -1.838945   -1.238109   -0.281177
     17          6           0       -0.586010   -1.038281   -1.134416
     18          1           0       -3.228295   -0.477787   -1.743527
     19          1           0       -2.646934    0.733588   -0.605234
     20          1           0       -2.178568   -2.278724   -0.361126
     21          1           0       -1.597534   -1.067353    0.775790
     22          1           0       -0.220236   -0.010108   -1.046834
     23          1           0       -0.804572   -1.228362   -2.190210
     24          1           0        0.220002   -1.712360   -0.828115
     25          6           0       -4.243556   -0.497002    0.158086
     26          6           0       -5.388669    0.431979   -0.246508
     27          6           0       -6.641603    0.232151    0.606730
     28          1           0       -4.580681   -1.539717    0.077548
     29          1           0       -3.999319   -0.328342    1.215842
     30          1           0       -5.630080    0.261224   -1.303476
     31          1           0       -5.049046    1.472595   -0.166559
     32          1           0       -6.423043    0.422232    1.662525
     33          1           0       -7.007378   -0.796021    0.519147
     34          1           0       -7.447616    0.906230    0.300429
 ---------------------------------------------------------------------

 SCF Done:  E(RHF) =  -669.535040636     A.U. after   15 cycles
 E2 =    -0.2093092479D+01 EUMP2 =    -0.67162813311474D+03

 The electronic state is 1-A.
 Alpha  occ. eigenvalues --  -20.60816 -20.60807 -15.85859 -11.31199 -11.27806
 Alpha  occ. eigenvalues --  -11.27785 -11.27574 -11.26823 -11.26805 -11.21875
 Alpha  occ. eigenvalues --  -11.21765 -11.21661 -11.21602 -11.21311 -11.20972
 Alpha  occ. eigenvalues --   -1.59883  -1.39438  -1.19410  -1.08805  -1.08659
 Alpha  occ. eigenvalues --   -1.04819  -1.03704  -0.96147  -0.95633  -0.87163
 Alpha  occ. eigenvalues --   -0.86209  -0.82469  -0.79778  -0.78478  -0.77511
 Alpha  occ. eigenvalues --   -0.72080  -0.71205  -0.70524  -0.65308  -0.65062
 Alpha  occ. eigenvalues --   -0.64817  -0.62164  -0.61135  -0.59518  -0.57753
 Alpha  occ. eigenvalues --   -0.55558  -0.55322  -0.53261  -0.52908  -0.52713
 Alpha  occ. eigenvalues --   -0.52496  -0.50015  -0.48840  -0.48834  -0.48079
 Alpha  occ. eigenvalues --   -0.46806  -0.46011  -0.45951  -0.44845  -0.43970
 Alpha  occ. eigenvalues --   -0.37380  -0.36357
 Alpha virt. eigenvalues --    0.05013   0.11189   0.16459   0.20926   0.22725
 Alpha virt. eigenvalues --    0.24055   0.26125   0.26910   0.27598   0.27761
 Alpha virt. eigenvalues --    0.28422   0.30555   0.31266   0.31529   0.31872

 Mulliken charges:
               1
     1  C   -0.171238
     2  C   -0.218547
     3  C   -0.170437
     4  C    0.160812
     5  C   -0.167065
     6  C   -0.220251
     7  H    0.225925
     8  H    0.223802
     9  H    0.275947
    10  H    0.275760
    11  H    0.223457
    12  N    0.487954
    13  O   -0.460799
    14  O   -0.459933
    15  C   -0.297579
    16  C   -0.298330
    17  C   -0.482518
    18  H    0.151310
    19  H    0.144425
    20  H    0.155458
    21  H    0.144459
    22  H    0.158492
    23  H    0.154636
    24  H    0.164447
    25  C   -0.297986
    26  C   -0.299358
    27  C   -0.475701
    28  H    0.151741
    29  H    0.147227
    30  H    0.152937
    31  H    0.149422
    32  H    0.154508
    33  H    0.156527
    34  H    0.160496
 Sum of Mulliken charges =  -0.00000

 Dipole moment (field-independent basis, Debye):
    X=             -2.2824    Y=              4.6357    Z=             -0.0988  Tot=              5.1680
 Quadrupole moment (field-independent basis, Debye-Ang):
   XX=           -108.0018   YY=            -93.4609   ZZ=            -92.2299
   XY=             14.8970   XZ=             -2.5159   YZ=              0.2234

 Normal termination of Gaussian 16 at Wed May  5 17:30:49 2021.
