 Gaussian 16, Revision A.03,
 Gaussian 16:  EM64L-G16RevA.03 25-Dec-2016

 -------------
 #p 6-31g* mp2
 -------------

 ------------------------------------------------------
 Input file generated by CHIRIPA (05-May-2021 14:57:24)
 ------------------------------------------------------
 Symbolic Z-matrix:
 Charge =  0 Multiplicity = 1

                         Standard orientation:
 ---------------------------------------------------------------------
 Center     Atomic      Atomic             Coordinates (Angstroms)
 Number     Number       Type             X           Y           Z
 ---------------------------------------------------------------------
      1          6           0       -3.519662    2.361788   -0.451390
      2          6           0       -4.237148    1.331343   -1.067765
      3          6           0       -3.945269   -0.005942   -0.783121
      4          6           0       -2.924936   -0.277930    0.126952
      5          6           0       -2.192186    0.726534    0.757364
      6          6           0       -2.501266    2.056633    0.457605
      7          1           0       -3.753081    3.397832   -0.678380
      8          1           0       -5.028572    1.565367   -1.774112
      9          1           0       -4.484928   -0.823261   -1.245913
     10          1           0       -1.408791    0.462017    1.457179
     11          1           0       -1.942401    2.854837    0.937797
     12          7           0       -2.606832   -1.689850    0.436293
     13          8           0       -1.703244   -1.903104    1.241705
     14          8           0       -3.267114   -2.556524   -0.132514
     15          6           0        3.124698    2.540837    0.264846
     16          6           0        4.266912    1.813590   -0.085839
     17          6           0        4.196999    0.430465   -0.277217
     18          6           0        2.963120   -0.196037   -0.108918
     19          6           0        1.807372    0.500892    0.240118
     20          6           0        1.900731    1.883326    0.426420
     21          1           0        3.188114    3.615013    0.411541
     22          1           0        5.218793    2.321577   -0.211997
     23          1           0        5.065617   -0.156938   -0.549024
     24          1           0        0.872534   -0.033359    0.358745
     25          1           0        1.012032    2.445559    0.698733
     26          7           0        2.876696   -1.659924   -0.308835
     27          8           0        1.777789   -2.188350   -0.154540
     28          8           0        3.909501   -2.251175   -0.616039
 ---------------------------------------------------------------------

 SCF Done:  E(RHF) =  -868.335318322     A.U. after   16 cycles
 E2 =    -0.2602240419D+01 EUMP2 =    -0.87093755874076D+03

 The electronic state is 1-A.
 Alpha  occ. eigenvalues --  -20.60803 -20.60760 -20.60365 -20.60297 -15.85829
 Alpha  occ. eigenvalues --  -15.85394 -11.31572 -11.31076 -11.28271 -11.28099
 Alpha  occ. eigenvalues --  -11.27943 -11.27695 -11.27692 -11.27549 -11.27368
 Alpha  occ. eigenvalues --  -11.27186 -11.26882 -11.26766  -1.59829  -1.59414
 Alpha  occ. eigenvalues --   -1.39379  -1.38952  -1.19767  -1.19300  -1.09079
 Alpha  occ. eigenvalues --   -1.08643  -1.05248  -1.04761  -0.95859  -0.95414
 Alpha  occ. eigenvalues --   -0.86621  -0.86142  -0.82707  -0.82245  -0.77731
 Alpha  occ. eigenvalues --   -0.77205  -0.72041  -0.71601  -0.71141  -0.70886
 Alpha  occ. eigenvalues --   -0.70753  -0.70392  -0.65419  -0.65298  -0.64950
 Alpha  occ. eigenvalues --   -0.64756  -0.62725  -0.61982  -0.55696  -0.55262
 Alpha  occ. eigenvalues --   -0.53511  -0.53395  -0.53059  -0.52820  -0.48820
 Alpha  occ. eigenvalues --   -0.48787  -0.48403  -0.48335  -0.44679  -0.44288
 Alpha  occ. eigenvalues --   -0.37726  -0.37303  -0.36864  -0.36363
 Alpha virt. eigenvalues --    0.04817   0.05309   0.10664   0.11286   0.16179
 Alpha virt. eigenvalues --    0.16717   0.18847   0.22250   0.24895   0.26503
 Alpha virt. eigenvalues --    0.28104   0.28916   0.30443   0.31683   0.32643

 Mulliken charges:
               1
     1  C   -0.170946
     2  C   -0.217170
     3  C   -0.169475
     4  C    0.162957
     5  C   -0.179031
     6  C   -0.219724
     7  H    0.226074
     8  H    0.225699
     9  H    0.278864
    10  H    0.271992
    11  H    0.217468
    12  N    0.489303
    13  O   -0.454575
    14  O   -0.456480
    15  C   -0.171145
    16  C   -0.218799
    17  C   -0.169846
    18  C    0.158861
    19  C   -0.177194
    20  C   -0.219284
    21  H    0.223243
    22  H    0.223136
    23  H    0.276471
    24  H    0.283325
    25  H    0.212002
    26  N    0.486237
    27  O   -0.448901
    28  O   -0.463061
 Sum of Mulliken charges =  -0.00000

 Dipole moment (field-independent basis, Debye):
    X=             -1.0368    Y=              9.7378    Z=             -0.4926  Tot=              9.8052
 Quadrupole moment (field-independent basis, Debye-Ang):
   XX=            -88.6608   YY=           -110.4095   ZZ=           -104.4304
   XY=              2.1230   XZ=              6.8676   YZ=              1.0885

 Normal termination of Gaussian 16 at Wed May  5 22:42:58 2021.
