 Gaussian 16, Revision A.03,
 Gaussian 16:  EM64L-G16RevA.03 25-Dec-2016

 -------------
 #p 6-31g* mp2
 -------------

 ------------------------------------------------------
 Input file generated by CHIRIPA (05-May-2021 14:51:13)
 ------------------------------------------------------
 Symbolic Z-matrix:
 Charge =  0 Multiplicity = 1

                         Standard orientation:
 ---------------------------------------------------------------------
 Center     Atomic      Atomic             Coordinates (Angstroms)
 Number     Number       Type             X           Y           Z
 ---------------------------------------------------------------------
      1          6           0        2.982311   -0.549601   -0.091886
      2          6           0        3.012414   -1.491921   -1.295677
      3          6           0        2.304536   -2.819822   -1.024783
      4          1           0        3.451091   -1.047981    0.767653
      5          1           0        1.937415   -0.358481    0.189294
      6          1           0        4.056913   -1.680107   -1.575364
      7          1           0        2.543679   -0.991168   -2.152502
      8          1           0        1.253950   -2.650816   -0.767279
      9          1           0        2.775782   -3.343669   -0.186862
     10          1           0        2.338025   -3.478166   -1.898466
     11          6           0        3.685979    0.782083   -0.347224
     12          6           0        3.655875    1.724403    0.856566
     13          6           0        4.363753    3.052303    0.585673
     14          1           0        4.730874    0.590963   -0.628405
     15          1           0        3.217198    1.280462   -1.206764
     16          1           0        4.124610    1.223649    1.713392
     17          1           0        2.611376    1.912588    1.136253
     18          1           0        3.892508    3.576150   -0.252249
     19          1           0        5.414339    2.883298    0.328169
     20          1           0        4.330264    3.710647    1.459355
     21          6           0       -3.828219    0.459095    0.310726
     22          6           0       -4.277099    1.087747   -1.008852
     23          6           0       -5.265383    2.237330   -0.809993
     24          1           0       -4.710505    0.095958    0.855381
     25          1           0       -3.369121    1.233755    0.940431
     26          1           0       -4.733965    0.311845   -1.636440
     27          1           0       -3.393625    1.449257   -1.550517
     28          1           0       -4.815946    3.031430   -0.205004
     29          1           0       -6.163901    1.887556   -0.291415
     30          1           0       -5.573083    2.672154   -1.766084
     31          6           0       -2.840071   -0.691576    0.128384
     32          6           0       -2.391190   -1.320228    1.447963
     33          6           0       -1.402906   -2.469812    1.249104
     34          1           0       -3.299167   -1.466236   -0.501320
     35          1           0       -1.957785   -0.328440   -0.416270
     36          1           0       -3.274665   -1.681738    1.989626
     37          1           0       -1.934324   -0.544326    2.075551
     38          1           0       -0.504388   -2.120036    0.730526
     39          1           0       -1.852343   -3.263911    0.644113
     40          1           0       -1.095206   -2.904635    2.205195
 ---------------------------------------------------------------------

 SCF Done:  E(RHF) =  -470.733248492     A.U. after   11 cycles
 E2 =    -0.1582643524D+01 EUMP2 =    -0.47231589201678D+03

 The electronic state is 1-A.
 Alpha  occ. eigenvalues --  -11.21627 -11.21627 -11.21620 -11.21602 -11.21437
 Alpha  occ. eigenvalues --  -11.21433 -11.21377 -11.21374 -11.21092 -11.21091
 Alpha  occ. eigenvalues --  -11.21067 -11.21019  -1.08461  -1.08446  -1.03564
 Alpha  occ. eigenvalues --   -1.03526  -0.96022  -0.95966  -0.87052  -0.86969
 Alpha  occ. eigenvalues --   -0.79664  -0.79553  -0.78292  -0.78242  -0.65135
 Alpha  occ. eigenvalues --   -0.65041  -0.61050  -0.60853  -0.59377  -0.59346
 Alpha  occ. eigenvalues --   -0.57690  -0.57532  -0.55399  -0.55179  -0.52695
 Alpha  occ. eigenvalues --   -0.52674  -0.52552  -0.52291  -0.50073  -0.49816
 Alpha  occ. eigenvalues --   -0.48071  -0.47786  -0.46765  -0.46513  -0.45899
 Alpha  occ. eigenvalues --   -0.45770  -0.45756  -0.45571  -0.43807  -0.43796
 Alpha virt. eigenvalues --    0.20868   0.23185   0.23471   0.24811   0.25846
 Alpha virt. eigenvalues --    0.26872   0.27065   0.27568   0.27963   0.28961
 Alpha virt. eigenvalues --    0.30539   0.31670   0.31714   0.31823   0.31975

 Mulliken charges:
               1
     1  C   -0.299542
     2  C   -0.299627
     3  C   -0.481787
     4  H    0.150083
     5  H    0.149442
     6  H    0.152007
     7  H    0.151622
     8  H    0.161879
     9  H    0.155293
    10  H    0.160287
    11  C   -0.298311
    12  C   -0.299586
    13  C   -0.475722
    14  H    0.149862
    15  H    0.149539
    16  H    0.152121
    17  H    0.151557
    18  H    0.155140
    19  H    0.155307
    20  H    0.160299
    21  C   -0.298290
    22  C   -0.299646
    23  C   -0.475726
    24  H    0.149883
    25  H    0.149484
    26  H    0.152043
    27  H    0.151739
    28  H    0.155187
    29  H    0.155275
    30  H    0.160319
    31  C   -0.298185
    32  C   -0.299449
    33  C   -0.482675
    34  H    0.149796
    35  H    0.148464
    36  H    0.152130
    37  H    0.151842
    38  H    0.161626
    39  H    0.155384
    40  H    0.160936
 Sum of Mulliken charges =  -0.00000

 Dipole moment (field-independent basis, Debye):
    X=             -0.0027    Y=             -0.0143    Z=              0.0083  Tot=              0.0168
 Quadrupole moment (field-independent basis, Debye-Ang):
   XX=            -84.0687   YY=            -85.8868   ZZ=            -84.6865
   XY=              0.3134   XZ=              0.3634   YZ=             -0.0643

 Normal termination of Gaussian 16 at Wed May  5 21:37:26 2021.
