 Gaussian 16, Revision A.03,
 Gaussian 16:  EM64L-G16RevA.03 25-Dec-2016

 -------------
 #p 6-31g* mp2
 -------------

 ------------------------------------------------------
 Input file generated by CHIRIPA (05-May-2021 14:53:12)
 ------------------------------------------------------
 Symbolic Z-matrix:
 Charge =  0 Multiplicity = 1

                         Standard orientation:
 ---------------------------------------------------------------------
 Center     Atomic      Atomic             Coordinates (Angstroms)
 Number     Number       Type             X           Y           Z
 ---------------------------------------------------------------------
      1          6           0        3.568342   -0.431724   -0.062714
      2          6           0        3.313544   -1.551293    0.947054
      3          6           0        3.754793   -2.922211    0.433560
      4          1           0        3.039347   -0.662365   -0.997548
      5          1           0        4.639136   -0.405228   -0.307853
      6          1           0        2.243766   -1.574771    1.191264
      7          1           0        3.843051   -1.317865    1.879658
      8          1           0        4.826027   -2.922437    0.207598
      9          1           0        3.217655   -3.180802   -0.484707
     10          1           0        3.563493   -3.707821    1.171178
     11          6           0        3.132478    0.944816    0.436172
     12          6           0        3.387275    2.064385   -0.573595
     13          6           0        2.946027    3.435303   -0.060102
     14          1           0        2.061684    0.918320    0.681311
     15          1           0        3.661472    1.175457    1.371006
     16          1           0        2.857769    1.830957   -1.506199
     17          1           0        4.457054    2.087863   -0.817806
     18          1           0        3.483165    3.693894    0.858165
     19          1           0        1.874793    3.435529    0.165860
     20          1           0        3.137327    4.220913   -0.797720
     21          6           0       -0.557109   -1.420968   -0.940214
     22          6           0       -1.729831   -2.132241   -0.665742
     23          6           0       -2.877423   -1.466362   -0.225080
     24          6           0       -2.816699   -0.082429   -0.069089
     25          6           0       -1.663337    0.654245   -0.334337
     26          6           0       -0.527658   -0.032442   -0.773928
     27          1           0        0.329741   -1.946321   -1.282115
     28          1           0       -1.755606   -3.210636   -0.793986
     29          1           0       -3.798583   -1.992287   -0.005344
     30          1           0       -1.668224    1.728744   -0.197058
     31          1           0        0.381701    0.522534   -0.986326
     32          7           0       -4.025298    0.633522    0.396854
     33          8           0       -3.945982    1.853188    0.526314
     34          8           0       -5.029029   -0.038539    0.623779
 ---------------------------------------------------------------------

 SCF Done:  E(RHF) =  -669.535257499     A.U. after   15 cycles
 E2 =    -0.2093071652D+01 EUMP2 =    -0.67162832915091D+03

 The electronic state is 1-A.
 Alpha  occ. eigenvalues --  -20.60787 -20.60782 -15.85840 -11.31226 -11.27795
 Alpha  occ. eigenvalues --  -11.27792 -11.27539 -11.26809 -11.26782 -11.22553
 Alpha  occ. eigenvalues --  -11.22506 -11.22441 -11.22315 -11.22000 -11.21838
 Alpha  occ. eigenvalues --   -1.59862  -1.39415  -1.19400  -1.09430  -1.08785
 Alpha  occ. eigenvalues --   -1.04805  -1.04451  -0.96895  -0.95621  -0.87904
 Alpha  occ. eigenvalues --   -0.86203  -0.82454  -0.80497  -0.79221  -0.77502
 Alpha  occ. eigenvalues --   -0.72059  -0.71185  -0.70515  -0.66292  -0.65049
 Alpha  occ. eigenvalues --   -0.64649  -0.62195  -0.61801  -0.60247  -0.58488
 Alpha  occ. eigenvalues --   -0.56224  -0.55280  -0.53551  -0.53309  -0.53125
 Alpha  occ. eigenvalues --   -0.52881  -0.50834  -0.48839  -0.48812  -0.48781
 Alpha  occ. eigenvalues --   -0.47557  -0.46761  -0.46687  -0.44816  -0.44711
 Alpha  occ. eigenvalues --   -0.37366  -0.36392
 Alpha virt. eigenvalues --    0.05013   0.11131   0.16399   0.17819   0.21578
 Alpha virt. eigenvalues --    0.23652   0.25221   0.26164   0.26739   0.27924
 Alpha virt. eigenvalues --    0.29239   0.30524   0.30932   0.31817   0.32524

 Mulliken charges:
               1
     1  C   -0.298543
     2  C   -0.303946
     3  C   -0.475579
     4  H    0.139185
     5  H    0.154723
     6  H    0.154204
     7  H    0.156939
     8  H    0.158906
     9  H    0.147838
    10  H    0.163853
    11  C   -0.305780
    12  C   -0.303150
    13  C   -0.475118
    14  H    0.148861
    15  H    0.156432
    16  H    0.146147
    17  H    0.156833
    18  H    0.159515
    19  H    0.152280
    20  H    0.164021
    21  C   -0.174643
    22  C   -0.218892
    23  C   -0.170678
    24  C    0.158969
    25  C   -0.173111
    26  C   -0.223422
    27  H    0.228287
    28  H    0.223899
    29  H    0.275826
    30  H    0.275824
    31  H    0.232785
    32  N    0.488056
    33  O   -0.460215
    34  O   -0.460304
 Sum of Mulliken charges =  -0.00000

 Dipole moment (field-independent basis, Debye):
    X=              4.4268    Y=             -2.4740    Z=             -1.5191  Tot=              5.2939
 Quadrupole moment (field-independent basis, Debye-Ang):
   XX=           -116.2714   YY=            -91.4179   ZZ=            -95.2465
   XY=              9.9625   XZ=              5.0805   YZ=             -0.1288

 Normal termination of Gaussian 16 at Wed May  5 21:43:53 2021.
