 Gaussian 16, Revision A.03,
 Gaussian 16:  EM64L-G16RevA.03 25-Dec-2016

 -------------
 #p 6-31g* mp2
 -------------

 ------------------------------------------------------
 Input file generated by CHIRIPA (05-May-2021 14:51:07)
 ------------------------------------------------------
 Symbolic Z-matrix:
 Charge =  0 Multiplicity = 1

                         Standard orientation:
 ---------------------------------------------------------------------
 Center     Atomic      Atomic             Coordinates (Angstroms)
 Number     Number       Type             X           Y           Z
 ---------------------------------------------------------------------
      1          6           0       -3.117049    0.211719    0.283174
      2          6           0       -4.431463    0.794914   -0.236620
      3          6           0       -4.819735    2.096116    0.466169
      4          1           0       -3.203855    0.034615    1.363935
      5          1           0       -2.317264    0.953564    0.151248
      6          1           0       -5.228259    0.051669   -0.105021
      7          1           0       -4.341583    0.970472   -1.316304
      8          1           0       -4.045097    2.856626    0.324181
      9          1           0       -4.936811    1.932603    1.542347
     10          1           0       -5.762347    2.495600    0.079188
     11          6           0       -2.715521   -1.089212   -0.409706
     12          6           0       -1.401107   -1.672407    0.110089
     13          6           0       -1.012835   -2.973609   -0.592701
     14          1           0       -3.515305   -1.831057   -0.277779
     15          1           0       -2.628714   -0.912108   -1.490466
     16          1           0       -1.490987   -1.847964    1.189772
     17          1           0       -0.604311   -0.929161   -0.021511
     18          1           0       -0.895759   -2.810096   -1.668878
     19          1           0       -1.787473   -3.734119   -0.450713
     20          1           0       -0.070223   -3.373093   -0.205719
     21          6           0        3.137956   -0.253211   -0.172297
     22          6           0        2.668191   -1.384563    0.742769
     23          6           0        3.119486   -2.762756    0.258300
     24          1           0        2.757173   -0.429344   -1.187643
     25          1           0        4.234344   -0.277852   -0.240998
     26          1           0        1.573101   -1.356939    0.810825
     27          1           0        3.049977   -1.205615    1.756097
     28          1           0        4.211890   -2.814618    0.207632
     29          1           0        2.726623   -2.966802   -0.743011
     30          1           0        2.772804   -3.556754    0.927058
     31          6           0        2.694614    1.130703    0.298828
     32          6           0        3.164379    2.262056   -0.616238
     33          6           0        2.713083    3.640249   -0.131768
     34          1           0        1.598224    1.155345    0.367530
     35          1           0        3.075397    1.306837    1.314174
     36          1           0        2.782592    2.083107   -1.629565
     37          1           0        4.259468    2.234432   -0.684293
     38          1           0        3.105947    3.844295    0.869542
     39          1           0        1.620681    3.692111   -0.081100
     40          1           0        3.059765    4.434248   -0.800527
 ---------------------------------------------------------------------

 SCF Done:  E(RHF) =  -470.732932055     A.U. after   11 cycles
 E2 =    -0.1583812662D+01 EUMP2 =    -0.47231674471631D+03

 The electronic state is 1-A.
 Alpha  occ. eigenvalues --  -11.21662 -11.21634 -11.21619 -11.21522 -11.21452
 Alpha  occ. eigenvalues --  -11.21412 -11.21393 -11.21347 -11.21095 -11.21093
 Alpha  occ. eigenvalues --  -11.21089 -11.21056  -1.08493  -1.08417  -1.03613
 Alpha  occ. eigenvalues --   -1.03490  -0.96048  -0.95954  -0.87055  -0.86975
 Alpha  occ. eigenvalues --   -0.79719  -0.79527  -0.78361  -0.78173  -0.65237
 Alpha  occ. eigenvalues --   -0.64969  -0.61150  -0.60835  -0.59472  -0.59226
 Alpha  occ. eigenvalues --   -0.57701  -0.57497  -0.55336  -0.55231  -0.52744
 Alpha  occ. eigenvalues --   -0.52627  -0.52434  -0.52398  -0.50013  -0.49886
 Alpha  occ. eigenvalues --   -0.48064  -0.47839  -0.46850  -0.46512  -0.46038
 Alpha  occ. eigenvalues --   -0.45793  -0.45759  -0.45338  -0.43830  -0.43766
 Alpha virt. eigenvalues --    0.20254   0.22813   0.23414   0.24911   0.25508
 Alpha virt. eigenvalues --    0.26736   0.26848   0.27266   0.28506   0.29317
 Alpha virt. eigenvalues --    0.30996   0.31332   0.31620   0.31784   0.32368

 Mulliken charges:
               1
     1  C   -0.298289
     2  C   -0.299689
     3  C   -0.475726
     4  H    0.149957
     5  H    0.148851
     6  H    0.152104
     7  H    0.151953
     8  H    0.155181
     9  H    0.155311
    10  H    0.160395
    11  C   -0.297668
    12  C   -0.304355
    13  C   -0.481029
    14  H    0.149869
    15  H    0.149587
    16  H    0.152382
    17  H    0.154636
    18  H    0.154686
    19  H    0.155625
    20  H    0.166588
    21  C   -0.297838
    22  C   -0.309394
    23  C   -0.476718
    24  H    0.149202
    25  H    0.149579
    26  H    0.163132
    27  H    0.151639
    28  H    0.155212
    29  H    0.156232
    30  H    0.159519
    31  C   -0.299978
    32  C   -0.299617
    33  C   -0.475609
    34  H    0.149820
    35  H    0.150063
    36  H    0.151696
    37  H    0.152178
    38  H    0.155376
    39  H    0.154834
    40  H    0.160304
 Sum of Mulliken charges =  -0.00000

 Dipole moment (field-independent basis, Debye):
    X=             -0.0211    Y=             -0.0130    Z=              0.0103  Tot=              0.0268
 Quadrupole moment (field-independent basis, Debye-Ang):
   XX=            -84.0317   YY=            -86.4961   ZZ=            -84.2076
   XY=              1.0600   XZ=              0.3144   YZ=             -0.9602

 Normal termination of Gaussian 16 at Thu May  6 03:38:33 2021.
