 Gaussian 16, Revision A.03,
 Gaussian 16:  EM64L-G16RevA.03 25-Dec-2016

 -------------
 #p 6-31g* mp2
 -------------

 ------------------------------------------------------
 Input file generated by CHIRIPA (05-May-2021 14:51:09)
 ------------------------------------------------------
 Symbolic Z-matrix:
 Charge =  0 Multiplicity = 1

                         Standard orientation:
 ---------------------------------------------------------------------
 Center     Atomic      Atomic             Coordinates (Angstroms)
 Number     Number       Type             X           Y           Z
 ---------------------------------------------------------------------
      1          6           0        3.003685   -0.130419   -0.229200
      2          6           0        1.896780   -0.600334    0.715219
      3          6           0        0.496151   -0.346553    0.156982
      4          1           0        2.875766    0.942316   -0.428751
      5          1           0        2.894374   -0.643195   -1.194864
      6          1           0        2.008973   -0.087855    1.679269
      7          1           0        2.027461   -1.672034    0.912696
      8          1           0        0.359705   -0.871067   -0.794264
      9          1           0        0.341112    0.722114   -0.023336
     10          1           0       -0.279822   -0.690065    0.848159
     11          6           0        4.409626   -0.377321    0.314949
     12          6           0        5.516531    0.092594   -0.629469
     13          6           0        6.917160   -0.161187   -0.071233
     14          1           0        4.518937    0.135455    1.280613
     15          1           0        4.537545   -1.450057    0.514500
     16          1           0        5.385850    1.164294   -0.826947
     17          1           0        5.404338   -0.419886   -1.593520
     18          1           0        7.072200   -1.229854    0.109085
     19          1           0        7.053607    0.363326    0.880013
     20          1           0        7.693133    0.182324   -0.762410
     21          6           0       -3.760925   -0.445974    0.258298
     22          6           0       -4.602026   -1.405249   -0.584510
     23          6           0       -4.701269   -2.801327    0.031048
     24          1           0       -2.753314   -0.865389    0.383820
     25          1           0       -4.197081   -0.374001    1.264272
     26          1           0       -4.165208   -1.474322   -1.589017
     27          1           0       -5.607695   -0.983410   -0.708200
     28          1           0       -5.157486   -2.752522    1.025072
     29          1           0       -3.706803   -3.246221    0.139251
     30          1           0       -5.306930   -3.470781   -0.587713
     31          6           0       -3.652386    0.953714   -0.344047
     32          6           0       -2.811285    1.912989    0.498760
     33          6           0       -2.712042    3.309067   -0.116797
     34          1           0       -3.216230    0.881741   -1.350021
     35          1           0       -4.659998    1.373129   -0.469569
     36          1           0       -1.805616    1.491152    0.622451
     37          1           0       -3.248103    1.982062    1.503268
     38          1           0       -3.706508    3.753963   -0.225000
     39          1           0       -2.255825    3.260262   -1.110821
     40          1           0       -2.106381    3.978521    0.501964
 ---------------------------------------------------------------------

 SCF Done:  E(RHF) =  -470.732520123     A.U. after   11 cycles
 E2 =    -0.1583491640D+01 EUMP2 =    -0.47231601176298D+03

 The electronic state is 1-A.
 Alpha  occ. eigenvalues --  -11.21681 -11.21636 -11.21536 -11.21461 -11.21417
 Alpha  occ. eigenvalues --  -11.21398 -11.21298 -11.21239 -11.21184 -11.21098
 Alpha  occ. eigenvalues --  -11.21030 -11.20999  -1.08492  -1.08332  -1.03604
 Alpha  occ. eigenvalues --   -1.03441  -0.96060  -0.95902  -0.87089  -0.86915
 Alpha  occ. eigenvalues --   -0.79704  -0.79490  -0.78311  -0.78129  -0.65138
 Alpha  occ. eigenvalues --   -0.64967  -0.61101  -0.60767  -0.59437  -0.59264
 Alpha  occ. eigenvalues --   -0.57686  -0.57494  -0.55396  -0.55152  -0.52818
 Alpha  occ. eigenvalues --   -0.52563  -0.52493  -0.52318  -0.50107  -0.49770
 Alpha  occ. eigenvalues --   -0.48015  -0.47794  -0.46821  -0.46392  -0.45881
 Alpha  occ. eigenvalues --   -0.45773  -0.45666  -0.45548  -0.43768  -0.43672
 Alpha virt. eigenvalues --    0.21609   0.22980   0.24016   0.24310   0.25873
 Alpha virt. eigenvalues --    0.26592   0.27062   0.27523   0.27854   0.29171
 Alpha virt. eigenvalues --    0.30570   0.31517   0.31741   0.31887   0.32144

 Mulliken charges:
               1
     1  C   -0.299037
     2  C   -0.299533
     3  C   -0.482619
     4  H    0.150024
     5  H    0.149567
     6  H    0.152539
     7  H    0.152264
     8  H    0.155274
     9  H    0.158477
    10  H    0.164545
    11  C   -0.298327
    12  C   -0.299679
    13  C   -0.475741
    14  H    0.149700
    15  H    0.149777
    16  H    0.152041
    17  H    0.151963
    18  H    0.155232
    19  H    0.155264
    20  H    0.160382
    21  C   -0.304639
    22  C   -0.299180
    23  C   -0.475686
    24  H    0.156106
    25  H    0.148740
    26  H    0.151765
    27  H    0.151725
    28  H    0.154997
    29  H    0.154890
    30  H    0.160020
    31  C   -0.296818
    32  C   -0.308800
    33  C   -0.475639
    34  H    0.149229
    35  H    0.148996
    36  H    0.162655
    37  H    0.150664
    38  H    0.154989
    39  H    0.154600
    40  H    0.159276
 Sum of Mulliken charges =  -0.00000

 Dipole moment (field-independent basis, Debye):
    X=              0.0818    Y=             -0.0251    Z=              0.0043  Tot=              0.0857
 Quadrupole moment (field-independent basis, Debye-Ang):
   XX=            -85.5066   YY=            -85.1187   ZZ=            -84.5182
   XY=             -0.2226   XZ=             -0.6479   YZ=              0.9263

 Normal termination of Gaussian 16 at Wed May  5 22:57:06 2021.
