 Gaussian 16, Revision A.03,
 Gaussian 16:  EM64L-G16RevA.03 25-Dec-2016

 -------------
 #p 6-31g* mp2
 -------------

 ------------------------------------------------------
 Input file generated by CHIRIPA (05-May-2021 14:57:24)
 ------------------------------------------------------
 Symbolic Z-matrix:
 Charge =  0 Multiplicity = 1

                         Standard orientation:
 ---------------------------------------------------------------------
 Center     Atomic      Atomic             Coordinates (Angstroms)
 Number     Number       Type             X           Y           Z
 ---------------------------------------------------------------------
      1          6           0       -6.254373   -0.158718    0.114701
      2          6           0       -5.533346   -0.573065   -1.010002
      3          6           0       -4.135379   -0.560273   -1.001520
      4          6           0       -3.487853   -0.125107    0.153741
      5          6           0       -4.178095    0.293807    1.290125
      6          6           0       -5.575643    0.272635    1.259157
      7          1           0       -7.340185   -0.171910    0.099378
      8          1           0       -6.057802   -0.908559   -1.900191
      9          1           0       -3.552359   -0.875674   -1.858274
     10          1           0       -3.627312    0.622983    2.162879
     11          1           0       -6.133000    0.594986    2.134079
     12          7           0       -2.008109   -0.107129    0.174623
     13          8           0       -1.461260    0.280696    1.204762
     14          8           0       -1.423155   -0.481202   -0.839543
     15          6           0        5.538761   -1.352844    0.802311
     16          6           0        5.553875    0.022357    1.057490
     17          6           0        4.557744    0.852465    0.534811
     18          6           0        3.557036    0.271238   -0.242395
     19          6           0        3.514603   -1.095322   -0.514427
     20          6           0        4.520968   -1.906318    0.018548
     21          1           0        6.316555   -1.990268    1.212340
     22          1           0        6.343072    0.454947    1.665830
     23          1           0        4.545289    1.920262    0.716665
     24          1           0        2.714886   -1.497522   -1.124433
     25          1           0        4.506699   -2.973985   -0.181274
     26          7           0        2.497059    1.139921   -0.801182
     27          8           0        1.626413    0.603353   -1.482876
     28          8           0        2.556968    2.340912   -0.546884
 ---------------------------------------------------------------------

 SCF Done:  E(RHF) =  -868.335922092     A.U. after   16 cycles
 E2 =    -0.2600256576D+01 EUMP2 =    -0.87093617866807D+03

 The electronic state is 1-A.
 Alpha  occ. eigenvalues --  -20.59978 -20.59910 -20.59391 -20.59238 -15.85005
 Alpha  occ. eigenvalues --  -15.84364 -11.30618 -11.30062 -11.27225 -11.27209
 Alpha  occ. eigenvalues --  -11.27018 -11.26711 -11.26641 -11.26534 -11.26300
 Alpha  occ. eigenvalues --  -11.26287 -11.25812 -11.25779  -1.59010  -1.58378
 Alpha  occ. eigenvalues --   -1.38561  -1.37922  -1.18816  -1.18278  -1.08166
 Alpha  occ. eigenvalues --   -1.07621  -1.04258  -1.03738  -0.94959  -0.94396
 Alpha  occ. eigenvalues --   -0.85645  -0.85122  -0.81793  -0.81228  -0.76798
 Alpha  occ. eigenvalues --   -0.76210  -0.71245  -0.70572  -0.70334  -0.69930
 Alpha  occ. eigenvalues --   -0.69687  -0.69404  -0.64466  -0.64268  -0.63930
 Alpha  occ. eigenvalues --   -0.63763  -0.61604  -0.61081  -0.54759  -0.54259
 Alpha  occ. eigenvalues --   -0.52573  -0.52357  -0.52044  -0.51845  -0.48012
 Alpha  occ. eigenvalues --   -0.47963  -0.47372  -0.47331  -0.43917  -0.43203
 Alpha  occ. eigenvalues --   -0.36814  -0.36286  -0.35873  -0.35354
 Alpha virt. eigenvalues --    0.05746   0.06355   0.11777   0.12298   0.17190
 Alpha virt. eigenvalues --    0.17764   0.21870   0.22329   0.27760   0.28212
 Alpha virt. eigenvalues --    0.28787   0.29274   0.31400   0.31838   0.33040

 Mulliken charges:
               1
     1  C   -0.171667
     2  C   -0.218590
     3  C   -0.171026
     4  C    0.159460
     5  C   -0.171218
     6  C   -0.218560
     7  H    0.223572
     8  H    0.221842
     9  H    0.276242
    10  H    0.274829
    11  H    0.221558
    12  N    0.487866
    13  O   -0.463914
    14  O   -0.449999
    15  C   -0.172050
    16  C   -0.218880
    17  C   -0.171244
    18  C    0.161040
    19  C   -0.168930
    20  C   -0.219083
    21  H    0.221376
    22  H    0.219487
    23  H    0.273529
    24  H    0.279735
    25  H    0.220037
    26  N    0.488963
    27  O   -0.445869
    28  O   -0.468507
 Sum of Mulliken charges =  -0.00000

 Dipole moment (field-independent basis, Debye):
    X=             -1.6463    Y=             -3.1445    Z=              1.7047  Tot=              3.9376
 Quadrupole moment (field-independent basis, Debye-Ang):
   XX=            -44.9719   YY=           -104.1182   ZZ=           -101.3033
   XY=             -7.2724   XZ=              6.5817   YZ=              5.2721

 Normal termination of Gaussian 16 at Fri May  7 08:01:13 2021.
