 Gaussian 16, Revision A.03,
 Gaussian 16:  EM64L-G16RevA.03 25-Dec-2016

 -------------
 #p 6-31g* mp2
 -------------

 ------------------------------------------------------
 Input file generated by CHIRIPA (05-May-2021 14:51:12)
 ------------------------------------------------------
 Symbolic Z-matrix:
 Charge =  0 Multiplicity = 1

                         Standard orientation:
 ---------------------------------------------------------------------
 Center     Atomic      Atomic             Coordinates (Angstroms)
 Number     Number       Type             X           Y           Z
 ---------------------------------------------------------------------
      1          6           0       -3.579559   -0.178943    0.002827
      2          6           0       -3.930496   -0.051516   -1.479937
      3          6           0       -5.204621    0.759402   -1.718294
      4          1           0       -4.419419   -0.648731    0.532807
      5          1           0       -3.461653    0.825611    0.432203
      6          1           0       -4.046345   -1.056035   -1.906712
      7          1           0       -3.089626    0.417849   -2.006482
      8          1           0       -5.096485    1.773039   -1.318986
      9          1           0       -6.058640    0.290781   -1.218649
     10          1           0       -5.436856    0.837945   -2.784952
     11          6           0       -2.308274   -0.986932    0.257226
     12          6           0       -1.957336   -1.114359    1.739990
     13          6           0       -0.683212   -1.925277    1.978347
     14          1           0       -2.426180   -1.991486   -0.172150
     15          1           0       -1.468414   -0.517144   -0.272754
     16          1           0       -2.798207   -1.583724    2.266535
     17          1           0       -1.841488   -0.109840    2.166765
     18          1           0        0.170808   -1.456656    1.478702
     19          1           0       -0.791348   -2.938914    1.579039
     20          1           0       -0.450977   -2.003820    3.045005
     21          6           0        2.626883    1.277863   -0.129221
     22          6           0        1.693157    1.516996    1.057773
     23          6           0        1.066596    2.911652    1.045434
     24          1           0        3.420172    2.037857   -0.122469
     25          1           0        2.065440    1.420364   -1.062960
     26          1           0        2.255851    1.372732    1.988998
     27          1           0        0.902109    0.756228    1.048305
     28          1           0        0.481374    3.063001    0.132631
     29          1           0        1.842809    3.683007    1.078668
     30          1           0        0.402812    3.061159    1.902697
     31          6           0        3.260950   -0.111987   -0.130832
     32          6           0        4.194675   -0.351122   -1.317826
     33          6           0        4.821237   -1.745777   -1.305487
     34          1           0        3.822393   -0.254489    0.802908
     35          1           0        2.467660   -0.871983   -0.137584
     36          1           0        4.985724    0.409646   -1.308358
     37          1           0        3.631981   -0.206857   -2.249050
     38          1           0        4.045023   -2.517132   -1.338722
     39          1           0        5.406458   -1.897126   -0.392683
     40          1           0        5.485020   -1.895284   -2.162750
 ---------------------------------------------------------------------

 SCF Done:  E(RHF) =  -470.733156520     A.U. after   11 cycles
 E2 =    -0.1583460230D+01 EUMP2 =    -0.47231661675017D+03

 The electronic state is 1-A.
 Alpha  occ. eigenvalues --  -11.21632 -11.21626 -11.21621 -11.21620 -11.21442
 Alpha  occ. eigenvalues --  -11.21440 -11.21383 -11.21377 -11.21126 -11.21087
 Alpha  occ. eigenvalues --  -11.21072 -11.21050  -1.08485  -1.08442  -1.03586
 Alpha  occ. eigenvalues --   -1.03526  -0.96010  -0.95997  -0.87034  -0.87006
 Alpha  occ. eigenvalues --   -0.79656  -0.79587  -0.78321  -0.78235  -0.65262
 Alpha  occ. eigenvalues --   -0.64954  -0.61143  -0.60781  -0.59381  -0.59354
 Alpha  occ. eigenvalues --   -0.57632  -0.57596  -0.55301  -0.55297  -0.52710
 Alpha  occ. eigenvalues --   -0.52684  -0.52434  -0.52421  -0.49992  -0.49927
 Alpha  occ. eigenvalues --   -0.48029  -0.47873  -0.46779  -0.46585  -0.45976
 Alpha  occ. eigenvalues --   -0.45775  -0.45757  -0.45434  -0.43816  -0.43804
 Alpha virt. eigenvalues --    0.19870   0.23164   0.23740   0.24485   0.25584
 Alpha virt. eigenvalues --    0.26678   0.26915   0.27813   0.28286   0.29196
 Alpha virt. eigenvalues --    0.30981   0.31326   0.31682   0.31743   0.32145

 Mulliken charges:
               1
     1  C   -0.298321
     2  C   -0.299610
     3  C   -0.475754
     4  H    0.149842
     5  H    0.149958
     6  H    0.151933
     7  H    0.151628
     8  H    0.155349
     9  H    0.155258
    10  H    0.160288
    11  C   -0.299596
    12  C   -0.300318
    13  C   -0.482155
    14  H    0.149728
    15  H    0.149232
    16  H    0.152405
    17  H    0.152563
    18  H    0.161078
    19  H    0.155003
    20  H    0.160686
    21  C   -0.297972
    22  C   -0.308188
    23  C   -0.475296
    24  H    0.149981
    25  H    0.149011
    26  H    0.152383
    27  H    0.160269
    28  H    0.154657
    29  H    0.155583
    30  H    0.160085
    31  C   -0.301424
    32  C   -0.299623
    33  C   -0.475796
    34  H    0.149938
    35  H    0.152024
    36  H    0.152112
    37  H    0.151948
    38  H    0.155544
    39  H    0.155295
    40  H    0.160272
 Sum of Mulliken charges =  -0.00000

 Dipole moment (field-independent basis, Debye):
    X=              0.0107    Y=             -0.0017    Z=              0.0092  Tot=              0.0142
 Quadrupole moment (field-independent basis, Debye-Ang):
   XX=            -84.8404   YY=            -85.2003   ZZ=            -84.6040
   XY=              1.7837   XZ=              0.1790   YZ=              0.2252

 Normal termination of Gaussian 16 at Wed May  5 18:18:57 2021.
