 Gaussian 16, Revision A.03,
 Gaussian 16:  EM64L-G16RevA.03 25-Dec-2016

 -------------
 #p 6-31g* mp2
 -------------

 ------------------------------------------------------
 Input file generated by CHIRIPA (05-May-2021 14:53:16)
 ------------------------------------------------------
 Symbolic Z-matrix:
 Charge =  0 Multiplicity = 1

                         Standard orientation:
 ---------------------------------------------------------------------
 Center     Atomic      Atomic             Coordinates (Angstroms)
 Number     Number       Type             X           Y           Z
 ---------------------------------------------------------------------
      1          6           0        3.392392    1.097465   -0.114251
      2          6           0        2.340143    1.714052    0.808016
      3          6           0        1.814776    3.054278    0.292673
      4          1           0        4.228284    1.801167   -0.228412
      5          1           0        2.958854    0.962145   -1.114815
      6          1           0        2.775105    1.846890    1.806904
      7          1           0        1.506746    1.008720    0.920147
      8          1           0        1.355751    2.934437   -0.694006
      9          1           0        2.631317    3.777369    0.197789
     10          1           0        1.063733    3.477225    0.967143
     11          6           0        3.927202   -0.242668    0.387497
     12          6           0        4.979451   -0.859255   -0.534770
     13          6           0        5.504817   -2.199481   -0.019428
     14          1           0        4.360740   -0.107348    1.388060
     15          1           0        3.091310   -0.946370    0.501657
     16          1           0        5.812848   -0.153923   -0.646902
     17          1           0        4.544488   -0.992092   -1.533658
     18          1           0        4.688277   -2.922572    0.075456
     19          1           0        5.963843   -2.079640    0.967251
     20          1           0        6.255860   -2.622428   -0.693898
     21          6           0       -0.370934   -0.633910   -0.397204
     22          6           0       -0.981521    0.563566   -0.784188
     23          6           0       -2.359452    0.740835   -0.627878
     24          6           0       -3.099775   -0.304902   -0.078655
     25          6           0       -2.520550   -1.509732    0.316532
     26          6           0       -1.141039   -1.664918    0.150955
     27          1           0        0.700089   -0.763039   -0.522228
     28          1           0       -0.385940    1.365974   -1.210181
     29          1           0       -2.857841    1.657507   -0.918977
     30          1           0       -3.140521   -2.291567    0.738181
     31          1           0       -0.669542   -2.595981    0.452383
     32          7           0       -4.559364   -0.128924    0.091729
     33          8           0       -5.189413   -1.065455    0.578128
     34          8           0       -5.045702    0.942206   -0.264351
 ---------------------------------------------------------------------

 SCF Done:  E(RHF) =  -669.533857695     A.U. after   15 cycles
 E2 =    -0.2094126813D+01 EUMP2 =    -0.67162798450836D+03

 The electronic state is 1-A.
 Alpha  occ. eigenvalues --  -20.60764 -20.60758 -15.85817 -11.31193 -11.27762
 Alpha  occ. eigenvalues --  -11.27747 -11.27473 -11.26779 -11.26739 -11.22582
 Alpha  occ. eigenvalues --  -11.22559 -11.22519 -11.22482 -11.22124 -11.21885
 Alpha  occ. eigenvalues --   -1.59839  -1.39392  -1.19370  -1.09533  -1.08761
 Alpha  occ. eigenvalues --   -1.04783  -1.04512  -0.96994  -0.95603  -0.88002
 Alpha  occ. eigenvalues --   -0.86172  -0.82434  -0.80578  -0.79326  -0.77473
 Alpha  occ. eigenvalues --   -0.72037  -0.71162  -0.70568  -0.66251  -0.65015
 Alpha  occ. eigenvalues --   -0.64748  -0.62311  -0.61695  -0.60336  -0.58579
 Alpha  occ. eigenvalues --   -0.56416  -0.55208  -0.53623  -0.53406  -0.53106
 Alpha  occ. eigenvalues --   -0.52851  -0.50922  -0.48887  -0.48792  -0.48782
 Alpha  occ. eigenvalues --   -0.47634  -0.46828  -0.46806  -0.44797  -0.44795
 Alpha  occ. eigenvalues --   -0.37291  -0.36362
 Alpha virt. eigenvalues --    0.05022   0.11197   0.16408   0.18341   0.22255
 Alpha virt. eigenvalues --    0.23672   0.25131   0.25442   0.26794   0.28425
 Alpha virt. eigenvalues --    0.29353   0.30639   0.31129   0.31481   0.32253

 Mulliken charges:
               1
     1  C   -0.301805
     2  C   -0.309556
     3  C   -0.477168
     4  H    0.156252
     5  H    0.142431
     6  H    0.157841
     7  H    0.155200
     8  H    0.145856
     9  H    0.160595
    10  H    0.166565
    11  C   -0.300400
    12  C   -0.300271
    13  C   -0.475844
    14  H    0.155455
    15  H    0.141102
    16  H    0.155784
    17  H    0.150910
    18  H    0.153136
    19  H    0.157634
    20  H    0.163577
    21  C   -0.177883
    22  C   -0.220595
    23  C   -0.172480
    24  C    0.158633
    25  C   -0.170830
    26  C   -0.221549
    27  H    0.234912
    28  H    0.230099
    29  H    0.276039
    30  H    0.275648
    31  H    0.223437
    32  N    0.487994
    33  O   -0.460441
    34  O   -0.460281
 Sum of Mulliken charges =  -0.00000

 Dipole moment (field-independent basis, Debye):
    X=              5.3372    Y=             -0.5550    Z=             -0.5038  Tot=              5.3896
 Quadrupole moment (field-independent basis, Debye-Ang):
   XX=           -125.8698   YY=            -90.6564   ZZ=            -94.4223
   XY=              1.6454   XZ=              1.8340   YZ=             -1.1586

 Normal termination of Gaussian 16 at Thu May  6 01:10:45 2021.
