 Gaussian 16, Revision A.03,
 Gaussian 16:  EM64L-G16RevA.03 25-Dec-2016

 -------------
 #p 6-31g* mp2
 -------------

 ------------------------------------------------------
 Input file generated by CHIRIPA (05-May-2021 14:57:23)
 ------------------------------------------------------
 Symbolic Z-matrix:
 Charge =  0 Multiplicity = 1

                         Standard orientation:
 ---------------------------------------------------------------------
 Center     Atomic      Atomic             Coordinates (Angstroms)
 Number     Number       Type             X           Y           Z
 ---------------------------------------------------------------------
      1          6           0        2.128970    1.832127   -0.229587
      2          6           0        1.962594    0.653660   -0.964471
      3          6           0        2.931720   -0.353042   -0.920936
      4          6           0        4.059963   -0.147100   -0.128505
      5          6           0        4.254462    1.015909    0.615047
      6          6           0        3.272357    2.009178    0.556441
      7          1           0        1.371089    2.608939   -0.269260
      8          1           0        1.075637    0.513427   -1.575770
      9          1           0        2.828272   -1.275190   -1.479828
     10          1           0        5.149289    1.126910    1.215365
     11          1           0        3.404224    2.923362    1.128214
     12          7           0        5.092803   -1.205740   -0.074439
     13          8           0        6.077783   -0.999999    0.631339
     14          8           0        4.897806   -2.221197   -0.738864
     15          6           0       -1.596344    0.923067    0.587883
     16          6           0       -2.147143   -0.020211    1.461594
     17          6           0       -3.417032   -0.553571    1.221892
     18          6           0       -4.111455   -0.119262    0.093866
     19          6           0       -3.589680    0.819072   -0.795274
     20          6           0       -2.318098    1.338964   -0.535780
     21          1           0       -0.609205    1.332163    0.781778
     22          1           0       -1.588902   -0.345046    2.335031
     23          1           0       -3.867267   -1.285128    1.881839
     24          1           0       -4.170214    1.123450   -1.657685
     25          1           0       -1.892836    2.071389   -1.216039
     26          7           0       -5.456726   -0.676777   -0.170371
     27          8           0       -6.048209   -0.277744   -1.171150
     28          8           0       -5.894195   -1.502235    0.628300
 ---------------------------------------------------------------------

 SCF Done:  E(RHF) =  -868.336463689     A.U. after   16 cycles
 E2 =    -0.2601112675D+01 EUMP2 =    -0.87093757636376D+03

 The electronic state is 1-A.
 Alpha  occ. eigenvalues --  -20.61453 -20.61447 -20.61243 -20.61234 -15.86510
 Alpha  occ. eigenvalues --  -15.86301 -11.32091 -11.31802 -11.28632 -11.28628
 Alpha  occ. eigenvalues --  -11.28545 -11.28435 -11.28360 -11.28181 -11.27768
 Alpha  occ. eigenvalues --  -11.27757 -11.27544 -11.27386  -1.60523  -1.60314
 Alpha  occ. eigenvalues --   -1.40070  -1.39864  -1.20286  -1.20005  -1.09689
 Alpha  occ. eigenvalues --   -1.09380  -1.05692  -1.05428  -0.96487  -0.96178
 Alpha  occ. eigenvalues --   -0.87105  -0.86827  -0.83279  -0.83012  -0.78257
 Alpha  occ. eigenvalues --   -0.78030  -0.72726  -0.72517  -0.71848  -0.71656
 Alpha  occ. eigenvalues --   -0.71640  -0.70966  -0.65944  -0.65752  -0.65632
 Alpha  occ. eigenvalues --   -0.65411  -0.63011  -0.62763  -0.56443  -0.55873
 Alpha  occ. eigenvalues --   -0.53998  -0.53841  -0.53665  -0.53524  -0.49501
 Alpha  occ. eigenvalues --   -0.49466  -0.49287  -0.49261  -0.45426  -0.45238
 Alpha  occ. eigenvalues --   -0.38395  -0.37978  -0.37241  -0.37033
 Alpha virt. eigenvalues --    0.04186   0.04493   0.10297   0.10543   0.15447
 Alpha virt. eigenvalues --    0.15979   0.18649   0.21911   0.25279   0.26400
 Alpha virt. eigenvalues --    0.27284   0.29349   0.29996   0.31056   0.31597

 Mulliken charges:
               1
     1  C   -0.181218
     2  C   -0.218041
     3  C   -0.170608
     4  C    0.160052
     5  C   -0.170802
     6  C   -0.218564
     7  H    0.219750
     8  H    0.226165
     9  H    0.279496
    10  H    0.278565
    11  H    0.226084
    12  N    0.487737
    13  O   -0.458003
    14  O   -0.457434
    15  C   -0.174671
    16  C   -0.220103
    17  C   -0.169562
    18  C    0.158680
    19  C   -0.169459
    20  C   -0.224734
    21  H    0.226264
    22  H    0.227318
    23  H    0.278322
    24  H    0.277109
    25  H    0.217211
    26  N    0.487964
    27  O   -0.459373
    28  O   -0.458145
 Sum of Mulliken charges =  -0.00000

 Dipole moment (field-independent basis, Debye):
    X=              1.2262    Y=              5.4735    Z=              0.8021  Tot=              5.6663
 Quadrupole moment (field-independent basis, Debye-Ang):
   XX=           -171.2226   YY=           -104.3980   ZZ=            -99.7972
   XY=              8.6622   XZ=             -1.5477   YZ=             -0.9634

 Normal termination of Gaussian 16 at Thu May  6 01:51:49 2021.
