 Gaussian 16, Revision A.03,
 Gaussian 16:  EM64L-G16RevA.03 25-Dec-2016

 -------------
 #p 6-31g* mp2
 -------------

 ------------------------------------------------------
 Input file generated by CHIRIPA (05-May-2021 14:53:14)
 ------------------------------------------------------
 Symbolic Z-matrix:
 Charge =  0 Multiplicity = 1

                         Standard orientation:
 ---------------------------------------------------------------------
 Center     Atomic      Atomic             Coordinates (Angstroms)
 Number     Number       Type             X           Y           Z
 ---------------------------------------------------------------------
      1          6           0        3.238510    0.822815   -0.284684
      2          6           0        3.795001    2.243846   -0.189958
      3          6           0        2.759418    3.309490   -0.550187
      4          1           0        2.869487    0.647592   -1.304519
      5          1           0        2.369870    0.731474    0.382036
      6          1           0        4.663176    2.332080   -0.855618
      7          1           0        4.162917    2.415641    0.829719
      8          1           0        1.896330    3.250294    0.120765
      9          1           0        2.399431    3.166257   -1.574147
     10          1           0        3.178421    4.317838   -0.475810
     11          6           0        4.261941   -0.253641    0.072474
     12          6           0        3.705450   -1.674672   -0.022252
     13          6           0        4.741033   -2.740316    0.337977
     14          1           0        5.130581   -0.162299   -0.594246
     15          1           0        4.630964   -0.078418    1.092309
     16          1           0        3.337534   -1.846467   -1.041929
     17          1           0        2.837275   -1.762906    0.643407
     18          1           0        5.101020   -2.597083    1.361937
     19          1           0        5.604121   -2.681119   -0.332975
     20          1           0        4.322030   -3.748664    0.263599
     21          6           0       -0.474213   -0.738708    0.345687
     22          6           0       -1.259486   -1.497630   -0.528329
     23          6           0       -2.621156   -1.220455   -0.681876
     24          6           0       -3.167267   -0.172412    0.057489
     25          6           0       -2.411134    0.601794    0.936214
     26          6           0       -1.051525    0.306739    1.073885
     27          1           0        0.582764   -0.960969    0.458799
     28          1           0       -0.813828   -2.310133   -1.095137
     29          1           0       -3.252256   -1.792039   -1.351520
     30          1           0       -2.883730    1.405463    1.487746
     31          1           0       -0.444100    0.897799    1.753390
     32          7           0       -4.607715    0.130485   -0.096661
     33          8           0       -5.064912    1.059108    0.566111
     34          8           0       -5.252266   -0.566462   -0.877337
 ---------------------------------------------------------------------

 SCF Done:  E(RHF) =  -669.535040664     A.U. after   15 cycles
 E2 =    -0.2092345099D+01 EUMP2 =    -0.67162738576361D+03

 The electronic state is 1-A.
 Alpha  occ. eigenvalues --  -20.60699 -20.60694 -15.85753 -11.31098 -11.27681
 Alpha  occ. eigenvalues --  -11.27674 -11.27333 -11.26680 -11.26655 -11.22884
 Alpha  occ. eigenvalues --  -11.22523 -11.22446 -11.22420 -11.22044 -11.21790
 Alpha  occ. eigenvalues --   -1.59775  -1.39329  -1.19271  -1.09505  -1.08659
 Alpha  occ. eigenvalues --   -1.04677  -1.04513  -0.96929  -0.95503  -0.87943
 Alpha  occ. eigenvalues --   -0.86072  -0.82349  -0.80609  -0.79351  -0.77394
 Alpha  occ. eigenvalues --   -0.71971  -0.71099  -0.70392  -0.66132  -0.64920
 Alpha  occ. eigenvalues --   -0.64677  -0.62038  -0.61905  -0.60312  -0.58557
 Alpha  occ. eigenvalues --   -0.56211  -0.55205  -0.53592  -0.53352  -0.52994
 Alpha  occ. eigenvalues --   -0.52768  -0.50874  -0.48910  -0.48728  -0.48725
 Alpha  occ. eigenvalues --   -0.47647  -0.46802  -0.46764  -0.44781  -0.44740
 Alpha  occ. eigenvalues --   -0.37222  -0.36287
 Alpha virt. eigenvalues --    0.05137   0.11317   0.16603   0.19289   0.22559
 Alpha virt. eigenvalues --    0.22871   0.25003   0.25734   0.26731   0.27426
 Alpha virt. eigenvalues --    0.29406   0.30563   0.30942   0.31169   0.31964

 Mulliken charges:
               1
     1  C   -0.300750
     2  C   -0.300646
     3  C   -0.475364
     4  H    0.152848
     5  H    0.140163
     6  H    0.155432
     7  H    0.152974
     8  H    0.152147
     9  H    0.158180
    10  H    0.163732
    11  C   -0.298695
    12  C   -0.305853
    13  C   -0.475193
    14  H    0.154580
    15  H    0.151991
    16  H    0.152657
    17  H    0.144554
    18  H    0.157988
    19  H    0.159269
    20  H    0.161906
    21  C   -0.176338
    22  C   -0.223002
    23  C   -0.170544
    24  C    0.157870
    25  C   -0.170452
    26  C   -0.222721
    27  H    0.240242
    28  H    0.223530
    29  H    0.275220
    30  H    0.275224
    31  H    0.222495
    32  N    0.488023
    33  O   -0.460738
    34  O   -0.460731
 Sum of Mulliken charges =  -0.00000

 Dipole moment (field-independent basis, Debye):
    X=              5.3800    Y=             -1.0262    Z=              0.4621  Tot=              5.4965
 Quadrupole moment (field-independent basis, Debye-Ang):
   XX=           -126.7286   YY=            -92.3420   ZZ=            -92.0511
   XY=              3.4189   XZ=             -1.7151   YZ=              2.8945

 Normal termination of Gaussian 16 at Wed May  5 21:51:51 2021.
