 Gaussian 16, Revision A.03,
 Gaussian 16:  EM64L-G16RevA.03 25-Dec-2016

 -------------
 #p 6-31g* mp2
 -------------

 ------------------------------------------------------
 Input file generated by CHIRIPA (05-May-2021 14:51:08)
 ------------------------------------------------------
 Symbolic Z-matrix:
 Charge =  0 Multiplicity = 1

                         Standard orientation:
 ---------------------------------------------------------------------
 Center     Atomic      Atomic             Coordinates (Angstroms)
 Number     Number       Type             X           Y           Z
 ---------------------------------------------------------------------
      1          6           0       -2.764852   -0.101423   -0.807746
      2          6           0       -3.230505   -1.468702   -0.306047
      3          6           0       -3.187213   -2.543319   -1.392840
      4          1           0       -3.394514    0.205427   -1.654099
      5          1           0       -1.740821   -0.190403   -1.196126
      6          1           0       -4.252847   -1.376875    0.082540
      7          1           0       -2.599782   -1.772246    0.539332
      8          1           0       -2.168323   -2.664141   -1.774765
      9          1           0       -3.830780   -2.266523   -2.234152
     10          1           0       -3.524152   -3.512705   -1.012548
     11          6           0       -2.802462    0.983328    0.267255
     12          6           0       -2.336808    2.350606   -0.234444
     13          6           0       -2.380100    3.425223    0.852348
     14          1           0       -3.826492    1.072307    0.655635
     15          1           0       -2.172799    0.676477    1.113608
     16          1           0       -2.967531    2.654151   -1.079823
     17          1           0       -1.314466    2.258779   -0.623031
     18          1           0       -1.736533    3.148427    1.693660
     19          1           0       -3.398990    3.546045    1.234273
     20          1           0       -2.043161    4.394610    0.472056
     21          6           0        3.056190    0.011433   -0.281574
     22          6           0        4.569919    0.214098   -0.207155
     23          6           0        5.100171    1.121445   -1.317716
     24          1           0        2.797442   -0.415105   -1.260378
     25          1           0        2.559093    0.989783   -0.225679
     26          1           0        5.063957   -0.764450   -0.261780
     27          1           0        4.825113    0.640027    0.771659
     28          1           0        4.634146    2.110571   -1.262476
     29          1           0        4.874347    0.698114   -2.301787
     30          1           0        6.184339    1.252712   -1.245543
     31          6           0        2.511124   -0.893338    0.822065
     32          6           0        0.997395   -1.096003    0.747646
     33          6           0        0.467141   -2.003349    1.858208
     34          1           0        3.008220   -1.871686    0.766172
     35          1           0        2.769870   -0.466798    1.800870
     36          1           0        0.742201   -1.521931   -0.231168
     37          1           0        0.503356   -0.117454    0.802271
     38          1           0        0.692965   -1.580017    2.842278
     39          1           0        0.933168   -2.992474    1.802967
     40          1           0       -0.617026   -2.134615    1.786034
 ---------------------------------------------------------------------

 SCF Done:  E(RHF) =  -470.733120284     A.U. after   11 cycles
 E2 =    -0.1584083864D+01 EUMP2 =    -0.47231720414765D+03

 The electronic state is 1-A.
 Alpha  occ. eigenvalues --  -11.21707 -11.21647 -11.21598 -11.21569 -11.21477
 Alpha  occ. eigenvalues --  -11.21416 -11.21368 -11.21300 -11.21149 -11.21104
 Alpha  occ. eigenvalues --  -11.21081 -11.21062  -1.08515  -1.08396  -1.03609
 Alpha  occ. eigenvalues --   -1.03512  -0.96049  -0.95965  -0.87069  -0.86979
 Alpha  occ. eigenvalues --   -0.79693  -0.79560  -0.78322  -0.78217  -0.65176
 Alpha  occ. eigenvalues --   -0.65034  -0.61077  -0.60891  -0.59430  -0.59291
 Alpha  occ. eigenvalues --   -0.57653  -0.57567  -0.55361  -0.55224  -0.52775
 Alpha  occ. eigenvalues --   -0.52660  -0.52493  -0.52372  -0.49991  -0.49896
 Alpha  occ. eigenvalues --   -0.48056  -0.47871  -0.46705  -0.46592  -0.45962
 Alpha  occ. eigenvalues --   -0.45831  -0.45657  -0.45558  -0.43828  -0.43762
 Alpha virt. eigenvalues --    0.19425   0.22794   0.23263   0.24733   0.25669
 Alpha virt. eigenvalues --    0.26132   0.26798   0.27805   0.28730   0.29534
 Alpha virt. eigenvalues --    0.29788   0.30641   0.31710   0.31902   0.32493

 Mulliken charges:
               1
     1  C   -0.299899
     2  C   -0.306649
     3  C   -0.475573
     4  H    0.149254
     5  H    0.153137
     6  H    0.151899
     7  H    0.157975
     8  H    0.154950
     9  H    0.155270
    10  H    0.160120
    11  C   -0.300520
    12  C   -0.300590
    13  C   -0.475577
    14  H    0.149492
    15  H    0.151467
    16  H    0.152163
    17  H    0.152230
    18  H    0.154587
    19  H    0.155359
    20  H    0.160194
    21  C   -0.298403
    22  C   -0.299698
    23  C   -0.475787
    24  H    0.149643
    25  H    0.149315
    26  H    0.152101
    27  H    0.152098
    28  H    0.155292
    29  H    0.155273
    30  H    0.160449
    31  C   -0.298327
    32  C   -0.303602
    33  C   -0.482284
    34  H    0.149969
    35  H    0.149965
    36  H    0.152572
    37  H    0.154778
    38  H    0.155540
    39  H    0.155952
    40  H    0.165863
 Sum of Mulliken charges =  -0.00000

 Dipole moment (field-independent basis, Debye):
    X=              0.0312    Y=             -0.0104    Z=              0.0039  Tot=              0.0331
 Quadrupole moment (field-independent basis, Debye-Ang):
   XX=            -84.1201   YY=            -85.2572   ZZ=            -85.3508
   XY=             -0.7166   XZ=              0.5502   YZ=              0.2803

 Normal termination of Gaussian 16 at Thu May  6 05:17:47 2021.
