 Gaussian 16, Revision A.03,
 Gaussian 16:  EM64L-G16RevA.03 25-Dec-2016

 -------------
 #p 6-31g* mp2
 -------------

 ------------------------------------------------------
 Input file generated by CHIRIPA (05-May-2021 14:55:25)
 ------------------------------------------------------
 Symbolic Z-matrix:
 Charge =  0 Multiplicity = 1

                         Standard orientation:
 ---------------------------------------------------------------------
 Center     Atomic      Atomic             Coordinates (Angstroms)
 Number     Number       Type             X           Y           Z
 ---------------------------------------------------------------------
      1          6           0        1.972369    2.567134   -0.354409
      2          6           0        2.859739    2.076424    0.609075
      3          6           0        3.208872    0.722813    0.628890
      4          6           0        2.649349   -0.115695   -0.333985
      5          6           0        1.762469    0.343095   -1.306736
      6          6           0        1.427527    1.700431   -1.307559
      7          1           0        1.706666    3.620098   -0.362424
      8          1           0        3.284414    2.747203    1.350527
      9          1           0        3.893397    0.316348    1.363484
     10          1           0        1.355390   -0.349944   -2.032961
     11          1           0        0.738128    2.078738   -2.056997
     12          7           0        3.011449   -1.550674   -0.323061
     13          8           0        2.504782   -2.268824   -1.182239
     14          8           0        3.795074   -1.930089    0.544472
     15          6           0       -3.935988   -0.519992    0.176736
     16          6           0       -5.027401    0.421490   -0.333568
     17          6           0       -6.263793   -0.324304   -0.836480
     18          1           0       -3.647983   -1.208367   -0.629576
     19          1           0       -4.345522   -1.140351    0.985954
     20          1           0       -4.615535    1.040850   -1.140648
     21          1           0       -5.312706    1.107829    0.473994
     22          1           0       -6.701129   -0.929159   -0.035549
     23          1           0       -5.999999   -0.996519   -1.659366
     24          1           0       -7.031308    0.367868   -1.196589
     25          6           0       -2.693570    0.210726    0.682875
     26          6           0       -1.602156   -0.730756    1.193179
     27          6           0       -0.365766    0.015039    1.696091
     28          1           0       -2.284036    0.831085   -0.126343
     29          1           0       -2.981574    0.899101    1.489187
     30          1           0       -1.316852   -1.417095    0.385617
     31          1           0       -2.014021   -1.350116    2.000259
     32          1           0       -0.629559    0.687253    2.518977
     33          1           0        0.071571    0.619893    0.895161
     34          1           0        0.401750   -0.677133    2.056201
 ---------------------------------------------------------------------

 SCF Done:  E(RHF) =  -669.533675073     A.U. after   15 cycles
 E2 =    -0.2094871081D+01 EUMP2 =    -0.67162854615398D+03

 The electronic state is 1-A.
 Alpha  occ. eigenvalues --  -20.60824 -20.60817 -15.85875 -11.31231 -11.27840
 Alpha  occ. eigenvalues --  -11.27824 -11.27604 -11.26877 -11.26862 -11.21754
 Alpha  occ. eigenvalues --  -11.21530 -11.21480 -11.21436 -11.21182 -11.20786
 Alpha  occ. eigenvalues --   -1.59896  -1.39450  -1.19473  -1.08846  -1.08492
 Alpha  occ. eigenvalues --   -1.04872  -1.03545  -0.96007  -0.95665  -0.87025
 Alpha  occ. eigenvalues --   -0.86254  -0.82502  -0.79624  -0.78313  -0.77543
 Alpha  occ. eigenvalues --   -0.72096  -0.71224  -0.70561  -0.65144  -0.65104
 Alpha  occ. eigenvalues --   -0.64862  -0.62208  -0.61015  -0.59376  -0.57630
 Alpha  occ. eigenvalues --   -0.55634  -0.55360  -0.53412  -0.52949  -0.52634
 Alpha  occ. eigenvalues --   -0.52145  -0.49731  -0.48855  -0.48849  -0.47886
 Alpha  occ. eigenvalues --   -0.46583  -0.45828  -0.45758  -0.44853  -0.43824
 Alpha  occ. eigenvalues --   -0.37423  -0.36449
 Alpha virt. eigenvalues --    0.04982   0.11110   0.16450   0.21228   0.22823
 Alpha virt. eigenvalues --    0.24317   0.26365   0.27161   0.27596   0.28054
 Alpha virt. eigenvalues --    0.28285   0.30754   0.31569   0.31697   0.32056

 Mulliken charges:
               1
     1  C   -0.170249
     2  C   -0.215909
     3  C   -0.169659
     4  C    0.165461
     5  C   -0.174657
     6  C   -0.221106
     7  H    0.226552
     8  H    0.224340
     9  H    0.276106
    10  H    0.275681
    11  H    0.224112
    12  N    0.487835
    13  O   -0.460592
    14  O   -0.460424
    15  C   -0.298430
    16  C   -0.299076
    17  C   -0.475716
    18  H    0.150576
    19  H    0.151228
    20  H    0.148768
    21  H    0.151518
    22  H    0.156250
    23  H    0.155753
    24  H    0.159765
    25  C   -0.296809
    26  C   -0.300089
    27  C   -0.484823
    28  H    0.142518
    29  H    0.148630
    30  H    0.154132
    31  H    0.153120
    32  H    0.150118
    33  H    0.165008
    34  H    0.160072
 Sum of Mulliken charges =  -0.00000

 Dipole moment (field-independent basis, Debye):
    X=             -1.1409    Y=              5.0611    Z=             -0.0589  Tot=              5.1885
 Quadrupole moment (field-independent basis, Debye-Ang):
   XX=           -100.9935   YY=            -96.4787   ZZ=            -91.3477
   XY=             14.1005   XZ=              2.3592   YZ=             -1.1128

 Normal termination of Gaussian 16 at Thu May  6 06:25:58 2021.
