 Gaussian 16, Revision A.03,
 Gaussian 16:  EM64L-G16RevA.03 25-Dec-2016

 -------------
 #p 6-31g* mp2
 -------------

 ------------------------------------------------------
 Input file generated by CHIRIPA (05-May-2021 14:53:17)
 ------------------------------------------------------
 Symbolic Z-matrix:
 Charge =  0 Multiplicity = 1

                         Standard orientation:
 ---------------------------------------------------------------------
 Center     Atomic      Atomic             Coordinates (Angstroms)
 Number     Number       Type             X           Y           Z
 ---------------------------------------------------------------------
      1          6           0       -3.672350   -0.280236    0.019487
      2          6           0       -3.203234   -1.428865    0.913112
      3          6           0       -1.709411   -1.719942    0.766274
      4          1           0       -3.445807   -0.522815   -1.027785
      5          1           0       -3.096155    0.623211    0.262753
      6          1           0       -3.781100   -2.329524    0.669187
      7          1           0       -3.431093   -1.183607    1.958361
      8          1           0       -1.117293   -0.837434    1.029291
      9          1           0       -1.469290   -1.989861   -0.267208
     10          1           0       -1.395493   -2.544465    1.413946
     11          6           0       -5.163518    0.022688    0.155073
     12          6           0       -5.632635    1.171317   -0.738552
     13          6           0       -7.126458    1.462395   -0.591715
     14          1           0       -5.739713   -0.880758   -0.088194
     15          1           0       -5.390061    0.265268    1.202345
     16          1           0       -5.404775    0.926060   -1.783801
     17          1           0       -5.054768    2.071976   -0.494627
     18          1           0       -7.366579    1.732314    0.441768
     19          1           0       -7.718575    0.579887   -0.854731
     20          1           0       -7.440375    2.286917   -1.239386
     21          6           0        4.425434    2.395175    0.322121
     22          6           0        3.116811    2.112048    0.726926
     23          6           0        2.566886    0.844163    0.515746
     24          6           0        3.357355   -0.121226   -0.105921
     25          6           0        4.664302    0.130206   -0.520606
     26          6           0        5.193648    1.405097   -0.299257
     27          1           0        4.844637    3.382820    0.490120
     28          1           0        2.517887    2.879010    1.209734
     29          1           0        1.556558    0.597928    0.819102
     30          1           0        5.236899   -0.654856   -0.999386
     31          1           0        6.210232    1.622141   -0.614685
     32          7           0        2.786067   -1.467187   -0.334870
     33          8           0        3.503108   -2.300376   -0.884676
     34          8           0        1.632068   -1.663477    0.039821
 ---------------------------------------------------------------------

 SCF Done:  E(RHF) =  -669.535434872     A.U. after   15 cycles
 E2 =    -0.2091124113D+01 EUMP2 =    -0.67162655898564D+03

 The electronic state is 1-A.
 Alpha  occ. eigenvalues --  -20.60788 -20.60778 -15.85829 -11.31210 -11.27783
 Alpha  occ. eigenvalues --  -11.27779 -11.27529 -11.26802 -11.26792 -11.21372
 Alpha  occ. eigenvalues --  -11.21047 -11.20930 -11.20891 -11.20855 -11.19938
 Alpha  occ. eigenvalues --   -1.59859  -1.39411  -1.19385  -1.08779  -1.07993
 Alpha  occ. eigenvalues --   -1.04790  -1.03004  -0.95627  -0.95405  -0.86425
 Alpha  occ. eigenvalues --   -0.86187  -0.82442  -0.79080  -0.77808  -0.77461
 Alpha  occ. eigenvalues --   -0.72043  -0.71180  -0.70494  -0.65038  -0.64797
 Alpha  occ. eigenvalues --   -0.64635  -0.62141  -0.60410  -0.58839  -0.57033
 Alpha  occ. eigenvalues --   -0.55293  -0.54718  -0.53119  -0.52885  -0.52075
 Alpha  occ. eigenvalues --   -0.51832  -0.49400  -0.48811  -0.48785  -0.47363
 Alpha  occ. eigenvalues --   -0.46139  -0.45319  -0.45263  -0.44795  -0.43256
 Alpha  occ. eigenvalues --   -0.37367  -0.36394
 Alpha virt. eigenvalues --    0.05043   0.11260   0.16529   0.20915   0.23188
 Alpha virt. eigenvalues --    0.24250   0.25965   0.27246   0.27628   0.27969
 Alpha virt. eigenvalues --    0.29206   0.30375   0.31560   0.32161   0.32584

 Mulliken charges:
               1
     1  C   -0.296528
     2  C   -0.303141
     3  C   -0.465551
     4  H    0.150603
     5  H    0.143864
     6  H    0.150710
     7  H    0.147110
     8  H    0.147619
     9  H    0.163939
    10  H    0.162948
    11  C   -0.297574
    12  C   -0.299016
    13  C   -0.475393
    14  H    0.149881
    15  H    0.148124
    16  H    0.152086
    17  H    0.149538
    18  H    0.154388
    19  H    0.155508
    20  H    0.159009
    21  C   -0.170563
    22  C   -0.219433
    23  C   -0.171732
    24  C    0.157059
    25  C   -0.170548
    26  C   -0.218720
    27  H    0.225657
    28  H    0.223595
    29  H    0.278389
    30  H    0.275680
    31  H    0.223504
    32  N    0.492983
    33  O   -0.460564
    34  O   -0.463431
 Sum of Mulliken charges =  -0.00000

 Dipole moment (field-independent basis, Debye):
    X=              2.1974    Y=              4.6253    Z=              0.7609  Tot=              5.1770
 Quadrupole moment (field-independent basis, Debye-Ang):
   XX=            -79.6537   YY=            -95.5640   ZZ=            -94.3307
   XY=             15.1915   XZ=              0.7014   YZ=              0.7225

 Normal termination of Gaussian 16 at Thu May  6 09:07:23 2021.
