 Gaussian 16, Revision A.03,
 Gaussian 16:  EM64L-G16RevA.03 25-Dec-2016

 -------------
 #p 6-31g* mp2
 -------------

 ------------------------------------------------------
 Input file generated by CHIRIPA (05-May-2021 14:51:09)
 ------------------------------------------------------
 Symbolic Z-matrix:
 Charge =  0 Multiplicity = 1

                         Standard orientation:
 ---------------------------------------------------------------------
 Center     Atomic      Atomic             Coordinates (Angstroms)
 Number     Number       Type             X           Y           Z
 ---------------------------------------------------------------------
      1          6           0       -2.712381   -0.171468    0.096238
      2          6           0       -3.765465   -1.230770   -0.230682
      3          6           0       -3.262165   -2.655862    0.000829
      4          1           0       -1.818732   -0.350437   -0.517201
      5          1           0       -2.400486   -0.285547    1.143665
      6          1           0       -4.076291   -1.113845   -1.276785
      7          1           0       -4.656783   -1.049144    0.383468
      8          1           0       -2.970087   -2.796142    1.046589
      9          1           0       -2.386296   -2.861210   -0.623098
     10          1           0       -4.030891   -3.397058   -0.239064
     11          6           0       -3.200622    1.258245   -0.130188
     12          6           0       -2.147537    2.317547    0.196732
     13          6           0       -2.650837    3.742639   -0.034779
     14          1           0       -3.512517    1.372324   -1.177614
     15          1           0       -4.094270    1.437214    0.483251
     16          1           0       -1.256219    2.135921   -0.417418
     17          1           0       -1.836712    2.200622    1.242836
     18          1           0       -3.526707    3.947987    0.589149
     19          1           0       -2.942916    3.882919   -1.080538
     20          1           0       -1.882111    4.483835    0.205115
     21          6           0        2.264883   -0.787740    0.230023
     22          6           0        1.967650   -2.222642   -0.206662
     23          6           0        0.580329   -2.697148    0.226903
     24          1           0        2.176950   -0.718149    1.322894
     25          1           0        1.500183   -0.118696   -0.188319
     26          1           0        2.733470   -2.888595    0.211238
     27          1           0        2.056489   -2.288869   -1.298604
     28          1           0       -0.197262   -2.056597   -0.201638
     29          1           0        0.483566   -2.659731    1.316782
     30          1           0        0.388749   -3.725326   -0.095600
     31          6           0        3.648119   -0.299037   -0.196073
     32          6           0        3.945353    1.135865    0.240612
     33          6           0        5.332674    1.610372   -0.192953
     34          1           0        4.412820   -0.968081    0.222268
     35          1           0        3.736053   -0.368628   -1.288946
     36          1           0        3.856514    1.202092    1.332554
     37          1           0        3.179532    1.801818   -0.177289
     38          1           0        5.429437    1.572954   -1.282834
     39          1           0        6.110264    0.969820    0.235588
     40          1           0        5.524253    2.638549    0.129549
 ---------------------------------------------------------------------

 SCF Done:  E(RHF) =  -470.732099795     A.U. after   11 cycles
 E2 =    -0.1583931582D+01 EUMP2 =    -0.47231603137690D+03

 The electronic state is 1-A.
 Alpha  occ. eigenvalues --  -11.21618 -11.21586 -11.21574 -11.21543 -11.21411
 Alpha  occ. eigenvalues --  -11.21380 -11.21352 -11.21320 -11.21083 -11.21061
 Alpha  occ. eigenvalues --  -11.20943 -11.20930  -1.08446  -1.08389  -1.03551
 Alpha  occ. eigenvalues --   -1.03460  -0.95996  -0.95909  -0.87031  -0.86914
 Alpha  occ. eigenvalues --   -0.79710  -0.79451  -0.78336  -0.78118  -0.65150
 Alpha  occ. eigenvalues --   -0.64966  -0.61053  -0.60783  -0.59357  -0.59311
 Alpha  occ. eigenvalues --   -0.57593  -0.57533  -0.55329  -0.55168  -0.52733
 Alpha  occ. eigenvalues --   -0.52659  -0.52385  -0.52277  -0.50014  -0.49840
 Alpha  occ. eigenvalues --   -0.48102  -0.47692  -0.46811  -0.46486  -0.45996
 Alpha  occ. eigenvalues --   -0.45761  -0.45676  -0.45195  -0.43774  -0.43739
 Alpha virt. eigenvalues --    0.21222   0.23182   0.23486   0.24421   0.25396
 Alpha virt. eigenvalues --    0.26753   0.27065   0.27237   0.28545   0.29774
 Alpha virt. eigenvalues --    0.30434   0.31193   0.31713   0.31943   0.32058

 Mulliken charges:
               1
     1  C   -0.301938
     2  C   -0.300044
     3  C   -0.478580
     4  H    0.151465
     5  H    0.150665
     6  H    0.151277
     7  H    0.151763
     8  H    0.155878
     9  H    0.160150
    10  H    0.159265
    11  C   -0.297701
    12  C   -0.299726
    13  C   -0.475750
    14  H    0.149298
    15  H    0.149900
    16  H    0.151292
    17  H    0.152472
    18  H    0.155328
    19  H    0.155102
    20  H    0.160342
    21  C   -0.298891
    22  C   -0.299986
    23  C   -0.481750
    24  H    0.149701
    25  H    0.149691
    26  H    0.151501
    27  H    0.150957
    28  H    0.164447
    29  H    0.154559
    30  H    0.159577
    31  C   -0.298242
    32  C   -0.299534
    33  C   -0.475684
    34  H    0.149589
    35  H    0.149365
    36  H    0.151964
    37  H    0.151832
    38  H    0.155078
    39  H    0.155168
    40  H    0.160199
 Sum of Mulliken charges =  -0.00000

 Dipole moment (field-independent basis, Debye):
    X=             -0.0245    Y=             -0.0012    Z=              0.0180  Tot=              0.0305
 Quadrupole moment (field-independent basis, Debye-Ang):
   XX=            -85.6780   YY=            -86.1381   ZZ=            -83.1173
   XY=             -0.3646   XZ=              0.2151   YZ=             -0.0230

 Normal termination of Gaussian 16 at Thu May  6 00:33:18 2021.
