 Gaussian 16, Revision A.03,
 Gaussian 16:  EM64L-G16RevA.03 25-Dec-2016

 -------------
 #p 6-31g* mp2
 -------------

 ------------------------------------------------------
 Input file generated by CHIRIPA (05-May-2021 14:57:23)
 ------------------------------------------------------
 Symbolic Z-matrix:
 Charge =  0 Multiplicity = 1

                         Standard orientation:
 ---------------------------------------------------------------------
 Center     Atomic      Atomic             Coordinates (Angstroms)
 Number     Number       Type             X           Y           Z
 ---------------------------------------------------------------------
      1          6           0        2.682455    2.150527    1.493107
      2          6           0        4.000809    1.854050    1.131770
      3          6           0        4.286630    0.734518    0.344684
      4          6           0        3.225003   -0.070518   -0.065383
      5          6           0        1.901023    0.198446    0.278167
      6          6           0        1.638610    1.323237    1.065906
      7          1           0        2.469514    3.022248    2.104788
      8          1           0        4.813472    2.494756    1.462101
      9          1           0        5.298017    0.481680    0.050426
     10          1           0        1.111989   -0.458967   -0.066291
     11          1           0        0.613790    1.551041    1.345003
     12          7           0        3.515198   -1.258499   -0.898981
     13          8           0        2.562116   -1.951929   -1.247445
     14          8           0        4.690241   -1.473716   -1.188107
     15          6           0       -2.842622   -1.995213    1.588518
     16          6           0       -1.854319   -1.717602    0.638409
     17          6           0       -2.028977   -0.683887   -0.286512
     18          6           0       -3.209519    0.055503   -0.232537
     19          6           0       -4.212646   -0.196744    0.702020
     20          6           0       -4.016562   -1.235239    1.617241
     21          1           0       -2.698622   -2.800084    2.303251
     22          1           0       -0.941612   -2.306162    0.613756
     23          1           0       -1.280149   -0.447489   -1.032697
     24          1           0       -5.111837    0.407302    0.701882
     25          1           0       -4.785799   -1.448584    2.353993
     26          7           0       -3.405763    1.152380   -1.206574
     27          8           0       -4.454804    1.789144   -1.138158
     28          8           0       -2.506820    1.354578   -2.019997
 ---------------------------------------------------------------------

 SCF Done:  E(RHF) =  -868.338021001     A.U. after   16 cycles
 E2 =    -0.2600379913D+01 EUMP2 =    -0.87093840091442D+03

 The electronic state is 1-A.
 Alpha  occ. eigenvalues --  -20.61156 -20.61141 -20.61135 -20.61122 -15.86195
 Alpha  occ. eigenvalues --  -15.86189 -11.31631 -11.31477 -11.28197 -11.28166
 Alpha  occ. eigenvalues --  -11.28093 -11.27981 -11.27874 -11.27689 -11.27184
 Alpha  occ. eigenvalues --  -11.27168 -11.26996 -11.26983  -1.60219  -1.60209
 Alpha  occ. eigenvalues --   -1.39771  -1.39769  -1.19792  -1.19619  -1.09156
 Alpha  occ. eigenvalues --   -1.09018  -1.05214  -1.05001  -0.95991  -0.95877
 Alpha  occ. eigenvalues --   -0.86572  -0.86418  -0.82827  -0.82706  -0.77937
 Alpha  occ. eigenvalues --   -0.77726  -0.72421  -0.72396  -0.71552  -0.71525
 Alpha  occ. eigenvalues --   -0.70928  -0.70678  -0.65439  -0.65274  -0.65156
 Alpha  occ. eigenvalues --   -0.65011  -0.62732  -0.62171  -0.55660  -0.55480
 Alpha  occ. eigenvalues --   -0.53523  -0.53352  -0.53238  -0.53095  -0.49185
 Alpha  occ. eigenvalues --   -0.49168  -0.49161  -0.49146  -0.45193  -0.45159
 Alpha  occ. eigenvalues --   -0.37752  -0.37567  -0.36817  -0.36599
 Alpha virt. eigenvalues --    0.04616   0.04735   0.10804   0.11047   0.16020
 Alpha virt. eigenvalues --    0.16288   0.19527   0.21942   0.24972   0.27469
 Alpha virt. eigenvalues --    0.27776   0.29388   0.30361   0.31268   0.31915

 Mulliken charges:
               1
     1  C   -0.170234
     2  C   -0.218009
     3  C   -0.170113
     4  C    0.160422
     5  C   -0.174939
     6  C   -0.218070
     7  H    0.227721
     8  H    0.224891
     9  H    0.276369
    10  H    0.268653
    11  H    0.226492
    12  N    0.488219
    13  O   -0.466370
    14  O   -0.457278
    15  C   -0.171137
    16  C   -0.223500
    17  C   -0.182918
    18  C    0.158678
    19  C   -0.171507
    20  C   -0.218271
    21  H    0.228614
    22  H    0.232791
    23  H    0.278547
    24  H    0.276663
    25  H    0.225188
    26  N    0.487640
    27  O   -0.459411
    28  O   -0.459127
 Sum of Mulliken charges =  -0.00000

 Dipole moment (field-independent basis, Debye):
    X=             -0.3437    Y=              0.3709    Z=              6.4480  Tot=              6.4678
 Quadrupole moment (field-independent basis, Debye-Ang):
   XX=           -106.2342   YY=           -106.3284   ZZ=           -107.2233
   XY=             26.9342   XZ=             -3.6433   YZ=              1.0862

 Normal termination of Gaussian 16 at Thu May  6 16:16:25 2021.
