 Gaussian 16, Revision A.03,
 Gaussian 16:  EM64L-G16RevA.03 25-Dec-2016

 -------------
 #p 6-31g* mp2
 -------------

 ------------------------------------------------------
 Input file generated by CHIRIPA (05-May-2021 14:55:20)
 ------------------------------------------------------
 Symbolic Z-matrix:
 Charge =  0 Multiplicity = 1

                         Standard orientation:
 ---------------------------------------------------------------------
 Center     Atomic      Atomic             Coordinates (Angstroms)
 Number     Number       Type             X           Y           Z
 ---------------------------------------------------------------------
      1          6           0       -1.041729   -0.072896    1.473607
      2          6           0       -1.514603    1.040482    0.771253
      3          6           0       -2.707280    0.968053    0.045426
      4          6           0       -3.404791   -0.238912    0.043689
      5          6           0       -2.959629   -1.365599    0.733397
      6          6           0       -1.764477   -1.270272    1.452474
      7          1           0       -0.114268   -0.007738    2.034825
      8          1           0       -0.955396    1.971674    0.785879
      9          1           0       -3.096282    1.814639   -0.507192
     10          1           0       -3.539080   -2.280224    0.699992
     11          1           0       -1.399639   -2.136546    1.997000
     12          7           0       -4.668735   -0.327711   -0.721139
     13          8           0       -5.264664   -1.402559   -0.706775
     14          8           0       -5.039551    0.679219   -1.320492
     15          6           0        4.319415   -0.385575   -0.498381
     16          6           0        5.723708   -0.787311   -0.046102
     17          6           0        6.165539   -2.135261   -0.616726
     18          1           0        3.606652   -1.164866   -0.195694
     19          1           0        4.292437   -0.346652   -1.596176
     20          1           0        5.748401   -0.824118    1.050552
     21          1           0        6.433182   -0.006882   -0.349733
     22          1           0        6.169244   -2.107710   -1.711178
     23          1           0        5.480572   -2.929589   -0.302937
     24          1           0        7.172158   -2.402948   -0.280687
     25          6           0        3.863568    0.959726    0.063842
     26          6           0        2.459276    1.361461   -0.388437
     27          6           0        2.017444    2.709411    0.182187
     28          1           0        3.890547    0.920803    1.161637
     29          1           0        4.576332    1.739017   -0.238845
     30          1           0        1.749801    0.581032   -0.084807
     31          1           0        2.434583    1.398269   -1.485091
     32          1           0        2.702412    3.503739   -0.131601
     33          1           0        2.013740    2.681860    1.276640
     34          1           0        1.010825    2.977099   -0.153852
 ---------------------------------------------------------------------

 SCF Done:  E(RHF) =  -669.535286863     A.U. after   15 cycles
 E2 =    -0.2091987876D+01 EUMP2 =    -0.67162727473921D+03

 The electronic state is 1-A.
 Alpha  occ. eigenvalues --  -20.60758 -20.60753 -15.85810 -11.31184 -11.27748
 Alpha  occ. eigenvalues --  -11.27731 -11.27490 -11.26774 -11.26715 -11.22498
 Alpha  occ. eigenvalues --  -11.22219 -11.22172 -11.22152 -11.22018 -11.21533
 Alpha  occ. eigenvalues --   -1.59833  -1.39386  -1.19352  -1.09176  -1.08747
 Alpha  occ. eigenvalues --   -1.04756  -1.04292  -0.96761  -0.95582  -0.87780
 Alpha  occ. eigenvalues --   -0.86148  -0.82413  -0.80351  -0.78947  -0.77460
 Alpha  occ. eigenvalues --   -0.72029  -0.71155  -0.70470  -0.65828  -0.65001
 Alpha  occ. eigenvalues --   -0.64789  -0.62175  -0.61658  -0.60114  -0.58341
 Alpha  occ. eigenvalues --   -0.56045  -0.55267  -0.53540  -0.53212  -0.53078
 Alpha  occ. eigenvalues --   -0.52696  -0.50688  -0.48796  -0.48783  -0.48647
 Alpha  occ. eigenvalues --   -0.47383  -0.46494  -0.46410  -0.44790  -0.44539
 Alpha  occ. eigenvalues --   -0.37316  -0.36346
 Alpha virt. eigenvalues --    0.05043   0.11213   0.16462   0.19520   0.22595
 Alpha virt. eigenvalues --    0.23994   0.25423   0.26063   0.26805   0.27787
 Alpha virt. eigenvalues --    0.29327   0.29740   0.30973   0.31433   0.32359

 Mulliken charges:
               1
     1  C   -0.172930
     2  C   -0.220934
     3  C   -0.172518
     4  C    0.158994
     5  C   -0.171154
     6  C   -0.219028
     7  H    0.225961
     8  H    0.231380
     9  H    0.275593
    10  H    0.275566
    11  H    0.223236
    12  N    0.488043
    13  O   -0.460459
    14  O   -0.460347
    15  C   -0.298302
    16  C   -0.300092
    17  C   -0.475975
    18  H    0.147997
    19  H    0.152299
    20  H    0.151210
    21  H    0.153430
    22  H    0.156730
    23  H    0.154875
    24  H    0.161785
    25  C   -0.298759
    26  C   -0.303446
    27  C   -0.480726
    28  H    0.146910
    29  H    0.152555
    30  H    0.150603
    31  H    0.157494
    32  H    0.162714
    33  H    0.151220
    34  H    0.156074
 Sum of Mulliken charges =  -0.00000

 Dipole moment (field-independent basis, Debye):
    X=              4.6180    Y=              0.3121    Z=              2.6158  Tot=              5.3165
 Quadrupole moment (field-independent basis, Debye-Ang):
   XX=           -125.1690   YY=            -91.0114   ZZ=            -94.3002
   XY=             -0.8750   XZ=             -9.6373   YZ=             -3.0286

 Normal termination of Gaussian 16 at Thu May  6 12:28:16 2021.
