 Gaussian 16, Revision A.03,
 Gaussian 16:  EM64L-G16RevA.03 25-Dec-2016

 -------------
 #p 6-31g* mp2
 -------------

 ------------------------------------------------------
 Input file generated by CHIRIPA (05-May-2021 14:51:09)
 ------------------------------------------------------
 Symbolic Z-matrix:
 Charge =  0 Multiplicity = 1

                         Standard orientation:
 ---------------------------------------------------------------------
 Center     Atomic      Atomic             Coordinates (Angstroms)
 Number     Number       Type             X           Y           Z
 ---------------------------------------------------------------------
      1          6           0        2.528477   -0.519496    0.641510
      2          6           0        1.734184    0.448791    1.518723
      3          6           0        0.452207   -0.172434    2.074069
      4          1           0        1.893378   -0.857184   -0.188889
      5          1           0        2.777903   -1.414460    1.228215
      6          1           0        1.487522    1.342265    0.930949
      7          1           0        2.371310    0.784361    2.347022
      8          1           0        0.683029   -1.052292    2.683307
      9          1           0       -0.205780   -0.491218    1.259188
     10          1           0       -0.100018    0.537023    2.698231
     11          6           0        3.812757    0.087018    0.078931
     12          6           0        4.607050   -0.881269   -0.798282
     13          6           0        5.889027   -0.260044   -1.353629
     14          1           0        3.563331    0.981982   -0.507774
     15          1           0        4.447855    0.424706    0.909329
     16          1           0        3.969924   -1.216839   -1.626582
     17          1           0        4.853711   -1.774743   -0.210509
     18          1           0        6.547014    0.058740   -0.538748
     19          1           0        5.658205    0.619814   -1.962867
     20          1           0        6.441252   -0.969501   -1.977791
     21          6           0       -3.744880   -0.277459   -0.459797
     22          6           0       -3.356252   -1.726860   -0.166214
     23          6           0       -4.515643   -2.702624   -0.369911
     24          1           0       -4.584883    0.008631    0.187885
     25          1           0       -4.108876   -0.205059   -1.494040
     26          1           0       -2.991796   -1.796244    0.866730
     27          1           0       -2.516952   -2.009473   -0.814536
     28          1           0       -4.875636   -2.662855   -1.403073
     29          1           0       -5.353178   -2.448414    0.287746
     30          1           0       -4.215786   -3.732947   -0.154551
     31          6           0       -2.596354    0.709938   -0.260644
     32          6           0       -2.984982    2.159338   -0.554226
     33          6           0       -1.825591    3.135102   -0.350529
     34          1           0       -2.232357    0.637536    0.773600
     35          1           0       -1.756351    0.423847   -0.908326
     36          1           0       -3.824281    2.441951    0.094096
     37          1           0       -3.349438    2.228723   -1.587170
     38          1           0       -0.988055    2.880892   -1.008186
     39          1           0       -1.465598    3.095332    0.682633
     40          1           0       -2.125447    4.165425   -0.565890
 ---------------------------------------------------------------------

 SCF Done:  E(RHF) =  -470.732773692     A.U. after   11 cycles
 E2 =    -0.1583531550D+01 EUMP2 =    -0.47231630524184D+03

 The electronic state is 1-A.
 Alpha  occ. eigenvalues --  -11.21611 -11.21608 -11.21589 -11.21542 -11.21390
 Alpha  occ. eigenvalues --  -11.21378 -11.21318 -11.21317 -11.21101 -11.21076
 Alpha  occ. eigenvalues --  -11.21061 -11.20954  -1.08450  -1.08387  -1.03545
 Alpha  occ. eigenvalues --   -1.03486  -0.96011  -0.95926  -0.87034  -0.86940
 Alpha  occ. eigenvalues --   -0.79616  -0.79563  -0.78299  -0.78166  -0.65096
 Alpha  occ. eigenvalues --   -0.65006  -0.60955  -0.60883  -0.59381  -0.59288
 Alpha  occ. eigenvalues --   -0.57665  -0.57507  -0.55350  -0.55179  -0.52707
 Alpha  occ. eigenvalues --   -0.52647  -0.52455  -0.52324  -0.50003  -0.49839
 Alpha  occ. eigenvalues --   -0.47937  -0.47872  -0.46702  -0.46612  -0.45886
 Alpha  occ. eigenvalues --   -0.45730  -0.45693  -0.45384  -0.43789  -0.43740
 Alpha virt. eigenvalues --    0.21208   0.23157   0.23593   0.24459   0.25701
 Alpha virt. eigenvalues --    0.26075   0.26647   0.27758   0.28365   0.29446
 Alpha virt. eigenvalues --    0.30484   0.31437   0.31583   0.32100   0.32375

 Mulliken charges:
               1
     1  C   -0.298453
     2  C   -0.300509
     3  C   -0.481627
     4  H    0.149383
     5  H    0.149463
     6  H    0.153261
     7  H    0.151521
     8  H    0.154084
     9  H    0.164309
    10  H    0.157893
    11  C   -0.298291
    12  C   -0.299594
    13  C   -0.475681
    14  H    0.149461
    15  H    0.149682
    16  H    0.151703
    17  H    0.151922
    18  H    0.155205
    19  H    0.155139
    20  H    0.160169
    21  C   -0.297649
    22  C   -0.301423
    23  C   -0.475620
    24  H    0.149584
    25  H    0.149201
    26  H    0.153759
    27  H    0.151339
    28  H    0.155170
    29  H    0.155293
    30  H    0.160407
    31  C   -0.304304
    32  C   -0.299265
    33  C   -0.476521
    34  H    0.158343
    35  H    0.147918
    36  H    0.151932
    37  H    0.151684
    38  H    0.154637
    39  H    0.156048
    40  H    0.160425
 Sum of Mulliken charges =  -0.00000

 Dipole moment (field-independent basis, Debye):
    X=             -0.0335    Y=             -0.0011    Z=              0.0063  Tot=              0.0341
 Quadrupole moment (field-independent basis, Debye-Ang):
   XX=            -85.9207   YY=            -85.4696   ZZ=            -83.4698
   XY=             -1.0959   XZ=              0.4459   YZ=             -0.0770

 Normal termination of Gaussian 16 at Wed May  5 15:06:38 2021.
