 Gaussian 16, Revision A.03,
 Gaussian 16:  EM64L-G16RevA.03 25-Dec-2016

 -------------
 #p 6-31g* mp2
 -------------

 ------------------------------------------------------
 Input file generated by CHIRIPA (05-May-2021 14:51:08)
 ------------------------------------------------------
 Symbolic Z-matrix:
 Charge =  0 Multiplicity = 1

                         Standard orientation:
 ---------------------------------------------------------------------
 Center     Atomic      Atomic             Coordinates (Angstroms)
 Number     Number       Type             X           Y           Z
 ---------------------------------------------------------------------
      1          6           0        3.297354    0.422087    0.264541
      2          6           0        3.589786   -0.795510   -0.612913
      3          6           0        4.678690   -1.696613   -0.029736
      4          1           0        4.221726    1.000677    0.397639
      5          1           0        2.995539    0.080764    1.264442
      6          1           0        3.889624   -0.452013   -1.611273
      7          1           0        2.664568   -1.371164   -0.744095
      8          1           0        4.384153   -2.067357    0.957380
      9          1           0        5.616170   -1.142984    0.085275
     10          1           0        4.871757   -2.560804   -0.672976
     11          6           0        2.210965    1.332519   -0.305196
     12          6           0        1.918533    2.550116    0.572259
     13          6           0        0.829629    3.451219   -0.010919
     14          1           0        2.512780    1.673843   -1.305096
     15          1           0        1.286593    0.753930   -0.438293
     16          1           0        2.843751    3.125771    0.703441
     17          1           0        1.618695    2.206620    1.570619
     18          1           0       -0.107851    2.897590   -0.125929
     19          1           0        1.124166    3.821964   -0.998034
     20          1           0        0.636562    4.315411    0.632322
     21          6           0       -3.351927   -0.517906    0.331676
     22          6           0       -4.049910    0.443633   -0.630743
     23          6           0       -5.243789    1.155060    0.006685
     24          1           0       -4.077598   -1.262517    0.686502
     25          1           0       -3.017525    0.039526    1.217588
     26          1           0       -4.381673   -0.115187   -1.515202
     27          1           0       -3.322447    1.185927   -0.983468
     28          1           0       -4.925363    1.737032    0.877612
     29          1           0       -5.990608    0.428526    0.342856
     30          1           0       -5.727937    1.837517   -0.698804
     31          6           0       -2.156391   -1.236701   -0.291022
     32          6           0       -1.458410   -2.198239    0.671397
     33          6           0       -0.264529   -2.909667    0.033969
     34          1           0       -2.490793   -1.794132   -1.176934
     35          1           0       -1.430721   -0.492090   -0.645848
     36          1           0       -2.185873   -2.940533    1.024121
     37          1           0       -1.126646   -1.639419    1.555856
     38          1           0        0.482289   -2.183133   -0.302202
     39          1           0       -0.582956   -3.491639   -0.836958
     40          1           0        0.219618   -3.592124    0.739458
 ---------------------------------------------------------------------

 SCF Done:  E(RHF) =  -470.733350360     A.U. after   11 cycles
 E2 =    -0.1583484566D+01 EUMP2 =    -0.47231683492601D+03

 The electronic state is 1-A.
 Alpha  occ. eigenvalues --  -11.21663 -11.21655 -11.21630 -11.21585 -11.21459
 Alpha  occ. eigenvalues --  -11.21453 -11.21396 -11.21382 -11.21131 -11.21124
 Alpha  occ. eigenvalues --  -11.21085 -11.21055  -1.08489  -1.08456  -1.03582
 Alpha  occ. eigenvalues --   -1.03547  -0.96026  -0.96004  -0.87058  -0.87006
 Alpha  occ. eigenvalues --   -0.79674  -0.79586  -0.78340  -0.78232  -0.65254
 Alpha  occ. eigenvalues --   -0.64972  -0.61078  -0.60861  -0.59392  -0.59373
 Alpha  occ. eigenvalues --   -0.57643  -0.57605  -0.55334  -0.55278  -0.52716
 Alpha  occ. eigenvalues --   -0.52698  -0.52484  -0.52400  -0.50097  -0.49843
 Alpha  occ. eigenvalues --   -0.48041  -0.47872  -0.46820  -0.46553  -0.46056
 Alpha  occ. eigenvalues --   -0.45787  -0.45779  -0.45387  -0.43830  -0.43812
 Alpha virt. eigenvalues --    0.19265   0.22467   0.24162   0.24333   0.25262
 Alpha virt. eigenvalues --    0.26946   0.27124   0.27248   0.28092   0.29402
 Alpha virt. eigenvalues --    0.31148   0.31590   0.31698   0.31790   0.31899

 Mulliken charges:
               1
     1  C   -0.297797
     2  C   -0.307737
     3  C   -0.475161
     4  H    0.149946
     5  H    0.149527
     6  H    0.151991
     7  H    0.159606
     8  H    0.155288
     9  H    0.154981
    10  H    0.160493
    11  C   -0.302361
    12  C   -0.299531
    13  C   -0.475855
    14  H    0.150060
    15  H    0.151572
    16  H    0.152442
    17  H    0.151843
    18  H    0.154353
    19  H    0.155569
    20  H    0.160568
    21  C   -0.298276
    22  C   -0.299913
    23  C   -0.475737
    24  H    0.149933
    25  H    0.149459
    26  H    0.152134
    27  H    0.152050
    28  H    0.155327
    29  H    0.155187
    30  H    0.160507
    31  C   -0.301415
    32  C   -0.298933
    33  C   -0.484144
    34  H    0.150091
    35  H    0.151383
    36  H    0.152392
    37  H    0.151524
    38  H    0.162190
    39  H    0.155879
    40  H    0.160565
 Sum of Mulliken charges =  -0.00000

 Dipole moment (field-independent basis, Debye):
    X=             -0.0032    Y=             -0.0087    Z=             -0.0065  Tot=              0.0114
 Quadrupole moment (field-independent basis, Debye-Ang):
   XX=            -85.1774   YY=            -84.7592   ZZ=            -84.6252
   XY=              1.9880   XZ=             -0.1048   YZ=              0.0079

 Normal termination of Gaussian 16 at Thu May  6 02:05:52 2021.
