 Gaussian 16, Revision A.03,
 Gaussian 16:  EM64L-G16RevA.03 25-Dec-2016

 -------------
 #p 6-31g* mp2
 -------------

 ------------------------------------------------------
 Input file generated by CHIRIPA (05-May-2021 14:55:21)
 ------------------------------------------------------
 Symbolic Z-matrix:
 Charge =  0 Multiplicity = 1

                         Standard orientation:
 ---------------------------------------------------------------------
 Center     Atomic      Atomic             Coordinates (Angstroms)
 Number     Number       Type             X           Y           Z
 ---------------------------------------------------------------------
      1          6           0        5.091360   -2.067032    0.153031
      2          6           0        5.690320   -0.828977    0.407956
      3          6           0        4.960894    0.355257    0.266274
      4          6           0        3.628633    0.264156   -0.133817
      5          6           0        3.003683   -0.954206   -0.395200
      6          6           0        3.752314   -2.125592   -0.247028
      7          1           0        5.665455   -2.981984    0.265614
      8          1           0        6.730068   -0.780469    0.718786
      9          1           0        5.399714    1.327080    0.457103
     10          1           0        1.965394   -0.970637   -0.703588
     11          1           0        3.284546   -3.085681   -0.445690
     12          7           0        2.846257    1.511051   -0.287244
     13          8           0        1.674068    1.403839   -0.640960
     14          8           0        3.420034    2.571970   -0.050880
     15          6           0       -5.396732   -0.359045   -0.258809
     16          6           0       -6.759904   -0.009915    0.339403
     17          6           0       -7.924372   -0.585071   -0.467445
     18          1           0       -5.349670    0.014825   -1.290774
     19          1           0       -5.298909   -1.451920   -0.317530
     20          1           0       -6.854568    1.081959    0.398259
     21          1           0       -6.803655   -0.384491    1.370129
     22          1           0       -7.857656   -1.676784   -0.515538
     23          1           0       -7.908858   -0.202001   -1.492929
     24          1           0       -8.889301   -0.323436   -0.022114
     25          6           0       -4.222668    0.208894    0.536646
     26          6           0       -2.859497   -0.140236   -0.061567
     27          6           0       -1.695029    0.434921    0.745281
     28          1           0       -4.320492    1.301770    0.595366
     29          1           0       -4.269731   -0.164976    1.568611
     30          1           0       -2.815745    0.234340   -1.092293
     31          1           0       -2.764832   -1.232110   -0.120423
     32          1           0       -1.710543    0.051850    1.770765
     33          1           0       -1.761745    1.526633    0.793374
     34          1           0       -0.730100    0.173285    0.299951
 ---------------------------------------------------------------------

 SCF Done:  E(RHF) =  -669.535863896     A.U. after   15 cycles
 E2 =    -0.2090902904D+01 EUMP2 =    -0.67162676680019D+03

 The electronic state is 1-A.
 Alpha  occ. eigenvalues --  -20.60872 -20.60866 -15.85906 -11.31251 -11.27822
 Alpha  occ. eigenvalues --  -11.27813 -11.27557 -11.26831 -11.26821 -11.21285
 Alpha  occ. eigenvalues --  -11.21005 -11.20981 -11.20863 -11.20818 -11.20110
 Alpha  occ. eigenvalues --   -1.59934  -1.39490  -1.19422  -1.08821  -1.07969
 Alpha  occ. eigenvalues --   -1.04823  -1.03017  -0.95666  -0.95440  -0.86457
 Alpha  occ. eigenvalues --   -0.86222  -0.82494  -0.79095  -0.77784  -0.77544
 Alpha  occ. eigenvalues --   -0.72134  -0.71248  -0.70533  -0.65079  -0.64828
 Alpha  occ. eigenvalues --   -0.64604  -0.62175  -0.60417  -0.58828  -0.57057
 Alpha  occ. eigenvalues --   -0.55326  -0.54734  -0.53152  -0.52919  -0.52108
 Alpha  occ. eigenvalues --   -0.51874  -0.49394  -0.48887  -0.48878  -0.47399
 Alpha  occ. eigenvalues --   -0.46145  -0.45317  -0.45251  -0.44898  -0.43231
 Alpha  occ. eigenvalues --   -0.37401  -0.36424
 Alpha virt. eigenvalues --    0.04966   0.11220   0.16450   0.21053   0.23272
 Alpha virt. eigenvalues --    0.24422   0.26588   0.27086   0.27653   0.27964
 Alpha virt. eigenvalues --    0.29011   0.30251   0.31607   0.31918   0.32259

 Mulliken charges:
               1
     1  C   -0.170590
     2  C   -0.218569
     3  C   -0.170804
     4  C    0.158135
     5  C   -0.171215
     6  C   -0.218917
     7  H    0.225838
     8  H    0.223680
     9  H    0.275766
    10  H    0.276931
    11  H    0.223861
    12  N    0.490388
    13  O   -0.462044
    14  O   -0.459460
    15  C   -0.297756
    16  C   -0.299325
    17  C   -0.475431
    18  H    0.149764
    19  H    0.147265
    20  H    0.152440
    21  H    0.151044
    22  H    0.154034
    23  H    0.155129
    24  H    0.159427
    25  C   -0.297768
    26  C   -0.300165
    27  C   -0.479674
    28  H    0.150967
    29  H    0.147669
    30  H    0.153848
    31  H    0.144811
    32  H    0.147326
    33  H    0.161491
    34  H    0.171907
 Sum of Mulliken charges =  -0.00000

 Dipole moment (field-independent basis, Debye):
    X=              2.9654    Y=             -4.2959    Z=              0.5083  Tot=              5.2447
 Quadrupole moment (field-independent basis, Debye-Ang):
   XX=            -73.2038   YY=            -95.4076   ZZ=            -95.4268
   XY=            -13.6221   XZ=              2.5922   YZ=              0.9334

 Normal termination of Gaussian 16 at Thu May  6 15:50:23 2021.
