 Gaussian 16, Revision A.03,
 Gaussian 16:  EM64L-G16RevA.03 25-Dec-2016

 -------------
 #p 6-31g* mp2
 -------------

 ------------------------------------------------------
 Input file generated by CHIRIPA (05-May-2021 14:57:22)
 ------------------------------------------------------
 Symbolic Z-matrix:
 Charge =  0 Multiplicity = 1

                         Standard orientation:
 ---------------------------------------------------------------------
 Center     Atomic      Atomic             Coordinates (Angstroms)
 Number     Number       Type             X           Y           Z
 ---------------------------------------------------------------------
      1          6           0        1.959945   -0.654942    0.938252
      2          6           0        2.231418    0.692469    0.678815
      3          6           0        3.495336    1.088776    0.231602
      4          6           0        4.468686    0.106804    0.053803
      5          6           0        4.228918   -1.243514    0.303685
      6          6           0        2.957802   -1.616937    0.750190
      7          1           0        0.975307   -0.953915    1.285383
      8          1           0        1.458396    1.441741    0.823981
      9          1           0        3.732597    2.124961    0.023165
     10          1           0        5.019815   -1.967512    0.149648
     11          1           0        2.749813   -2.664081    0.950877
     12          7           0        5.810549    0.514244   -0.419266
     13          8           0        6.650925   -0.370219   -0.568032
     14          8           0        5.996519    1.710344   -0.632335
     15          6           0       -6.509432    1.053758    0.100990
     16          6           0       -5.345349    1.814369    0.252326
     17          6           0       -4.086746    1.219069    0.125496
     18          6           0       -4.028858   -0.145360   -0.154274
     19          6           0       -5.170466   -0.929949   -0.310610
     20          6           0       -6.418436   -0.313563   -0.179501
     21          1           0       -7.483014    1.524391    0.201176
     22          1           0       -5.412987    2.876446    0.470187
     23          1           0       -3.169497    1.784285    0.237754
     24          1           0       -5.071103   -1.986600   -0.527481
     25          1           0       -7.320795   -0.906740   -0.297544
     26          7           0       -2.702060   -0.786739   -0.290807
     27          8           0       -2.678027   -1.990559   -0.537541
     28          8           0       -1.711274   -0.073487   -0.148504
 ---------------------------------------------------------------------

 SCF Done:  E(RHF) =  -868.340200078     A.U. after   16 cycles
 E2 =    -0.2598246803D+01 EUMP2 =    -0.87093844688132D+03

 The electronic state is 1-A.
 Alpha  occ. eigenvalues --  -20.61870 -20.61830 -20.59945 -20.59940 -15.86878
 Alpha  occ. eigenvalues --  -15.84993 -11.31969 -11.30112 -11.28522 -11.28486
 Alpha  occ. eigenvalues --  -11.28181 -11.27455 -11.27436 -11.26690 -11.26680
 Alpha  occ. eigenvalues --  -11.26165 -11.25568 -11.25532  -1.60914  -1.59027
 Alpha  occ. eigenvalues --   -1.40475  -1.38588  -1.20113  -1.18251  -1.09556
 Alpha  occ. eigenvalues --   -1.07642  -1.05474  -1.03636  -0.96438  -0.94525
 Alpha  occ. eigenvalues --   -0.86884  -0.85015  -0.83283  -0.81389  -0.78363
 Alpha  occ. eigenvalues --   -0.76509  -0.73116  -0.72214  -0.71218  -0.71212
 Alpha  occ. eigenvalues --   -0.70349  -0.69240  -0.65768  -0.65471  -0.63883
 Alpha  occ. eigenvalues --   -0.63615  -0.62827  -0.61007  -0.55977  -0.53986
 Alpha  occ. eigenvalues --   -0.53813  -0.53560  -0.51958  -0.51714  -0.49870
 Alpha  occ. eigenvalues --   -0.49830  -0.47985  -0.47948  -0.45937  -0.44051
 Alpha  occ. eigenvalues --   -0.38070  -0.37064  -0.36126  -0.35260
 Alpha virt. eigenvalues --    0.04142   0.06044   0.10595   0.12421   0.15690
 Alpha virt. eigenvalues --    0.17628   0.20750   0.22676   0.26682   0.27547
 Alpha virt. eigenvalues --    0.28422   0.29633   0.30433   0.31814   0.32387

 Mulliken charges:
               1
     1  C   -0.165356
     2  C   -0.217945
     3  C   -0.172930
     4  C    0.156792
     5  C   -0.172033
     6  C   -0.220401
     7  H    0.239678
     8  H    0.223489
     9  H    0.271019
    10  H    0.271993
    11  H    0.222090
    12  N    0.488390
    13  O   -0.463341
    14  O   -0.463902
    15  C   -0.169718
    16  C   -0.218304
    17  C   -0.170392
    18  C    0.157857
    19  C   -0.170336
    20  C   -0.218416
    21  H    0.228316
    22  H    0.225469
    23  H    0.273054
    24  H    0.276632
    25  H    0.225913
    26  N    0.489673
    27  O   -0.457192
    28  O   -0.470097
 Sum of Mulliken charges =  -0.00000

 Dipole moment (field-independent basis, Debye):
    X=            -10.0836    Y=              0.7482    Z=              2.1700  Tot=             10.3415
 Quadrupole moment (field-independent basis, Debye-Ang):
   XX=           -109.4257   YY=            -97.5036   ZZ=           -106.3548
   XY=            -15.1493   XZ=              6.5822   YZ=              0.4639

 Normal termination of Gaussian 16 at Fri May  7 04:48:01 2021.
