 Gaussian 16, Revision A.03,
 Gaussian 16:  EM64L-G16RevA.03 25-Dec-2016

 -------------
 #p 6-31g* mp2
 -------------

 ------------------------------------------------------
 Input file generated by CHIRIPA (05-May-2021 14:51:08)
 ------------------------------------------------------
 Symbolic Z-matrix:
 Charge =  0 Multiplicity = 1

                         Standard orientation:
 ---------------------------------------------------------------------
 Center     Atomic      Atomic             Coordinates (Angstroms)
 Number     Number       Type             X           Y           Z
 ---------------------------------------------------------------------
      1          6           0        1.820563   -0.969248    0.738586
      2          6           0        0.863419   -2.129351    0.462865
      3          6           0       -0.163810   -2.326062    1.578168
      4          1           0        2.339923   -1.148913    1.689864
      5          1           0        1.238839   -0.046291    0.869522
      6          1           0        1.446867   -3.049593    0.331117
      7          1           0        0.346417   -1.946996   -0.487962
      8          1           0       -0.770798   -1.423987    1.706341
      9          1           0        0.335904   -2.532849    2.530074
     10          1           0       -0.837850   -3.160436    1.360568
     11          6           0        2.853387   -0.760041   -0.367413
     12          6           0        3.810531    0.400062   -0.091692
     13          6           0        4.837760    0.596773   -1.206995
     14          1           0        3.435111   -1.682998   -0.498348
     15          1           0        2.334027   -0.580376   -1.318691
     16          1           0        4.327533    0.217707    0.859135
     17          1           0        3.227083    1.320304    0.040056
     18          1           0        4.338046    0.803560   -2.158901
     19          1           0        5.444748   -0.305302   -1.335168
     20          1           0        5.511800    1.431147   -0.989395
     21          6           0       -2.953343    0.416518   -0.133579
     22          6           0       -2.904527   -0.792638   -1.068213
     23          6           0       -4.144593   -1.679584   -0.952638
     24          1           0       -3.060683    0.067050    0.902421
     25          1           0       -3.851163    1.008831   -0.358260
     26          1           0       -2.006339   -1.381746   -0.842766
     27          1           0       -2.797098   -0.440258   -2.102091
     28          1           0       -5.048230   -1.112242   -1.197925
     29          1           0       -4.252977   -2.059079    0.068556
     30          1           0       -4.088756   -2.537916   -1.629401
     31          6           0       -1.720607    1.312771   -0.237594
     32          6           0       -1.769423    2.521928    0.697041
     33          6           0       -0.529356    3.408872    0.581465
     34          1           0       -0.822787    0.720458   -0.012913
     35          1           0       -1.613266    1.662238   -1.273594
     36          1           0       -1.876852    2.169547    1.730918
     37          1           0       -2.667611    3.111035    0.471592
     38          1           0       -0.420973    3.788368   -0.439729
     39          1           0        0.374280    2.841531    0.826751
     40          1           0       -0.585194    4.267205    1.258227
 ---------------------------------------------------------------------

 SCF Done:  E(RHF) =  -470.732449600     A.U. after   11 cycles
 E2 =    -0.1585691447D+01 EUMP2 =    -0.47231814104719D+03

 The electronic state is 1-A.
 Alpha  occ. eigenvalues --  -11.21669 -11.21651 -11.21622 -11.21570 -11.21453
 Alpha  occ. eigenvalues --  -11.21427 -11.21387 -11.21367 -11.21156 -11.21135
 Alpha  occ. eigenvalues --  -11.21077 -11.21057  -1.08544  -1.08409  -1.03606
 Alpha  occ. eigenvalues --   -1.03534  -0.96034  -0.96006  -0.87071  -0.87000
 Alpha  occ. eigenvalues --   -0.79692  -0.79582  -0.78333  -0.78257  -0.65596
 Alpha  occ. eigenvalues --   -0.64706  -0.61148  -0.60792  -0.59428  -0.59343
 Alpha  occ. eigenvalues --   -0.57667  -0.57596  -0.55347  -0.55266  -0.52722
 Alpha  occ. eigenvalues --   -0.52694  -0.52461  -0.52430  -0.50098  -0.49843
 Alpha  occ. eigenvalues --   -0.48029  -0.47924  -0.46918  -0.46532  -0.46169
 Alpha  occ. eigenvalues --   -0.45777  -0.45673  -0.45262  -0.43832  -0.43805
 Alpha virt. eigenvalues --    0.19124   0.21698   0.23410   0.24661   0.25681
 Alpha virt. eigenvalues --    0.26214   0.26582   0.27901   0.28446   0.30064
 Alpha virt. eigenvalues --    0.31116   0.31459   0.31794   0.31998   0.32266

 Mulliken charges:
               1
     1  C   -0.304660
     2  C   -0.305719
     3  C   -0.479945
     4  H    0.150386
     5  H    0.153889
     6  H    0.153232
     7  H    0.156207
     8  H    0.157896
     9  H    0.156119
    10  H    0.160859
    11  C   -0.298312
    12  C   -0.300817
    13  C   -0.475735
    14  H    0.149808
    15  H    0.150483
    16  H    0.151946
    17  H    0.152893
    18  H    0.155452
    19  H    0.155164
    20  H    0.160444
    21  C   -0.298441
    22  C   -0.308509
    23  C   -0.475463
    24  H    0.150147
    25  H    0.149980
    26  H    0.161975
    27  H    0.151278
    28  H    0.155047
    29  H    0.155598
    30  H    0.159985
    31  C   -0.308909
    32  C   -0.299183
    33  C   -0.478280
    34  H    0.158635
    35  H    0.149697
    36  H    0.151816
    37  H    0.152529
    38  H    0.155386
    39  H    0.156228
    40  H    0.160895
 Sum of Mulliken charges =  -0.00000

 Dipole moment (field-independent basis, Debye):
    X=              0.0197    Y=             -0.0143    Z=              0.0001  Tot=              0.0243
 Quadrupole moment (field-independent basis, Debye-Ang):
   XX=            -85.5137   YY=            -84.6383   ZZ=            -84.5447
   XY=             -1.5098   XZ=              1.1492   YZ=             -0.5452

 Normal termination of Gaussian 16 at Wed May  5 15:04:01 2021.
