 Gaussian 16, Revision A.03,
 Gaussian 16:  EM64L-G16RevA.03 25-Dec-2016

 -------------
 #p 6-31g* mp2
 -------------

 ------------------------------------------------------
 Input file generated by CHIRIPA (05-May-2021 14:51:13)
 ------------------------------------------------------
 Symbolic Z-matrix:
 Charge =  0 Multiplicity = 1

                         Standard orientation:
 ---------------------------------------------------------------------
 Center     Atomic      Atomic             Coordinates (Angstroms)
 Number     Number       Type             X           Y           Z
 ---------------------------------------------------------------------
      1          6           0        2.814093   -0.018412   -0.381411
      2          6           0        2.205470   -1.075848   -1.303036
      3          6           0        3.172723   -2.219386   -1.610505
      4          1           0        3.724185    0.384324   -0.846687
      5          1           0        3.128025   -0.496618    0.556758
      6          1           0        1.891518   -0.595540   -2.238639
      7          1           0        1.296616   -1.475976   -0.835599
      8          1           0        3.477324   -2.724777   -0.688334
      9          1           0        4.075606   -1.839338   -2.099346
     10          1           0        2.717213   -2.963910   -2.270849
     11          6           0        1.859230    1.131261   -0.064839
     12          6           0        2.467852    2.188698    0.856786
     13          6           0        1.500600    3.332236    1.164255
     14          1           0        1.545298    1.609467   -1.003007
     15          1           0        0.949138    0.728525    0.400437
     16          1           0        3.376707    2.588826    0.389349
     17          1           0        2.781804    1.708389    1.792390
     18          1           0        0.597717    2.952187    1.653097
     19          1           0        1.195999    3.837626    0.242084
     20          1           0        1.956110    4.076760    1.824600
     21          6           0       -2.842956    0.011160    0.152793
     22          6           0       -3.089948    0.427116   -1.297710
     23          6           0       -4.105181    1.563613   -1.422088
     24          1           0       -3.795329   -0.294668    0.607103
     25          1           0       -2.490743    0.882614    0.721923
     26          1           0       -3.440270   -0.445191   -1.864253
     27          1           0       -2.136844    0.731807   -1.748678
     28          1           0       -3.758888    2.450401   -0.881450
     29          1           0       -5.069718    1.266716   -0.997682
     30          1           0       -4.266663    1.845080   -2.467344
     31          6           0       -1.830367   -1.124009    0.293457
     32          6           0       -1.583374   -1.539965    1.743960
     33          6           0       -0.568142   -2.676463    1.868337
     34          1           0       -2.182580   -1.995462   -0.275674
     35          1           0       -0.877993   -0.818181   -0.160854
     36          1           0       -2.536478   -1.844656    2.194928
     37          1           0       -1.233053   -0.667658    2.310503
     38          1           0        0.396397   -2.379565    1.443932
     39          1           0       -0.914435   -3.563250    1.327700
     40          1           0       -0.406660   -2.957930    2.913594
 ---------------------------------------------------------------------

 SCF Done:  E(RHF) =  -470.732602867     A.U. after   11 cycles
 E2 =    -0.1584868975D+01 EUMP2 =    -0.47231747184175D+03

 The electronic state is 1-A.
 Alpha  occ. eigenvalues --  -11.21669 -11.21649 -11.21608 -11.21575 -11.21477
 Alpha  occ. eigenvalues --  -11.21413 -11.21386 -11.21318 -11.21141 -11.21139
 Alpha  occ. eigenvalues --  -11.21082 -11.21048  -1.08530  -1.08410  -1.03590
 Alpha  occ. eigenvalues --   -1.03538  -0.96036  -0.95990  -0.87049  -0.87010
 Alpha  occ. eigenvalues --   -0.79690  -0.79577  -0.78473  -0.78108  -0.65428
 Alpha  occ. eigenvalues --   -0.64814  -0.61071  -0.60862  -0.59429  -0.59327
 Alpha  occ. eigenvalues --   -0.57659  -0.57589  -0.55364  -0.55250  -0.52729
 Alpha  occ. eigenvalues --   -0.52686  -0.52457  -0.52421  -0.50051  -0.49879
 Alpha  occ. eigenvalues --   -0.48106  -0.47861  -0.46926  -0.46566  -0.46342
 Alpha  occ. eigenvalues --   -0.45800  -0.45742  -0.44922  -0.43833  -0.43788
 Alpha virt. eigenvalues --    0.19477   0.22292   0.23937   0.24440   0.25514
 Alpha virt. eigenvalues --    0.26314   0.27070   0.27919   0.28191   0.30502
 Alpha virt. eigenvalues --    0.30973   0.31354   0.31649   0.31796   0.32121

 Mulliken charges:
               1
     1  C   -0.298354
     2  C   -0.309889
     3  C   -0.475158
     4  H    0.150174
     5  H    0.149395
     6  H    0.151748
     7  H    0.161743
     8  H    0.155268
     9  H    0.155175
    10  H    0.160657
    11  C   -0.304766
    12  C   -0.299358
    13  C   -0.475770
    14  H    0.149387
    15  H    0.155056
    16  H    0.152431
    17  H    0.152218
    18  H    0.154490
    19  H    0.155324
    20  H    0.160750
    21  C   -0.297685
    22  C   -0.299889
    23  C   -0.475813
    24  H    0.149609
    25  H    0.149208
    26  H    0.151764
    27  H    0.152797
    28  H    0.155444
    29  H    0.155029
    30  H    0.160113
    31  C   -0.309883
    32  C   -0.300008
    33  C   -0.479664
    34  H    0.149475
    35  H    0.161269
    36  H    0.152526
    37  H    0.151005
    38  H    0.157808
    39  H    0.155753
    40  H    0.160623
 Sum of Mulliken charges =  -0.00000

 Dipole moment (field-independent basis, Debye):
    X=              0.0167    Y=             -0.0029    Z=             -0.0129  Tot=              0.0213
 Quadrupole moment (field-independent basis, Debye-Ang):
   XX=            -84.9689   YY=            -85.4716   ZZ=            -84.2921
   XY=              1.8361   XZ=             -0.2162   YZ=             -0.4411

 Normal termination of Gaussian 16 at Wed May  5 18:22:30 2021.
