 Gaussian 16, Revision A.03,
 Gaussian 16:  EM64L-G16RevA.03 25-Dec-2016

 -------------
 #p 6-31g* mp2
 -------------

 ------------------------------------------------------
 Input file generated by CHIRIPA (05-May-2021 14:55:20)
 ------------------------------------------------------
 Symbolic Z-matrix:
 Charge =  0 Multiplicity = 1

                         Standard orientation:
 ---------------------------------------------------------------------
 Center     Atomic      Atomic             Coordinates (Angstroms)
 Number     Number       Type             X           Y           Z
 ---------------------------------------------------------------------
      1          6           0        3.927563    2.413314    0.081903
      2          6           0        3.092975    1.930700   -0.931541
      3          6           0        2.714273    0.585195   -0.958884
      4          6           0        3.190726   -0.253552    0.047488
      5          6           0        4.023482    0.197281    1.070502
      6          6           0        4.389339    1.546593    1.077934
      7          1           0        4.216758    3.460014    0.095410
      8          1           0        2.732839    2.601515   -1.706366
      9          1           0        2.069252    0.185093   -1.731727
     10          1           0        4.366524   -0.495580    1.829241
     11          1           0        5.037605    1.918622    1.866217
     12          7           0        2.796611   -1.679993    0.029081
     13          8           0        3.229841   -2.398533    0.927217
     14          8           0        2.061936   -2.052488   -0.883135
     15          6           0       -4.767849    0.491887   -0.005761
     16          6           0       -6.026493   -0.199389    0.519536
     17          6           0       -7.219428    0.750396    0.631818
     18          1           0       -4.511526    1.327742    0.659514
     19          1           0       -4.982518    0.930390   -0.990153
     20          1           0       -5.809116   -0.637648    1.502030
     21          1           0       -6.279741   -1.033813   -0.146959
     22          1           0       -7.464469    1.178339   -0.345638
     23          1           0       -6.991170    1.576757    1.312720
     24          1           0       -8.108413    0.235497    1.009239
     25          6           0       -3.566695   -0.444636   -0.123574
     26          6           0       -2.308051    0.246639   -0.648872
     27          6           0       -1.115116   -0.703145   -0.761155
     28          1           0       -3.352026   -0.883140    0.860817
     29          1           0       -3.823019   -1.280491   -0.788849
     30          1           0       -2.054804    1.081065    0.017624
     31          1           0       -2.525428    0.684898   -1.631365
     32          1           0       -1.343374   -1.529505   -1.442056
     33          1           0       -0.870076   -1.131089    0.216302
     34          1           0       -0.226132   -0.188246   -1.138576
 ---------------------------------------------------------------------

 SCF Done:  E(RHF) =  -669.534979842     A.U. after   15 cycles
 E2 =    -0.2092187233D+01 EUMP2 =    -0.67162716707494D+03

 The electronic state is 1-A.
 Alpha  occ. eigenvalues --  -20.60815 -20.60781 -15.85830 -11.31216 -11.27784
 Alpha  occ. eigenvalues --  -11.27779 -11.27529 -11.26808 -11.26798 -11.21412
 Alpha  occ. eigenvalues --  -11.21259 -11.21179 -11.21059 -11.20936 -11.20460
 Alpha  occ. eigenvalues --   -1.59862  -1.39416  -1.19391  -1.08781  -1.08165
 Alpha  occ. eigenvalues --   -1.04800  -1.03235  -0.95704  -0.95575  -0.86678
 Alpha  occ. eigenvalues --   -0.86189  -0.82447  -0.79303  -0.77982  -0.77484
 Alpha  occ. eigenvalues --   -0.72056  -0.71176  -0.70510  -0.65044  -0.64814
 Alpha  occ. eigenvalues --   -0.64799  -0.62185  -0.60632  -0.59052  -0.57297
 Alpha  occ. eigenvalues --   -0.55300  -0.54939  -0.53147  -0.52959  -0.52286
 Alpha  occ. eigenvalues --   -0.52049  -0.49588  -0.48821  -0.48809  -0.47603
 Alpha  occ. eigenvalues --   -0.46345  -0.45522  -0.45453  -0.44810  -0.43424
 Alpha  occ. eigenvalues --   -0.37365  -0.36386
 Alpha virt. eigenvalues --    0.05014   0.11168   0.16501   0.21157   0.23114
 Alpha virt. eigenvalues --    0.24437   0.26697   0.26906   0.27765   0.27791
 Alpha virt. eigenvalues --    0.28910   0.30504   0.31569   0.31735   0.32097

 Mulliken charges:
               1
     1  C   -0.170763
     2  C   -0.219460
     3  C   -0.170644
     4  C    0.159237
     5  C   -0.171176
     6  C   -0.218290
     7  H    0.225723
     8  H    0.223738
     9  H    0.276998
    10  H    0.275640
    11  H    0.223547
    12  N    0.487988
    13  O   -0.460477
    14  O   -0.457784
    15  C   -0.297665
    16  C   -0.299529
    17  C   -0.475503
    18  H    0.147979
    19  H    0.148200
    20  H    0.152335
    21  H    0.152490
    22  H    0.154532
    23  H    0.154301
    24  H    0.160072
    25  C   -0.298319
    26  C   -0.302137
    27  C   -0.468153
    28  H    0.150718
    29  H    0.150992
    30  H    0.147490
    31  H    0.147664
    32  H    0.161069
    33  H    0.158318
    34  H    0.150872
 Sum of Mulliken charges =  -0.00000

 Dipole moment (field-independent basis, Debye):
    X=              1.5043    Y=              4.9018    Z=              0.0738  Tot=              5.1279
 Quadrupole moment (field-independent basis, Debye-Ang):
   XX=            -86.2143   YY=            -97.9716   ZZ=            -90.7009
   XY=             16.3031   XZ=              3.2917   YZ=             -0.2977

 Normal termination of Gaussian 16 at Thu May  6 14:07:53 2021.
