 Gaussian 16, Revision A.03,
 Gaussian 16:  EM64L-G16RevA.03 25-Dec-2016

 -------------
 #p 6-31g* mp2
 -------------

 ------------------------------------------------------
 Input file generated by CHIRIPA (05-May-2021 14:57:27)
 ------------------------------------------------------
 Symbolic Z-matrix:
 Charge =  0 Multiplicity = 1

                         Standard orientation:
 ---------------------------------------------------------------------
 Center     Atomic      Atomic             Coordinates (Angstroms)
 Number     Number       Type             X           Y           Z
 ---------------------------------------------------------------------
      1          6           0        2.909347    2.445153   -0.258253
      2          6           0        4.263583    2.292787   -0.573453
      3          6           0        4.880997    1.042946   -0.467404
      4          6           0        4.110768   -0.037933   -0.041097
      5          6           0        2.759585    0.081899    0.280203
      6          6           0        2.162986    1.341169    0.166819
      7          1           0        2.437809    3.419722   -0.343484
      8          1           0        4.845677    3.148393   -0.903828
      9          1           0        5.927703    0.896776   -0.705015
     10          1           0        2.205258   -0.789574    0.606812
     11          1           0        1.111090    1.456542    0.412278
     12          7           0        4.753379   -1.366075    0.075055
     13          8           0        4.052912   -2.302659    0.452934
     14          8           0        5.945357   -1.445339   -0.213983
     15          6           0       -6.425103    0.313875   -0.453064
     16          6           0       -5.821107   -0.837109   -0.969733
     17          6           0       -4.480755   -1.121335   -0.691850
     18          6           0       -3.770878   -0.228799    0.109864
     19          6           0       -4.344468    0.926150    0.639371
     20          6           0       -5.686157    1.190287    0.348426
     21          1           0       -7.466839    0.526867   -0.674004
     22          1           0       -6.392545   -1.519529   -1.592473
     23          1           0       -3.988293   -2.005157   -1.078835
     24          1           0       -3.749149    1.587567    1.257060
     25          1           0       -6.152620    2.084914    0.751041
     26          7           0       -2.351200   -0.519063    0.410960
     27          8           0       -1.747479    0.283179    1.119879
     28          8           0       -1.869057   -1.543318   -0.067661
 ---------------------------------------------------------------------

 SCF Done:  E(RHF) =  -868.340167871     A.U. after   16 cycles
 E2 =    -0.2598372727D+01 EUMP2 =    -0.87093854059837D+03

 The electronic state is 1-A.
 Alpha  occ. eigenvalues --  -20.61656 -20.61605 -20.59830 -20.59805 -15.86645
 Alpha  occ. eigenvalues --  -15.84864 -11.31770 -11.30097 -11.28329 -11.28284
 Alpha  occ. eigenvalues --  -11.28004 -11.27278 -11.27248 -11.26727 -11.26490
 Alpha  occ. eigenvalues --  -11.26410 -11.25762 -11.25441  -1.60688  -1.58900
 Alpha  occ. eigenvalues --   -1.40247  -1.38454  -1.19919  -1.18258  -1.09359
 Alpha  occ. eigenvalues --   -1.07697  -1.05284  -1.03606  -0.96233  -0.94548
 Alpha  occ. eigenvalues --   -0.86693  -0.85027  -0.83073  -0.81355  -0.78149
 Alpha  occ. eigenvalues --   -0.76406  -0.72873  -0.71983  -0.71088  -0.71022
 Alpha  occ. eigenvalues --   -0.70221  -0.69393  -0.65574  -0.65284  -0.63901
 Alpha  occ. eigenvalues --   -0.63583  -0.62633  -0.60921  -0.55793  -0.54180
 Alpha  occ. eigenvalues --   -0.53627  -0.53372  -0.51997  -0.51669  -0.49647
 Alpha  occ. eigenvalues --   -0.49610  -0.47850  -0.47832  -0.45696  -0.43888
 Alpha  occ. eigenvalues --   -0.37883  -0.36876  -0.36287  -0.35212
 Alpha virt. eigenvalues --    0.04346   0.06074   0.10782   0.12422   0.15876
 Alpha virt. eigenvalues --    0.17587   0.20944   0.22624   0.26878   0.27767
 Alpha virt. eigenvalues --    0.28710   0.29400   0.30548   0.31913   0.32257

 Mulliken charges:
               1
     1  C   -0.172537
     2  C   -0.219014
     3  C   -0.173190
     4  C    0.157462
     5  C   -0.172904
     6  C   -0.226738
     7  H    0.221037
     8  H    0.218509
     9  H    0.271749
    10  H    0.285771
    11  H    0.242216
    12  N    0.487843
    13  O   -0.458681
    14  O   -0.465056
    15  C   -0.169869
    16  C   -0.218557
    17  C   -0.170138
    18  C    0.157689
    19  C   -0.170969
    20  C   -0.218532
    21  H    0.227627
    22  H    0.225837
    23  H    0.277784
    24  H    0.274001
    25  H    0.224614
    26  N    0.489630
    27  O   -0.470575
    28  O   -0.455008
 Sum of Mulliken charges =  -0.00000

 Dipole moment (field-independent basis, Debye):
    X=             -7.8608    Y=              5.5234    Z=             -1.4591  Tot=              9.7175
 Quadrupole moment (field-independent basis, Debye-Ang):
   XX=            -83.2484   YY=           -102.3724   ZZ=           -104.5268
   XY=             18.6173   XZ=              1.0790   YZ=              2.2678

 Normal termination of Gaussian 16 at Fri May  7 05:07:38 2021.
