 Gaussian 16, Revision A.03,
 Gaussian 16:  EM64L-G16RevA.03 25-Dec-2016

 -------------
 #p 6-31g* mp2
 -------------

 ------------------------------------------------------
 Input file generated by CHIRIPA (05-May-2021 14:53:14)
 ------------------------------------------------------
 Symbolic Z-matrix:
 Charge =  0 Multiplicity = 1

                         Standard orientation:
 ---------------------------------------------------------------------
 Center     Atomic      Atomic             Coordinates (Angstroms)
 Number     Number       Type             X           Y           Z
 ---------------------------------------------------------------------
      1          6           0       -4.020450   -0.545596    0.082637
      2          6           0       -3.702226   -1.890062   -0.572443
      3          6           0       -4.714975   -2.977499   -0.212423
      4          1           0       -4.050298   -0.674268    1.173278
      5          1           0       -5.026695   -0.226191   -0.222070
      6          1           0       -2.696334   -2.206169   -0.267691
      7          1           0       -3.672944   -1.758134   -1.661642
      8          1           0       -5.721300   -2.687626   -0.531617
      9          1           0       -4.739142   -3.138207    0.870254
     10          1           0       -4.468389   -3.930201   -0.691395
     11          6           0       -3.016943    0.551638   -0.267759
     12          6           0       -3.335167    1.896104    0.387321
     13          6           0       -2.322418    2.983541    0.027301
     14          1           0       -2.010698    0.232233    0.036948
     15          1           0       -2.987095    0.680310   -1.358400
     16          1           0       -3.364449    1.764176    1.476519
     17          1           0       -4.341058    2.212212    0.082569
     18          1           0       -2.298251    3.144249   -1.055376
     19          1           0       -1.316093    2.693668    0.346494
     20          1           0       -2.569004    3.936243    0.506273
     21          6           0        1.536628    2.210043    0.034980
     22          6           0        1.151554    1.216015    0.940600
     23          6           0        1.816152   -0.013613    0.970157
     24          6           0        2.866187   -0.216248    0.075922
     25          6           0        3.273306    0.754366   -0.838110
     26          6           0        2.594410    1.976458   -0.849923
     27          1           0        1.014798    3.162321    0.018912
     28          1           0        0.330423    1.394637    1.628992
     29          1           0        1.538740   -0.800594    1.660897
     30          1           0        4.095611    0.546980   -1.512070
     31          1           0        2.895634    2.746606   -1.554325
     32          7           0        3.577336   -1.514010    0.097821
     33          8           0        4.499243   -1.667771   -0.700352
     34          8           0        3.199361   -2.352861    0.912745
 ---------------------------------------------------------------------

 SCF Done:  E(RHF) =  -669.534597131     A.U. after   15 cycles
 E2 =    -0.2092718852D+01 EUMP2 =    -0.67162731598282D+03

 The electronic state is 1-A.
 Alpha  occ. eigenvalues --  -20.60782 -20.60777 -15.85837 -11.31209 -11.27802
 Alpha  occ. eigenvalues --  -11.27787 -11.27496 -11.26800 -11.26778 -11.22390
 Alpha  occ. eigenvalues --  -11.22110 -11.21957 -11.21872 -11.21785 -11.21252
 Alpha  occ. eigenvalues --   -1.59858  -1.39411  -1.19392  -1.08976  -1.08777
 Alpha  occ. eigenvalues --   -1.04802  -1.04091  -0.96565  -0.95612  -0.87591
 Alpha  occ. eigenvalues --   -0.86201  -0.82447  -0.80175  -0.78731  -0.77494
 Alpha  occ. eigenvalues --   -0.72057  -0.71181  -0.70515  -0.65671  -0.65049
 Alpha  occ. eigenvalues --   -0.64800  -0.62198  -0.61439  -0.59934  -0.58140
 Alpha  occ. eigenvalues --   -0.55905  -0.55271  -0.53248  -0.53173  -0.52933
 Alpha  occ. eigenvalues --   -0.52870  -0.50514  -0.48816  -0.48810  -0.48462
 Alpha  occ. eigenvalues --   -0.47193  -0.46278  -0.46181  -0.44815  -0.44321
 Alpha  occ. eigenvalues --   -0.37326  -0.36385
 Alpha virt. eigenvalues --    0.05028   0.11116   0.16449   0.20144   0.22614
 Alpha virt. eigenvalues --    0.23888   0.25869   0.26297   0.26960   0.28138
 Alpha virt. eigenvalues --    0.28893   0.30140   0.30976   0.31407   0.31962

 Mulliken charges:
               1
     1  C   -0.298726
     2  C   -0.300244
     3  C   -0.476072
     4  H    0.148973
     5  H    0.150556
     6  H    0.153702
     7  H    0.152965
     8  H    0.155092
     9  H    0.155430
    10  H    0.162810
    11  C   -0.300432
    12  C   -0.300111
    13  C   -0.481193
    14  H    0.148788
    15  H    0.151798
    16  H    0.150551
    17  H    0.155904
    18  H    0.158675
    19  H    0.146756
    20  H    0.161797
    21  C   -0.170362
    22  C   -0.218866
    23  C   -0.172190
    24  C    0.158203
    25  C   -0.170390
    26  C   -0.219653
    27  H    0.229220
    28  H    0.224537
    29  H    0.275530
    30  H    0.275791
    31  H    0.223802
    32  N    0.488170
    33  O   -0.460291
    34  O   -0.460521
 Sum of Mulliken charges =  -0.00000

 Dipole moment (field-independent basis, Debye):
    X=             -2.5789    Y=              4.5212    Z=             -0.1547  Tot=              5.2073
 Quadrupole moment (field-independent basis, Debye-Ang):
   XX=           -107.5225   YY=            -97.5186   ZZ=            -91.7857
   XY=             14.2718   XZ=             -2.2892   YZ=             -1.1655

 Normal termination of Gaussian 16 at Thu May  6 18:46:01 2021.
