 Gaussian 16, Revision A.03,
 Gaussian 16:  EM64L-G16RevA.03 25-Dec-2016

 -------------
 #p 6-31g* mp2
 -------------

 ------------------------------------------------------
 Input file generated by CHIRIPA (05-May-2021 14:53:13)
 ------------------------------------------------------
 Symbolic Z-matrix:
 Charge =  0 Multiplicity = 1

                         Standard orientation:
 ---------------------------------------------------------------------
 Center     Atomic      Atomic             Coordinates (Angstroms)
 Number     Number       Type             X           Y           Z
 ---------------------------------------------------------------------
      1          6           0        5.257389    0.174132   -0.080531
      2          6           0        6.308144   -0.928425    0.054618
      3          6           0        7.709501   -0.379648    0.324498
      4          1           0        5.549769    0.852841   -0.893435
      5          1           0        5.246014    0.774929    0.839419
      6          1           0        6.316567   -1.527816   -0.864771
      7          1           0        6.013130   -1.604698    0.867169
      8          1           0        7.723524    0.201695    1.252099
      9          1           0        8.028686    0.279014   -0.489681
     10          1           0        8.444920   -1.184850    0.417600
     11          6           0        3.851380   -0.358760   -0.350521
     12          6           0        2.800625    0.743798   -0.485671
     13          6           0        1.399267    0.195021   -0.755550
     14          1           0        3.862754   -0.959556   -1.270471
     15          1           0        3.559000   -1.037469    0.462383
     16          1           0        3.095639    1.420070   -1.298221
     17          1           0        2.792201    1.343188    0.433719
     18          1           0        1.080083   -0.463641    0.058629
     19          1           0        1.385244   -0.386322   -1.683152
     20          1           0        0.663849    1.000223   -0.848652
     21          6           0       -1.897092    1.913421    0.633718
     22          6           0       -3.043833    2.179609   -0.121694
     23          6           0       -3.970977    1.167071   -0.385738
     24          6           0       -3.718694   -0.105890    0.123393
     25          6           0       -2.585564   -0.402400    0.879294
     26          6           0       -1.672013    0.625537    1.130925
     27          1           0       -1.182143    2.705967    0.834012
     28          1           0       -3.221224    3.178854   -0.509105
     29          1           0       -4.867038    1.345525   -0.967673
     30          1           0       -2.436051   -1.408428    1.252082
     31          1           0       -0.782308    0.415918    1.717892
     32          7           0       -4.693024   -1.185970   -0.149568
     33          8           0       -4.447699   -2.299066    0.310290
     34          8           0       -5.683582   -0.898990   -0.818205
 ---------------------------------------------------------------------

 SCF Done:  E(RHF) =  -669.534617426     A.U. after   15 cycles
 E2 =    -0.2092059077D+01 EUMP2 =    -0.67162667650333D+03

 The electronic state is 1-A.
 Alpha  occ. eigenvalues --  -20.60747 -20.60742 -15.85799 -11.31174 -11.27723
 Alpha  occ. eigenvalues --  -11.27707 -11.27464 -11.26771 -11.26734 -11.22241
 Alpha  occ. eigenvalues --  -11.21956 -11.21899 -11.21801 -11.21679 -11.21378
 Alpha  occ. eigenvalues --   -1.59822  -1.39375  -1.19342  -1.08922  -1.08740
 Alpha  occ. eigenvalues --   -1.04748  -1.04021  -0.96468  -0.95572  -0.87491
 Alpha  occ. eigenvalues --   -0.86135  -0.82405  -0.80090  -0.78720  -0.77447
 Alpha  occ. eigenvalues --   -0.72019  -0.71143  -0.70453  -0.65568  -0.64996
 Alpha  occ. eigenvalues --   -0.64757  -0.62124  -0.61399  -0.59854  -0.58078
 Alpha  occ. eigenvalues --   -0.55778  -0.55243  -0.53482  -0.52954  -0.52782
 Alpha  occ. eigenvalues --   -0.52727  -0.50389  -0.48777  -0.48772  -0.48400
 Alpha  occ. eigenvalues --   -0.47129  -0.46261  -0.46183  -0.44779  -0.44276
 Alpha  occ. eigenvalues --   -0.37279  -0.36300
 Alpha virt. eigenvalues --    0.05044   0.11301   0.16440   0.20427   0.22627
 Alpha virt. eigenvalues --    0.23998   0.25894   0.26589   0.27027   0.27765
 Alpha virt. eigenvalues --    0.29000   0.29868   0.31154   0.31556   0.32258

 Mulliken charges:
               1
     1  C   -0.298388
     2  C   -0.300003
     3  C   -0.475924
     4  H    0.150361
     5  H    0.148506
     6  H    0.153164
     7  H    0.152196
     8  H    0.154973
     9  H    0.155597
    10  H    0.161541
    11  C   -0.298257
    12  C   -0.300643
    13  C   -0.477020
    14  H    0.152159
    15  H    0.148852
    16  H    0.153648
    17  H    0.146177
    18  H    0.148697
    19  H    0.160300
    20  H    0.160782
    21  C   -0.173618
    22  C   -0.218851
    23  C   -0.171365
    24  C    0.159070
    25  C   -0.172760
    26  C   -0.210589
    27  H    0.225647
    28  H    0.223398
    29  H    0.275463
    30  H    0.275264
    31  H    0.224413
    32  N    0.488041
    33  O   -0.460358
    34  O   -0.460472
 Sum of Mulliken charges =  -0.00000

 Dipole moment (field-independent basis, Debye):
    X=              3.5015    Y=              3.7830    Z=              0.9119  Tot=              5.2348
 Quadrupole moment (field-independent basis, Debye-Ang):
   XX=           -120.0519   YY=            -94.0021   ZZ=            -92.7706
   XY=            -17.0895   XZ=             -2.0020   YZ=             -1.6350

 Normal termination of Gaussian 16 at Wed May  5 21:48:31 2021.
