 Gaussian 16, Revision A.03,
 Gaussian 16:  EM64L-G16RevA.03 25-Dec-2016

 -------------
 #p 6-31g* mp2
 -------------

 ------------------------------------------------------
 Input file generated by CHIRIPA (05-May-2021 14:57:22)
 ------------------------------------------------------
 Symbolic Z-matrix:
 Charge =  0 Multiplicity = 1

                         Standard orientation:
 ---------------------------------------------------------------------
 Center     Atomic      Atomic             Coordinates (Angstroms)
 Number     Number       Type             X           Y           Z
 ---------------------------------------------------------------------
      1          6           0       -1.102185   -1.233509    1.414632
      2          6           0       -1.192876    0.162124    1.437093
      3          6           0       -2.220150    0.817992    0.752189
      4          6           0       -3.143773    0.043586    0.051828
      5          6           0       -3.080174   -1.348367    0.010459
      6          6           0       -2.044462   -1.982979    0.702642
      7          1           0       -0.300897   -1.734747    1.949509
      8          1           0       -0.462497    0.746734    1.989201
      9          1           0       -2.313971    1.897166    0.752822
     10          1           0       -3.823056   -1.904148   -0.548692
     11          1           0       -1.976504   -3.066980    0.683441
     12          7           0       -4.235768    0.726673   -0.677103
     13          8           0       -5.036982    0.021637   -1.286706
     14          8           0       -4.269782    1.954178   -0.625033
     15          6           0        3.193928    2.532245    0.323372
     16          6           0        2.730294    1.659502    1.313262
     17          6           0        2.598821    0.292775    1.049974
     18          6           0        2.941551   -0.169143   -0.219851
     19          6           0        3.406319    0.675212   -1.226998
     20          6           0        3.529870    2.038186   -0.941370
     21          1           0        3.292982    3.592494    0.536577
     22          1           0        2.468656    2.040391    2.296377
     23          1           0        2.242395   -0.405093    1.797877
     24          1           0        3.659313    0.265969   -2.197530
     25          1           0        3.890196    2.713641   -1.712063
     26          7           0        2.806560   -1.614050   -0.510408
     27          8           0        3.115108   -1.996049   -1.637135
     28          8           0        2.394764   -2.337208    0.394081
 ---------------------------------------------------------------------

 SCF Done:  E(RHF) =  -868.338233907     A.U. after   16 cycles
 E2 =    -0.2601071926D+01 EUMP2 =    -0.87093930583347D+03

 The electronic state is 1-A.
 Alpha  occ. eigenvalues --  -20.61658 -20.61606 -20.60640 -20.60624 -15.86676
 Alpha  occ. eigenvalues --  -15.85687 -11.31985 -11.30976 -11.28672 -11.28492
 Alpha  occ. eigenvalues --  -11.28249 -11.27615 -11.27607 -11.27500 -11.27468
 Alpha  occ. eigenvalues --  -11.27189 -11.26613 -11.26425  -1.60689  -1.59712
 Alpha  occ. eigenvalues --   -1.40253  -1.39268  -1.20155  -1.19143  -1.09542
 Alpha  occ. eigenvalues --   -1.08536  -1.05573  -1.04543  -0.96398  -0.95381
 Alpha  occ. eigenvalues --   -0.86961  -0.85943  -0.83250  -0.82223  -0.78319
 Alpha  occ. eigenvalues --   -0.77300  -0.72911  -0.72001  -0.71908  -0.71267
 Alpha  occ. eigenvalues --   -0.71035  -0.70188  -0.65819  -0.65572  -0.64792
 Alpha  occ. eigenvalues --   -0.64575  -0.62924  -0.61898  -0.56032  -0.54985
 Alpha  occ. eigenvalues --   -0.53892  -0.53657  -0.52848  -0.52621  -0.49669
 Alpha  occ. eigenvalues --   -0.49635  -0.48666  -0.48657  -0.45668  -0.44691
 Alpha  occ. eigenvalues --   -0.38107  -0.37366  -0.36896  -0.36095
 Alpha virt. eigenvalues --    0.04200   0.05251   0.10365   0.11603   0.15598
 Alpha virt. eigenvalues --    0.16790   0.19259   0.22185   0.25587   0.26332
 Alpha virt. eigenvalues --    0.27771   0.29144   0.30309   0.31341   0.32801

 Mulliken charges:
               1
     1  C   -0.171747
     2  C   -0.218211
     3  C   -0.171943
     4  C    0.157731
     5  C   -0.171025
     6  C   -0.218094
     7  H    0.234958
     8  H    0.212569
     9  H    0.272136
    10  H    0.275864
    11  H    0.229015
    12  N    0.488238
    13  O   -0.459956
    14  O   -0.462990
    15  C   -0.169436
    16  C   -0.222321
    17  C   -0.170066
    18  C    0.160750
    19  C   -0.168877
    20  C   -0.217642
    21  H    0.229041
    22  H    0.221908
    23  H    0.267622
    24  H    0.278626
    25  H    0.227550
    26  N    0.490063
    27  O   -0.454604
    28  O   -0.469159
 Sum of Mulliken charges =  -0.00000

 Dipole moment (field-independent basis, Debye):
    X=              4.5632    Y=              2.5961    Z=              3.3429  Tot=              6.2239
 Quadrupole moment (field-independent basis, Debye-Ang):
   XX=           -126.0301   YY=           -102.9116   ZZ=           -101.0888
   XY=             25.6465   XZ=             -6.6936   YZ=             -0.7516

 Normal termination of Gaussian 16 at Fri May  7 06:21:17 2021.
