 Gaussian 16, Revision A.03,
 Gaussian 16:  EM64L-G16RevA.03 25-Dec-2016

 -------------
 #p 6-31g* mp2
 -------------

 ------------------------------------------------------
 Input file generated by CHIRIPA (05-May-2021 14:57:22)
 ------------------------------------------------------
 Symbolic Z-matrix:
 Charge =  0 Multiplicity = 1

                         Standard orientation:
 ---------------------------------------------------------------------
 Center     Atomic      Atomic             Coordinates (Angstroms)
 Number     Number       Type             X           Y           Z
 ---------------------------------------------------------------------
      1          6           0        3.788132    2.395143    0.407114
      2          6           0        3.434707    2.025972   -0.894933
      3          6           0        3.022256    0.719925   -1.175420
      4          6           0        2.974680   -0.195472   -0.125147
      5          6           0        3.320454    0.141838    1.182505
      6          6           0        3.729980    1.453558    1.439856
      7          1           0        4.107398    3.411914    0.616017
      8          1           0        3.478910    2.755118   -1.698946
      9          1           0        2.743042    0.407211   -2.174253
     10          1           0        3.266291   -0.607159    1.963201
     11          1           0        4.003867    1.737439    2.452004
     12          7           0        2.539585   -1.581128   -0.409840
     13          8           0        2.506197   -2.368894    0.533000
     14          8           0        2.240183   -1.853201   -1.570431
     15          6           0       -5.374590    0.889120   -0.230448
     16          6           0       -4.495987    0.828365   -1.317133
     17          6           0       -3.203659    0.319420   -1.157718
     18          6           0       -2.821307   -0.122039    0.108067
     19          6           0       -3.673612   -0.074546    1.210161
     20          6           0       -4.961328    0.438265    1.027513
     21          1           0       -6.376710    1.285982   -0.363308
     22          1           0       -4.814213    1.177789   -2.295232
     23          1           0       -2.503115    0.260882   -1.981873
     24          1           0       -3.327742   -0.430410    2.173049
     25          1           0       -5.641530    0.484242    1.873241
     26          7           0       -1.455618   -0.662882    0.289130
     27          8           0       -1.142950   -1.045440    1.414530
     28          8           0       -0.723720   -0.693996   -0.697781
 ---------------------------------------------------------------------

 SCF Done:  E(RHF) =  -868.337290364     A.U. after   16 cycles
 E2 =    -0.2601175714D+01 EUMP2 =    -0.87093846607849D+03

 The electronic state is 1-A.
 Alpha  occ. eigenvalues --  -20.60520 -20.60485 -20.59021 -20.59012 -15.85533
 Alpha  occ. eigenvalues --  -15.84091 -11.31010 -11.29833 -11.27594 -11.27587
 Alpha  occ. eigenvalues --  -11.27364 -11.26638 -11.26628 -11.26484 -11.26459
 Alpha  occ. eigenvalues --  -11.26369 -11.25645 -11.25619  -1.59566  -1.58040
 Alpha  occ. eigenvalues --   -1.39116  -1.37605  -1.19195  -1.18063  -1.08573
 Alpha  occ. eigenvalues --   -1.07393  -1.04614  -1.03552  -0.95389  -0.94169
 Alpha  occ. eigenvalues --   -0.86007  -0.84930  -0.82217  -0.81030  -0.77247
 Alpha  occ. eigenvalues --   -0.75981  -0.71793  -0.70884  -0.70359  -0.70304
 Alpha  occ. eigenvalues --   -0.69258  -0.69219  -0.64844  -0.64618  -0.63737
 Alpha  occ. eigenvalues --   -0.63596  -0.61959  -0.60906  -0.55117  -0.54088
 Alpha  occ. eigenvalues --   -0.52939  -0.52709  -0.51836  -0.51675  -0.48540
 Alpha  occ. eigenvalues --   -0.48502  -0.47123  -0.47059  -0.44493  -0.42923
 Alpha  occ. eigenvalues --   -0.37187  -0.36224  -0.36059  -0.35171
 Alpha virt. eigenvalues --    0.05286   0.06643   0.11430   0.12485   0.16763
 Alpha virt. eigenvalues --    0.18014   0.21550   0.22434   0.27450   0.28299
 Alpha virt. eigenvalues --    0.28460   0.29386   0.31092   0.31917   0.32698

 Mulliken charges:
               1
     1  C   -0.173095
     2  C   -0.220350
     3  C   -0.167666
     4  C    0.167531
     5  C   -0.168340
     6  C   -0.219728
     7  H    0.219540
     8  H    0.217218
     9  H    0.273417
    10  H    0.275808
    11  H    0.218608
    12  N    0.497625
    13  O   -0.460930
    14  O   -0.460770
    15  C   -0.171179
    16  C   -0.218685
    17  C   -0.171037
    18  C    0.158810
    19  C   -0.171052
    20  C   -0.218655
    21  H    0.224772
    22  H    0.222697
    23  H    0.276341
    24  H    0.275589
    25  H    0.222739
    26  N    0.488845
    27  O   -0.458392
    28  O   -0.459660
 Sum of Mulliken charges =  -0.00000

 Dipole moment (field-independent basis, Debye):
    X=             -3.5127    Y=              6.4824    Z=              0.3465  Tot=              7.3811
 Quadrupole moment (field-independent basis, Debye-Ang):
   XX=            -71.1410   YY=           -108.7826   ZZ=            -96.0685
   XY=              8.8090   XZ=              3.7383   YZ=             -2.8083

 Normal termination of Gaussian 16 at Thu May  6 16:13:44 2021.
