 Gaussian 16, Revision A.03,
 Gaussian 16:  EM64L-G16RevA.03 25-Dec-2016

 -------------
 #p 6-31g* mp2
 -------------

 ------------------------------------------------------
 Input file generated by CHIRIPA (05-May-2021 14:55:22)
 ------------------------------------------------------
 Symbolic Z-matrix:
 Charge =  0 Multiplicity = 1

                         Standard orientation:
 ---------------------------------------------------------------------
 Center     Atomic      Atomic             Coordinates (Angstroms)
 Number     Number       Type             X           Y           Z
 ---------------------------------------------------------------------
      1          6           0       -3.591728   -2.439007   -0.030661
      2          6           0       -3.437750   -1.731216   -1.227258
      3          6           0       -3.162059   -0.360712   -1.211088
      4          6           0       -3.046379    0.273147    0.025088
      5          6           0       -3.194406   -0.404473    1.234306
      6          6           0       -3.469779   -1.774548    1.194142
      7          1           0       -3.805768   -3.503480   -0.052542
      8          1           0       -3.531919   -2.244639   -2.179925
      9          1           0       -3.038103    0.211563   -2.122436
     10          1           0       -3.094861    0.134774    2.168501
     11          1           0       -3.588862   -2.321678    2.125009
     12          7           0       -2.754685    1.723811    0.054906
     13          8           0       -2.657560    2.259072    1.157040
     14          8           0       -2.628704    2.298111   -1.024420
     15          6           0        3.320603    0.097800   -0.417559
     16          6           0        2.057489    0.034394    0.441804
     17          6           0        0.784730    0.319484   -0.356070
     18          1           0        3.391543    1.091295   -0.881112
     19          1           0        3.232703   -0.625380   -1.240163
     20          1           0        2.148341    0.756500    1.263343
     21          1           0        1.989649   -0.959001    0.903518
     22          1           0        0.666761   -0.407689   -1.165949
     23          1           0        0.826354    1.317559   -0.804081
     24          1           0       -0.106156    0.268968    0.277673
     25          6           0        4.601197   -0.184993    0.365916
     26          6           0        5.864312   -0.121587   -0.493448
     27          6           0        7.137071   -0.406677    0.304427
     28          1           0        4.689099    0.538187    1.188520
     29          1           0        4.530258   -1.178488    0.829470
     30          1           0        5.932152    0.871808   -0.955162
     31          1           0        5.773461   -0.843693   -1.314986
     32          1           0        7.095447   -1.404752    0.752438
     33          1           0        7.255041    0.320496    1.114306
     34          1           0        8.027957   -0.356161   -0.329316
 ---------------------------------------------------------------------

 SCF Done:  E(RHF) =  -669.535316616     A.U. after   15 cycles
 E2 =    -0.2092350681D+01 EUMP2 =    -0.67162766729650D+03

 The electronic state is 1-A.
 Alpha  occ. eigenvalues --  -20.60773 -20.60763 -15.85807 -11.31165 -11.27750
 Alpha  occ. eigenvalues --  -11.27735 -11.27498 -11.26781 -11.26769 -11.21471
 Alpha  occ. eigenvalues --  -11.21363 -11.21235 -11.21158 -11.20967 -11.20758
 Alpha  occ. eigenvalues --   -1.59835  -1.39390  -1.19360  -1.08757  -1.08246
 Alpha  occ. eigenvalues --   -1.04761  -1.03339  -0.95793  -0.95587  -0.86817
 Alpha  occ. eigenvalues --   -0.86160  -0.82419  -0.79414  -0.78061  -0.77464
 Alpha  occ. eigenvalues --   -0.72035  -0.71170  -0.70465  -0.65012  -0.64874
 Alpha  occ. eigenvalues --   -0.64768  -0.62108  -0.60728  -0.59189  -0.57416
 Alpha  occ. eigenvalues --   -0.55265  -0.55070  -0.53266  -0.52855  -0.52337
 Alpha  occ. eigenvalues --   -0.52195  -0.49716  -0.48795  -0.48790  -0.47727
 Alpha  occ. eigenvalues --   -0.46432  -0.45605  -0.45525  -0.44779  -0.43620
 Alpha  occ. eigenvalues --   -0.37289  -0.36361
 Alpha virt. eigenvalues --    0.05068   0.11229   0.16549   0.21418   0.23044
 Alpha virt. eigenvalues --    0.24447   0.26840   0.27309   0.27691   0.27890
 Alpha virt. eigenvalues --    0.28398   0.30785   0.31606   0.31736   0.32018

 Mulliken charges:
               1
     1  C   -0.171000
     2  C   -0.218272
     3  C   -0.169699
     4  C    0.157315
     5  C   -0.173675
     6  C   -0.217459
     7  H    0.225491
     8  H    0.223397
     9  H    0.275838
    10  H    0.275648
    11  H    0.223468
    12  N    0.492481
    13  O   -0.460914
    14  O   -0.459779
    15  C   -0.298574
    16  C   -0.299355
    17  C   -0.479105
    18  H    0.152066
    19  H    0.147399
    20  H    0.155101
    21  H    0.148105
    22  H    0.150287
    23  H    0.165530
    24  H    0.156957
    25  C   -0.298121
    26  C   -0.299537
    27  C   -0.475599
    28  H    0.150498
    29  H    0.147933
    30  H    0.152902
    31  H    0.150906
    32  H    0.154235
    33  H    0.155622
    34  H    0.159911
 Sum of Mulliken charges =  -0.00000

 Dipole moment (field-independent basis, Debye):
    X=             -1.0760    Y=             -5.0418    Z=             -0.1328  Tot=              5.1570
 Quadrupole moment (field-independent basis, Debye-Ang):
   XX=            -90.5195   YY=            -97.1687   ZZ=            -89.9128
   XY=             16.0033   XZ=             -0.1402   YZ=             -0.0006

 Normal termination of Gaussian 16 at Thu May  6 17:32:33 2021.
