 Gaussian 16, Revision A.03,
 Gaussian 16:  EM64L-G16RevA.03 25-Dec-2016

 -------------
 #p 6-31g* mp2
 -------------

 ------------------------------------------------------
 Input file generated by CHIRIPA (05-May-2021 14:51:13)
 ------------------------------------------------------
 Symbolic Z-matrix:
 Charge =  0 Multiplicity = 1

                         Standard orientation:
 ---------------------------------------------------------------------
 Center     Atomic      Atomic             Coordinates (Angstroms)
 Number     Number       Type             X           Y           Z
 ---------------------------------------------------------------------
      1          6           0        1.954500   -1.132055   -0.238138
      2          6           0        1.420937   -2.380616    0.464992
      3          6           0        0.032573   -2.789090   -0.028352
      4          1           0        1.250379   -0.302987   -0.083844
      5          1           0        1.988515   -1.315840   -1.320940
      6          1           0        1.389242   -2.195016    1.546271
      7          1           0        2.126504   -3.206757    0.309168
      8          1           0        0.052305   -3.001135   -1.102247
      9          1           0       -0.689147   -1.983646    0.141886
     10          1           0       -0.329628   -3.683818    0.487527
     11          6           0        3.341537   -0.711204    0.244295
     12          6           0        3.875100    0.537356   -0.458835
     13          6           0        5.263463    0.945831    0.034510
     14          1           0        3.307521   -0.527419    1.327097
     15          1           0        4.045657   -1.540272    0.090001
     16          1           0        3.169532    1.363498   -0.303010
     17          1           0        3.906794    0.351757   -1.540114
     18          1           0        5.985183    0.140386   -0.135728
     19          1           0        5.243732    1.157876    1.108404
     20          1           0        5.625664    1.840559   -0.481369
     21          6           0       -1.963281    1.177377   -0.224801
     22          6           0       -1.569726    2.502060    0.429655
     23          6           0       -0.197375    3.000779   -0.023915
     24          1           0       -1.201480    0.420539    0.007150
     25          1           0       -1.959333    1.300432   -1.316696
     26          1           0       -1.575761    2.376922    1.520030
     27          1           0       -2.332651    3.255784    0.196279
     28          1           0       -0.181979    3.153638   -1.107889
     29          1           0        0.579212    2.269782    0.223385
     30          1           0        0.064000    3.948973    0.456159
     31          6           0       -3.332755    0.665883    0.218644
     32          6           0       -3.726310   -0.658802   -0.435813
     33          6           0       -5.098661   -1.157521    0.017757
     34          1           0       -3.336704    0.542827    1.310539
     35          1           0       -4.094556    1.422721   -0.013307
     36          1           0       -2.963385   -1.412524   -0.202437
     37          1           0       -3.720276   -0.533663   -1.526188
     38          1           0       -5.875247   -0.426524   -0.229542
     39          1           0       -5.114057   -1.310379    1.101731
     40          1           0       -5.360036   -2.105714   -0.462317
 ---------------------------------------------------------------------

 SCF Done:  E(RHF) =  -470.732270643     A.U. after   11 cycles
 E2 =    -0.1585082916D+01 EUMP2 =    -0.47231735355911D+03

 The electronic state is 1-A.
 Alpha  occ. eigenvalues --  -11.21643 -11.21631 -11.21586 -11.21551 -11.21416
 Alpha  occ. eigenvalues --  -11.21413 -11.21356 -11.21353 -11.21124 -11.21080
 Alpha  occ. eigenvalues --  -11.21057 -11.21043  -1.08484  -1.08414  -1.03554
 Alpha  occ. eigenvalues --   -1.03531  -0.96009  -0.95982  -0.87040  -0.86987
 Alpha  occ. eigenvalues --   -0.79658  -0.79574  -0.78423  -0.78100  -0.65326
 Alpha  occ. eigenvalues --   -0.64879  -0.61019  -0.60887  -0.59377  -0.59360
 Alpha  occ. eigenvalues --   -0.57641  -0.57561  -0.55361  -0.55222  -0.52705
 Alpha  occ. eigenvalues --   -0.52676  -0.52466  -0.52382  -0.50026  -0.49897
 Alpha  occ. eigenvalues --   -0.48046  -0.47899  -0.46864  -0.46724  -0.46121
 Alpha  occ. eigenvalues --   -0.45751  -0.45738  -0.44892  -0.43793  -0.43791
 Alpha virt. eigenvalues --    0.20205   0.22157   0.23965   0.24042   0.25095
 Alpha virt. eigenvalues --    0.26488   0.27004   0.27113   0.28711   0.29653
 Alpha virt. eigenvalues --    0.30445   0.31622   0.31687   0.31810   0.31965

 Mulliken charges:
               1
     1  C   -0.307585
     2  C   -0.299118
     3  C   -0.485135
     4  H    0.157634
     5  H    0.150024
     6  H    0.151206
     7  H    0.152277
     8  H    0.155941
     9  H    0.163721
    10  H    0.160226
    11  C   -0.297574
    12  C   -0.303621
    13  C   -0.475568
    14  H    0.148982
    15  H    0.149848
    16  H    0.155889
    17  H    0.152106
    18  H    0.155099
    19  H    0.155076
    20  H    0.160460
    21  C   -0.308664
    22  C   -0.299180
    23  C   -0.481953
    24  H    0.158597
    25  H    0.150053
    26  H    0.151472
    27  H    0.152444
    28  H    0.156030
    29  H    0.159906
    30  H    0.160565
    31  C   -0.297665
    32  C   -0.306939
    33  C   -0.475190
    34  H    0.148834
    35  H    0.149828
    36  H    0.159814
    37  H    0.151895
    38  H    0.154935
    39  H    0.154918
    40  H    0.160416
 Sum of Mulliken charges =  -0.00000

 Dipole moment (field-independent basis, Debye):
    X=             -0.0011    Y=             -0.0001    Z=             -0.0241  Tot=              0.0242
 Quadrupole moment (field-independent basis, Debye-Ang):
   XX=            -86.4323   YY=            -84.5934   ZZ=            -83.7765
   XY=             -1.3365   XZ=             -0.0038   YZ=              0.0450

 Normal termination of Gaussian 16 at Thu May  6 00:47:23 2021.
