 Gaussian 16, Revision A.03,
 Gaussian 16:  EM64L-G16RevA.03 25-Dec-2016

 -------------
 #p 6-31g* mp2
 -------------

 ------------------------------------------------------
 Input file generated by CHIRIPA (05-May-2021 14:51:11)
 ------------------------------------------------------
 Symbolic Z-matrix:
 Charge =  0 Multiplicity = 1

                         Standard orientation:
 ---------------------------------------------------------------------
 Center     Atomic      Atomic             Coordinates (Angstroms)
 Number     Number       Type             X           Y           Z
 ---------------------------------------------------------------------
      1          6           0       -2.913307    1.222919    0.391953
      2          6           0       -1.637268    1.947099   -0.038479
      3          6           0       -1.223269    3.047071    0.939509
      4          1           0       -3.727278    1.954288    0.489399
      5          1           0       -2.761561    0.789292    1.390119
      6          1           0       -1.790905    2.378052   -1.036122
      7          1           0       -0.826287    1.213894   -0.135097
      8          1           0       -1.042813    2.629315    1.935259
      9          1           0       -2.012912    3.800089    1.029114
     10          1           0       -0.308792    3.551694    0.612481
     11          6           0       -3.339973    0.120472   -0.575671
     12          6           0       -4.616012   -0.603708   -0.145239
     13          6           0       -5.030010   -1.703680   -1.123227
     14          1           0       -3.491719    0.554099   -1.573837
     15          1           0       -2.526001   -0.610896   -0.673117
     16          1           0       -5.426993    0.129498   -0.048621
     17          1           0       -4.462375   -1.034661    0.852404
     18          1           0       -4.240367   -2.456698   -1.212832
     19          1           0       -5.210466   -1.285924   -2.118977
     20          1           0       -5.944487   -2.208303   -0.796200
     21          6           0        2.803912   -1.191092    0.549577
     22          6           0        1.284087   -1.269219    0.401208
     23          6           0        0.652966   -2.312786    1.323406
     24          1           0        3.237682   -2.178346    0.339533
     25          1           0        3.051797   -0.956574    1.594062
     26          1           0        1.039101   -1.502155   -0.642985
     27          1           0        0.853900   -0.281617    0.611442
     28          1           0        0.868292   -2.081199    2.371548
     29          1           0        1.054547   -3.308672    1.109994
     30          1           0       -0.433930   -2.351868    1.200965
     31          6           0        3.449368   -0.152299   -0.365858
     32          6           0        4.969193   -0.074173   -0.217490
     33          6           0        5.600314    0.969394   -1.139688
     34          1           0        3.201482   -0.386817   -1.410344
     35          1           0        3.015598    0.834955   -0.155816
     36          1           0        5.399379   -1.061774   -0.427724
     37          1           0        5.214177    0.158764    0.826703
     38          1           0        5.198733    1.965281   -0.926275
     39          1           0        5.384987    0.737808   -2.187830
     40          1           0        6.687209    1.008478   -1.017247
 ---------------------------------------------------------------------

 SCF Done:  E(RHF) =  -470.733355717     A.U. after   11 cycles
 E2 =    -0.1583074165D+01 EUMP2 =    -0.47231642988166D+03

 The electronic state is 1-A.
 Alpha  occ. eigenvalues --  -11.21666 -11.21623 -11.21596 -11.21548 -11.21446
 Alpha  occ. eigenvalues --  -11.21392 -11.21383 -11.21332 -11.21157 -11.21085
 Alpha  occ. eigenvalues --  -11.21081 -11.21068  -1.08480  -1.08413  -1.03586
 Alpha  occ. eigenvalues --   -1.03515  -0.96025  -0.95974  -0.87043  -0.86987
 Alpha  occ. eigenvalues --   -0.79698  -0.79539  -0.78335  -0.78180  -0.65177
 Alpha  occ. eigenvalues --   -0.64994  -0.61089  -0.60821  -0.59410  -0.59322
 Alpha  occ. eigenvalues --   -0.57636  -0.57583  -0.55314  -0.55261  -0.52724
 Alpha  occ. eigenvalues --   -0.52667  -0.52461  -0.52388  -0.49999  -0.49896
 Alpha  occ. eigenvalues --   -0.48113  -0.47814  -0.46862  -0.46477  -0.45984
 Alpha  occ. eigenvalues --   -0.45764  -0.45735  -0.45397  -0.43829  -0.43773
 Alpha virt. eigenvalues --    0.20279   0.22993   0.23722   0.24569   0.25904
 Alpha virt. eigenvalues --    0.26627   0.27026   0.27379   0.28457   0.29188
 Alpha virt. eigenvalues --    0.30412   0.31523   0.31692   0.31883   0.32546

 Mulliken charges:
               1
     1  C   -0.297711
     2  C   -0.308100
     3  C   -0.475720
     4  H    0.149569
     5  H    0.149316
     6  H    0.151991
     7  H    0.160145
     8  H    0.154656
     9  H    0.155478
    10  H    0.159741
    11  C   -0.299796
    12  C   -0.299669
    13  C   -0.475670
    14  H    0.149606
    15  H    0.150902
    16  H    0.151998
    17  H    0.151820
    18  H    0.155061
    19  H    0.155191
    20  H    0.160278
    21  C   -0.297596
    22  C   -0.307189
    23  C   -0.476311
    24  H    0.149860
    25  H    0.149618
    26  H    0.152087
    27  H    0.158910
    28  H    0.155406
    29  H    0.155786
    30  H    0.160012
    31  C   -0.298535
    32  C   -0.299690
    33  C   -0.475742
    34  H    0.149704
    35  H    0.149722
    36  H    0.152005
    37  H    0.152007
    38  H    0.155268
    39  H    0.155253
    40  H    0.160334
 Sum of Mulliken charges =  -0.00000

 Dipole moment (field-independent basis, Debye):
    X=              0.0275    Y=             -0.0107    Z=             -0.0054  Tot=              0.0300
 Quadrupole moment (field-independent basis, Debye-Ang):
   XX=            -84.9938   YY=            -85.0471   ZZ=            -84.7174
   XY=             -1.2581   XZ=              0.3381   YZ=              0.0798

 Normal termination of Gaussian 16 at Thu May  6 02:15:22 2021.
