 Gaussian 16, Revision A.03,
 Gaussian 16:  EM64L-G16RevA.03 25-Dec-2016

 -------------
 #p 6-31g* mp2
 -------------

 ------------------------------------------------------
 Input file generated by CHIRIPA (05-May-2021 14:55:25)
 ------------------------------------------------------
 Symbolic Z-matrix:
 Charge =  0 Multiplicity = 1

                         Standard orientation:
 ---------------------------------------------------------------------
 Center     Atomic      Atomic             Coordinates (Angstroms)
 Number     Number       Type             X           Y           Z
 ---------------------------------------------------------------------
      1          6           0       -1.683752   -1.867017    1.483508
      2          6           0       -1.167835   -0.621917    1.857777
      3          6           0       -1.593195    0.544929    1.215838
      4          6           0       -2.540016    0.429446    0.199234
      5          6           0       -3.072786   -0.796506   -0.196351
      6          6           0       -2.632908   -1.950191    0.459444
      7          1           0       -1.347683   -2.768339    1.987563
      8          1           0       -0.430602   -0.554307    2.652736
      9          1           0       -1.210332    1.521701    1.485562
     10          1           0       -3.806572   -0.832118   -0.992409
     11          1           0       -3.035310   -2.915804    0.166683
     12          7           0       -2.998011    1.657767   -0.487692
     13          8           0       -3.833111    1.529191   -1.380280
     14          8           0       -2.513215    2.725844   -0.120510
     15          6           0        3.778179    0.128794   -0.536766
     16          6           0        4.355802    0.783848    0.718320
     17          6           0        5.602995    1.619460    0.428397
     18          1           0        4.547121   -0.505586   -0.998540
     19          1           0        3.535069    0.909627   -1.270655
     20          1           0        4.596463    0.002114    1.450162
     21          1           0        3.585334    1.416591    1.177267
     22          1           0        5.373839    2.419618   -0.282824
     23          1           0        6.390714    0.997103   -0.008379
     24          1           0        5.999353    2.078559    1.339433
     25          6           0        2.531027   -0.709924   -0.263101
     26          6           0        1.953404   -1.364978   -1.518187
     27          6           0        0.706211   -2.200589   -1.228264
     28          1           0        2.774137   -1.490756    0.470788
     29          1           0        1.762085   -0.075544    0.198673
     30          1           0        2.723871   -1.997721   -1.977133
     31          1           0        1.712742   -0.583244   -2.250028
     32          1           0       -0.081508   -1.578232   -0.791488
     33          1           0        0.935366   -3.000747   -0.517042
     34          1           0        0.309852   -2.659689   -2.139301
 ---------------------------------------------------------------------

 SCF Done:  E(RHF) =  -669.533942216     A.U. after   15 cycles
 E2 =    -0.2094380347D+01 EUMP2 =    -0.67162832256297D+03

 The electronic state is 1-A.
 Alpha  occ. eigenvalues --  -20.60851 -20.60845 -15.85906 -11.31307 -11.27883
 Alpha  occ. eigenvalues --  -11.27851 -11.27528 -11.26838 -11.26810 -11.21850
 Alpha  occ. eigenvalues --  -11.21750 -11.21644 -11.21555 -11.21232 -11.21131
 Alpha  occ. eigenvalues --   -1.59926  -1.39478  -1.19483  -1.08860  -1.08632
 Alpha  occ. eigenvalues --   -1.04866  -1.03713  -0.96171  -0.95676  -0.87192
 Alpha  occ. eigenvalues --   -0.86246  -0.82504  -0.79798  -0.78476  -0.77558
 Alpha  occ. eigenvalues --   -0.72118  -0.71252  -0.70547  -0.65278  -0.65100
 Alpha  occ. eigenvalues --   -0.64841  -0.62202  -0.61139  -0.59544  -0.57836
 Alpha  occ. eigenvalues --   -0.55581  -0.55329  -0.53552  -0.52934  -0.52851
 Alpha  occ. eigenvalues --   -0.52302  -0.50026  -0.48881  -0.48875  -0.48046
 Alpha  occ. eigenvalues --   -0.46773  -0.45988  -0.45905  -0.44877  -0.43984
 Alpha  occ. eigenvalues --   -0.37341  -0.36465
 Alpha virt. eigenvalues --    0.04942   0.11139   0.16384   0.21087   0.22775
 Alpha virt. eigenvalues --    0.24181   0.26044   0.26741   0.27564   0.28018
 Alpha virt. eigenvalues --    0.28609   0.30711   0.31381   0.31774   0.31848

 Mulliken charges:
               1
     1  C   -0.169888
     2  C   -0.216486
     3  C   -0.173251
     4  C    0.158825
     5  C   -0.171520
     6  C   -0.217543
     7  H    0.226326
     8  H    0.225007
     9  H    0.276073
    10  H    0.276241
    11  H    0.224423
    12  N    0.488165
    13  O   -0.459905
    14  O   -0.460317
    15  C   -0.298496
    16  C   -0.299360
    17  C   -0.475855
    18  H    0.150130
    19  H    0.152707
    20  H    0.149693
    21  H    0.150011
    22  H    0.157370
    23  H    0.155539
    24  H    0.160235
    25  C   -0.299082
    26  C   -0.299146
    27  C   -0.481514
    28  H    0.144492
    29  H    0.147816
    30  H    0.151040
    31  H    0.154979
    32  H    0.170343
    33  H    0.145243
    34  H    0.157703
 Sum of Mulliken charges =  -0.00000

 Dipole moment (field-independent basis, Debye):
    X=              1.5056    Y=             -4.2846    Z=              2.4250  Tot=              5.1483
 Quadrupole moment (field-independent basis, Debye-Ang):
   XX=           -102.0581   YY=            -97.3418   ZZ=            -92.6140
   XY=             12.9977   XZ=             -3.8149   YZ=              1.6846

 Normal termination of Gaussian 16 at Thu May  6 00:04:21 2021.
