 Gaussian 16, Revision A.03,
 Gaussian 16:  EM64L-G16RevA.03 25-Dec-2016

 -------------
 #p 6-31g* mp2
 -------------

 ------------------------------------------------------
 Input file generated by CHIRIPA (05-May-2021 14:57:27)
 ------------------------------------------------------
 Symbolic Z-matrix:
 Charge =  0 Multiplicity = 1

                         Standard orientation:
 ---------------------------------------------------------------------
 Center     Atomic      Atomic             Coordinates (Angstroms)
 Number     Number       Type             X           Y           Z
 ---------------------------------------------------------------------
      1          6           0       -3.884670   -1.353606   -0.797881
      2          6           0       -4.218977   -0.498042    0.256998
      3          6           0       -3.373146    0.557529    0.610394
      4          6           0       -2.195617    0.729192   -0.115723
      5          6           0       -1.834840   -0.106294   -1.171702
      6          6           0       -2.695764   -1.155351   -1.507613
      7          1           0       -4.547594   -2.171069   -1.065617
      8          1           0       -5.141649   -0.649618    0.809942
      9          1           0       -3.607515    1.234819    1.422654
     10          1           0       -0.908246    0.070009   -1.704393
     11          1           0       -2.433575   -1.818227   -2.327306
     12          7           0       -1.292185    1.843230    0.249147
     13          8           0       -0.260545    1.973187   -0.406192
     14          8           0       -1.632820    2.565362    1.183561
     15          6           0        0.808421   -1.869873    1.676727
     16          6           0        0.717543   -2.005255    0.287507
     17          6           0        1.563545   -1.276470   -0.553743
     18          6           0        2.493017   -0.417559    0.030760
     19          6           0        2.607893   -0.260923    1.411179
     20          6           0        1.751643   -0.999673    2.233149
     21          1           0        0.147246   -2.439881    2.322741
     22          1           0       -0.014025   -2.680315   -0.147405
     23          1           0        1.514659   -1.362086   -1.632491
     24          1           0        3.347177    0.419896    1.815361
     25          1           0        1.824472   -0.892521    3.311694
     26          7           0        3.394067    0.359249   -0.849628
     27          8           0        4.204472    1.109294   -0.309894
     28          8           0        3.272842    0.203356   -2.062739
 ---------------------------------------------------------------------

 SCF Done:  E(RHF) =  -868.336094416     A.U. after   16 cycles
 E2 =    -0.2604293927D+01 EUMP2 =    -0.87094038834242D+03

 The electronic state is 1-A.
 Alpha  occ. eigenvalues --  -20.61046 -20.61008 -20.60258 -20.60231 -15.86081
 Alpha  occ. eigenvalues --  -15.85308 -11.31570 -11.30832 -11.28212 -11.28202
 Alpha  occ. eigenvalues --  -11.28008 -11.27500 -11.27330 -11.27256 -11.27217
 Alpha  occ. eigenvalues --  -11.27206 -11.26570 -11.26454  -1.60093  -1.59300
 Alpha  occ. eigenvalues --   -1.39645  -1.38860  -1.19808  -1.19017  -1.09166
 Alpha  occ. eigenvalues --   -1.08384  -1.05260  -1.04474  -0.95976  -0.95204
 Alpha  occ. eigenvalues --   -0.86623  -0.85863  -0.82821  -0.82055  -0.77840
 Alpha  occ. eigenvalues --   -0.77067  -0.72312  -0.71548  -0.71427  -0.70924
 Alpha  occ. eigenvalues --   -0.70569  -0.70165  -0.65459  -0.65255  -0.64693
 Alpha  occ. eigenvalues --   -0.64509  -0.62618  -0.61818  -0.55738  -0.54985
 Alpha  occ. eigenvalues --   -0.53703  -0.53372  -0.52624  -0.52548  -0.49071
 Alpha  occ. eigenvalues --   -0.49046  -0.48309  -0.48279  -0.45014  -0.44241
 Alpha  occ. eigenvalues --   -0.37918  -0.37227  -0.36845  -0.35642
 Alpha virt. eigenvalues --    0.04651   0.05542   0.10754   0.11509   0.15981
 Alpha virt. eigenvalues --    0.17107   0.20355   0.21930   0.25842   0.27402
 Alpha virt. eigenvalues --    0.28032   0.29318   0.29818   0.31173   0.32022

 Mulliken charges:
               1
     1  C   -0.171586
     2  C   -0.220369
     3  C   -0.171251
     4  C    0.159038
     5  C   -0.166985
     6  C   -0.226840
     7  H    0.226111
     8  H    0.224022
     9  H    0.276420
    10  H    0.279274
    11  H    0.221944
    12  N    0.488882
    13  O   -0.457438
    14  O   -0.461006
    15  C   -0.174548
    16  C   -0.216070
    17  C   -0.177743
    18  C    0.174056
    19  C   -0.166550
    20  C   -0.217492
    21  H    0.222782
    22  H    0.217533
    23  H    0.267768
    24  H    0.277685
    25  H    0.223799
    26  N    0.490482
    27  O   -0.457683
    28  O   -0.464236
 Sum of Mulliken charges =  -0.00000

 Dipole moment (field-independent basis, Debye):
    X=             -6.2141    Y=             -6.3533    Z=              1.9227  Tot=              9.0926
 Quadrupole moment (field-independent basis, Debye-Ang):
   XX=           -104.4911   YY=           -108.7161   ZZ=            -99.1434
   XY=              1.1600   XZ=             10.3920   YZ=              1.1213

 Normal termination of Gaussian 16 at Thu May  6 10:00:02 2021.
