 Gaussian 16, Revision A.03,
 Gaussian 16:  EM64L-G16RevA.03 25-Dec-2016

 -------------
 #p 6-31g* mp2
 -------------

 ------------------------------------------------------
 Input file generated by CHIRIPA (05-May-2021 14:55:25)
 ------------------------------------------------------
 Symbolic Z-matrix:
 Charge =  0 Multiplicity = 1

                         Standard orientation:
 ---------------------------------------------------------------------
 Center     Atomic      Atomic             Coordinates (Angstroms)
 Number     Number       Type             X           Y           Z
 ---------------------------------------------------------------------
      1          6           0       -5.235146    0.363418   -1.152481
      2          6           0       -4.099530    1.174954   -1.243624
      3          6           0       -2.931134    0.841397   -0.552148
      4          6           0       -2.933444   -0.316064    0.224748
      5          6           0       -4.048755   -1.144958    0.335677
      6          6           0       -5.206185   -0.791911   -0.364510
      7          1           0       -6.138524    0.630103   -1.693020
      8          1           0       -4.119139    2.072787   -1.854816
      9          1           0       -2.037745    1.451713   -0.604955
     10          1           0       -3.998837   -2.033746    0.952913
     11          1           0       -6.086628   -1.424042   -0.291866
     12          7           0       -1.702320   -0.679503    0.961394
     13          8           0       -1.729996   -1.704476    1.639112
     14          8           0       -0.733001    0.067489    0.847110
     15          6           0        4.024558   -0.390757   -0.390878
     16          6           0        5.425059   -1.003482   -0.424799
     17          6           0        5.428766   -2.441450   -0.944441
     18          1           0        3.374658   -1.011986    0.240508
     19          1           0        3.595731   -0.417250   -1.402215
     20          1           0        5.851660   -0.974580    0.586038
     21          1           0        6.071750   -0.380617   -1.056025
     22          1           0        5.027737   -2.484295   -1.962253
     23          1           0        4.806397   -3.081633   -0.310861
     24          1           0        6.439923   -2.859986   -0.960305
     25          6           0        4.004492    1.046540    0.126328
     26          6           0        2.603991    1.659265    0.160249
     27          6           0        2.600283    3.097234    0.679891
     28          1           0        4.433318    1.073034    1.137664
     29          1           0        4.654392    1.667769   -0.505058
     30          1           0        1.957299    1.036401    0.791474
     31          1           0        2.177390    1.630363   -0.850588
     32          1           0        3.222653    3.737416    0.046311
     33          1           0        3.001312    3.140079    1.697703
     34          1           0        1.589128    3.515769    0.695755
 ---------------------------------------------------------------------

 SCF Done:  E(RHF) =  -669.536024748     A.U. after   15 cycles
 E2 =    -0.2090859686D+01 EUMP2 =    -0.67162688443479D+03

 The electronic state is 1-A.
 Alpha  occ. eigenvalues --  -20.60917 -20.60908 -15.85957 -11.31278 -11.27843
 Alpha  occ. eigenvalues --  -11.27838 -11.27582 -11.26851 -11.26842 -11.20851
 Alpha  occ. eigenvalues --  -11.20450 -11.20413 -11.20391 -11.20303 -11.20179
 Alpha  occ. eigenvalues --   -1.59982  -1.39537  -1.19448  -1.08852  -1.07478
 Alpha  occ. eigenvalues --   -1.04844  -1.02618  -0.95694  -0.95116  -0.86245
 Alpha  occ. eigenvalues --   -0.86136  -0.82530  -0.78674  -0.77589  -0.77241
 Alpha  occ. eigenvalues --   -0.72180  -0.71297  -0.70556  -0.65105  -0.64848
 Alpha  occ. eigenvalues --   -0.64107  -0.62191  -0.60013  -0.58480  -0.56706
 Alpha  occ. eigenvalues --   -0.55349  -0.54416  -0.53177  -0.52937  -0.51834
 Alpha  occ. eigenvalues --   -0.51535  -0.49094  -0.48933  -0.48926  -0.46986
 Alpha  occ. eigenvalues --   -0.45678  -0.44977  -0.44804  -0.44657  -0.42876
 Alpha  occ. eigenvalues --   -0.37428  -0.36446
 Alpha virt. eigenvalues --    0.04954   0.11209   0.16453   0.21289   0.23772
 Alpha virt. eigenvalues --    0.25030   0.27192   0.27626   0.27856   0.28759
 Alpha virt. eigenvalues --    0.28873   0.30864   0.32013   0.32252   0.32735

 Mulliken charges:
               1
     1  C   -0.170618
     2  C   -0.218561
     3  C   -0.170855
     4  C    0.157602
     5  C   -0.170530
     6  C   -0.218614
     7  H    0.225934
     8  H    0.223823
     9  H    0.276027
    10  H    0.275788
    11  H    0.223738
    12  N    0.494241
    13  O   -0.459731
    14  O   -0.465615
    15  C   -0.298729
    16  C   -0.298962
    17  C   -0.475322
    18  H    0.158027
    19  H    0.146438
    20  H    0.151197
    21  H    0.148941
    22  H    0.153297
    23  H    0.156954
    24  H    0.157473
    25  C   -0.297760
    26  C   -0.307586
    27  C   -0.474194
    28  H    0.147944
    29  H    0.143993
    30  H    0.181538
    31  H    0.144561
    32  H    0.149148
    33  H    0.154098
    34  H    0.156313
 Sum of Mulliken charges =  -0.00000

 Dipole moment (field-independent basis, Debye):
    X=             -4.6186    Y=              1.1578    Z=             -2.4894  Tot=              5.3730
 Quadrupole moment (field-independent basis, Debye-Ang):
   XX=            -69.8652   YY=            -94.1498   ZZ=            -95.2587
   XY=             -0.3981   XZ=              6.2241   YZ=             -1.4151

 Normal termination of Gaussian 16 at Wed May  5 17:38:16 2021.
