 Gaussian 16, Revision A.03,
 Gaussian 16:  EM64L-G16RevA.03 25-Dec-2016

 -------------
 #p 6-31g* mp2
 -------------

 ------------------------------------------------------
 Input file generated by CHIRIPA (05-May-2021 14:51:08)
 ------------------------------------------------------
 Symbolic Z-matrix:
 Charge =  0 Multiplicity = 1

                         Standard orientation:
 ---------------------------------------------------------------------
 Center     Atomic      Atomic             Coordinates (Angstroms)
 Number     Number       Type             X           Y           Z
 ---------------------------------------------------------------------
      1          6           0        4.272243   -0.690589    0.147969
      2          6           0        5.304203   -0.198631   -0.867422
      3          6           0        6.317123   -1.277811   -1.251034
      4          1           0        4.792877   -1.043601    1.048673
      5          1           0        3.743804   -1.559402   -0.268337
      6          1           0        5.829581    0.669848   -0.449883
      7          1           0        4.781041    0.153429   -1.765738
      8          1           0        5.810465   -2.142540   -1.691650
      9          1           0        6.864963   -1.623187   -0.368318
     10          1           0        7.045421   -0.904679   -1.977818
     11          6           0        3.252775    0.376956    0.541366
     12          6           0        2.220814   -0.115002    1.556758
     13          6           0        1.207894    0.964178    1.940370
     14          1           0        3.781213    1.245769    0.957673
     15          1           0        2.732140    0.729968   -0.359338
     16          1           0        2.743976   -0.467062    2.455073
     17          1           0        1.695436   -0.983480    1.139218
     18          1           0        0.660054    1.309554    1.057654
     19          1           0        1.714552    1.828907    2.380985
     20          1           0        0.479596    0.591046    2.667153
     21          6           0       -3.390279    0.770195   -0.082668
     22          6           0       -2.657322    1.547677   -1.176414
     23          6           0       -1.917401    2.772013   -0.636682
     24          1           0       -4.102694    1.439179    0.419197
     25          1           0       -2.666190    0.454864    0.681307
     26          1           0       -3.382361    1.860256   -1.938799
     27          1           0       -1.946705    0.876713   -1.675862
     28          1           0       -1.172805    2.474501    0.108747
     29          1           0       -2.616618    3.463633   -0.155684
     30          1           0       -1.400463    3.313057   -1.435373
     31          6           0       -4.134738   -0.456562   -0.606667
     32          6           0       -4.867695   -1.234044    0.487079
     33          6           0       -5.607616   -2.458381   -0.052653
     34          1           0       -4.858827   -0.141232   -1.370642
     35          1           0       -3.422323   -1.125546   -1.108532
     36          1           0       -5.578313   -0.563080    0.986526
     37          1           0       -4.142657   -1.546623    1.249463
     38          1           0       -4.908399   -3.150000   -0.533651
     39          1           0       -6.352213   -2.160868   -0.798082
     40          1           0       -6.124554   -2.999424    0.746038
 ---------------------------------------------------------------------

 SCF Done:  E(RHF) =  -470.733335256     A.U. after   11 cycles
 E2 =    -0.1582439268D+01 EUMP2 =    -0.47231577452430D+03

 The electronic state is 1-A.
 Alpha  occ. eigenvalues --  -11.21650 -11.21619 -11.21597 -11.21596 -11.21433
 Alpha  occ. eigenvalues --  -11.21393 -11.21373 -11.21333 -11.21125 -11.21086
 Alpha  occ. eigenvalues --  -11.21069 -11.21031  -1.08462  -1.08420  -1.03571
 Alpha  occ. eigenvalues --   -1.03516  -0.96029  -0.95958  -0.87055  -0.86966
 Alpha  occ. eigenvalues --   -0.79656  -0.79557  -0.78276  -0.78228  -0.65124
 Alpha  occ. eigenvalues --   -0.65027  -0.61079  -0.60825  -0.59382  -0.59335
 Alpha  occ. eigenvalues --   -0.57668  -0.57547  -0.55461  -0.55122  -0.52713
 Alpha  occ. eigenvalues --   -0.52663  -0.52523  -0.52313  -0.50120  -0.49761
 Alpha  occ. eigenvalues --   -0.48012  -0.47828  -0.46763  -0.46498  -0.45840
 Alpha  occ. eigenvalues --   -0.45765  -0.45742  -0.45630  -0.43817  -0.43775
 Alpha virt. eigenvalues --    0.21294   0.23101   0.23609   0.24858   0.26068
 Alpha virt. eigenvalues --    0.26792   0.27135   0.27369   0.27924   0.28950
 Alpha virt. eigenvalues --    0.30340   0.31643   0.31687   0.31782   0.32052

 Mulliken charges:
               1
     1  C   -0.298326
     2  C   -0.299697
     3  C   -0.475725
     4  H    0.149728
     5  H    0.149434
     6  H    0.152034
     7  H    0.152014
     8  H    0.155168
     9  H    0.155209
    10  H    0.160344
    11  C   -0.298504
    12  C   -0.299271
    13  C   -0.482900
    14  H    0.149788
    15  H    0.149873
    16  H    0.152226
    17  H    0.151573
    18  H    0.161177
    19  H    0.156079
    20  H    0.160339
    21  C   -0.299024
    22  C   -0.299174
    23  C   -0.483246
    24  H    0.149739
    25  H    0.150464
    26  H    0.151984
    27  H    0.151031
    28  H    0.162483
    29  H    0.155539
    30  H    0.159909
    31  C   -0.298242
    32  C   -0.299647
    33  C   -0.475688
    34  H    0.149495
    35  H    0.149377
    36  H    0.151990
    37  H    0.151938
    38  H    0.155085
    39  H    0.155176
    40  H    0.160249
 Sum of Mulliken charges =  -0.00000

 Dipole moment (field-independent basis, Debye):
    X=              0.0200    Y=              0.0073    Z=              0.0162  Tot=              0.0267
 Quadrupole moment (field-independent basis, Debye-Ang):
   XX=            -84.6594   YY=            -85.6801   ZZ=            -84.3877
   XY=             -0.2863   XZ=              0.7525   YZ=             -0.2882

 Normal termination of Gaussian 16 at Thu May  6 05:17:06 2021.
