 Gaussian 16, Revision A.03,
 Gaussian 16:  EM64L-G16RevA.03 25-Dec-2016

 -------------
 #p 6-31g* mp2
 -------------

 ------------------------------------------------------
 Input file generated by CHIRIPA (05-May-2021 14:57:24)
 ------------------------------------------------------
 Symbolic Z-matrix:
 Charge =  0 Multiplicity = 1

                         Standard orientation:
 ---------------------------------------------------------------------
 Center     Atomic      Atomic             Coordinates (Angstroms)
 Number     Number       Type             X           Y           Z
 ---------------------------------------------------------------------
      1          6           0       -2.118535    2.452794    0.034107
      2          6           0       -3.061174    1.803780    0.838304
      3          6           0       -3.240635    0.420344    0.746407
      4          6           0       -2.456926   -0.286243   -0.164540
      5          6           0       -1.509585    0.331649   -0.979430
      6          6           0       -1.347108    1.715955   -0.870599
      7          1           0       -1.985722    3.527818    0.112072
      8          1           0       -3.661672    2.373471    1.541795
      9          1           0       -3.963190   -0.107457    1.356947
     10          1           0       -0.925713   -0.263091   -1.671382
     11          1           0       -0.614287    2.217330   -1.496411
     12          7           0       -2.637922   -1.751286   -0.270791
     13          8           0       -1.935033   -2.351127   -1.081208
     14          8           0       -3.479250   -2.272004    0.458357
     15          6           0        1.980323    2.512168   -0.132869
     16          6           0        1.846707    1.914848    1.124858
     17          6           0        2.091704    0.548573    1.291638
     18          6           0        2.470287   -0.193751    0.174089
     19          6           0        2.611946    0.372389   -1.091893
     20          6           0        2.361843    1.740393   -1.235287
     21          1           0        1.788020    3.574195   -0.253344
     22          1           0        1.550555    2.511758    1.982785
     23          1           0        1.995791    0.060573    2.253966
     24          1           0        2.908660   -0.248579   -1.928421
     25          1           0        2.466401    2.201598   -2.213245
     26          7           0        2.732357   -1.641081    0.338272
     27          8           0        3.064627   -2.273172   -0.662076
     28          8           0        2.600536   -2.116002    1.464198
 ---------------------------------------------------------------------

 SCF Done:  E(RHF) =  -868.334784440     A.U. after   16 cycles
 E2 =    -0.2604402975D+01 EUMP2 =    -0.87093918741460D+03

 The electronic state is 1-A.
 Alpha  occ. eigenvalues --  -20.60906 -20.60899 -20.60699 -20.60681 -15.85974
 Alpha  occ. eigenvalues --  -15.85750 -11.31685 -11.31303 -11.28312 -11.28246
 Alpha  occ. eigenvalues --  -11.28137 -11.27854 -11.27830 -11.27696 -11.27416
 Alpha  occ. eigenvalues --  -11.27337 -11.26980 -11.26920  -1.59969  -1.59764
 Alpha  occ. eigenvalues --   -1.39516  -1.39313  -1.19904  -1.19478  -1.09260
 Alpha  occ. eigenvalues --   -1.08859  -1.05340  -1.04905  -0.96021  -0.95665
 Alpha  occ. eigenvalues --   -0.86735  -0.86314  -0.82835  -0.82490  -0.77805
 Alpha  occ. eigenvalues --   -0.77502  -0.72187  -0.71964  -0.71297  -0.71089
 Alpha  occ. eigenvalues --   -0.71040  -0.70628  -0.65550  -0.65352  -0.65138
 Alpha  occ. eigenvalues --   -0.64948  -0.62664  -0.62284  -0.55883  -0.55487
 Alpha  occ. eigenvalues --   -0.54078  -0.53428  -0.53079  -0.52733  -0.48969
 Alpha  occ. eigenvalues --   -0.48919  -0.48739  -0.48710  -0.44845  -0.44675
 Alpha  occ. eigenvalues --   -0.38278  -0.37272  -0.36918  -0.36320
 Alpha virt. eigenvalues --    0.04689   0.05026   0.10514   0.11194   0.16070
 Alpha virt. eigenvalues --    0.16511   0.20054   0.21741   0.26229   0.26838
 Alpha virt. eigenvalues --    0.27761   0.28722   0.30187   0.30820   0.31994

 Mulliken charges:
               1
     1  C   -0.176283
     2  C   -0.218617
     3  C   -0.172026
     4  C    0.159584
     5  C   -0.173530
     6  C   -0.207376
     7  H    0.219151
     8  H    0.222398
     9  H    0.276370
    10  H    0.275453
    11  H    0.217179
    12  N    0.488064
    13  O   -0.456628
    14  O   -0.459647
    15  C   -0.175507
    16  C   -0.211680
    17  C   -0.168629
    18  C    0.160891
    19  C   -0.173892
    20  C   -0.226597
    21  H    0.221593
    22  H    0.223331
    23  H    0.278905
    24  H    0.279009
    25  H    0.222930
    26  N    0.488923
    27  O   -0.456398
    28  O   -0.456972
 Sum of Mulliken charges =  -0.00000

 Dipole moment (field-independent basis, Debye):
    X=             -0.1286    Y=              9.9165    Z=             -0.0837  Tot=              9.9177
 Quadrupole moment (field-independent basis, Debye-Ang):
   XX=           -110.8569   YY=           -111.4227   ZZ=            -98.3071
   XY=             -0.3886   XZ=             -6.5562   YZ=              0.8060

 Normal termination of Gaussian 16 at Wed May  5 21:06:19 2021.
