 Gaussian 16, Revision A.03,
 Gaussian 16:  EM64L-G16RevA.03 25-Dec-2016

 -------------
 #p 6-31g* mp2
 -------------

 ------------------------------------------------------
 Input file generated by CHIRIPA (05-May-2021 14:57:25)
 ------------------------------------------------------
 Symbolic Z-matrix:
 Charge =  0 Multiplicity = 1

                         Standard orientation:
 ---------------------------------------------------------------------
 Center     Atomic      Atomic             Coordinates (Angstroms)
 Number     Number       Type             X           Y           Z
 ---------------------------------------------------------------------
      1          6           0        4.039965    1.921403   -0.664679
      2          6           0        3.541116    1.826188    0.638626
      3          6           0        2.864058    0.676989    1.057531
      4          6           0        2.703045   -0.362622    0.142887
      5          6           0        3.188507   -0.297778   -1.162261
      6          6           0        3.862382    0.860986   -1.559386
      7          1           0        4.564684    2.817844   -0.981634
      8          1           0        3.677558    2.648158    1.335616
      9          1           0        2.467672    0.576786    2.060654
     10          1           0        3.036983   -1.133638   -1.834419
     11          1           0        4.248726    0.932155   -2.572163
     12          7           0        1.987959   -1.584290    0.574834
     13          8           0        1.859202   -2.486275   -0.250080
     14          8           0        1.569771   -1.616717    1.730128
     15          6           0       -3.183880    2.641260    0.217869
     16          6           0       -4.254785    1.813572   -0.135140
     17          6           0       -4.065273    0.438066   -0.298286
     18          6           0       -2.785807   -0.078480   -0.099691
     19          6           0       -1.698834    0.720121    0.252463
     20          6           0       -1.911565    2.092860    0.410206
     21          1           0       -3.340117    3.708711    0.342507
     22          1           0       -5.243976    2.236706   -0.285155
     23          1           0       -4.876679   -0.225683   -0.571184
     24          1           0       -0.724285    0.269240    0.395216
     25          1           0       -1.078036    2.733245    0.684398
     26          7           0       -2.572888   -1.533201   -0.269546
     27          8           0       -1.435948   -1.963728   -0.088851
     28          8           0       -3.546975   -2.215340   -0.580157
 ---------------------------------------------------------------------

 SCF Done:  E(RHF) =  -868.335456775     A.U. after   16 cycles
 E2 =    -0.2602360763D+01 EUMP2 =    -0.87093781753756D+03

 The electronic state is 1-A.
 Alpha  occ. eigenvalues --  -20.60394 -20.60309 -20.60034 -20.59926 -15.85406
 Alpha  occ. eigenvalues --  -15.85029 -11.31250 -11.30736 -11.27893 -11.27790
 Alpha  occ. eigenvalues --  -11.27638 -11.27356 -11.27352 -11.27183 -11.26977
 Alpha  occ. eigenvalues --  -11.26898 -11.26470 -11.26440  -1.59392  -1.59056
 Alpha  occ. eigenvalues --   -1.38944  -1.38597  -1.19449  -1.18951  -1.08748
 Alpha  occ. eigenvalues --   -1.08288  -1.04902  -1.04407  -0.95503  -0.95060
 Alpha  occ. eigenvalues --   -0.86274  -0.85792  -0.82328  -0.81889  -0.77304
 Alpha  occ. eigenvalues --   -0.76893  -0.71619  -0.71380  -0.70573  -0.70513
 Alpha  occ. eigenvalues --   -0.70395  -0.70067  -0.65072  -0.64885  -0.64592
 Alpha  occ. eigenvalues --   -0.64423  -0.62231  -0.61752  -0.55361  -0.54915
 Alpha  occ. eigenvalues --   -0.53225  -0.52979  -0.52715  -0.52511  -0.48415
 Alpha  occ. eigenvalues --   -0.48344  -0.48023  -0.47968  -0.44313  -0.43827
 Alpha  occ. eigenvalues --   -0.37450  -0.36956  -0.36537  -0.36022
 Alpha virt. eigenvalues --    0.05221   0.05673   0.11062   0.11628   0.16629
 Alpha virt. eigenvalues --    0.17092   0.21214   0.21628   0.26928   0.27358
 Alpha virt. eigenvalues --    0.28168   0.28404   0.30523   0.31255   0.32266

 Mulliken charges:
               1
     1  C   -0.172361
     2  C   -0.219654
     3  C   -0.180199
     4  C    0.155148
     5  C   -0.170618
     6  C   -0.218313
     7  H    0.224988
     8  H    0.221653
     9  H    0.274816
    10  H    0.279577
    11  H    0.224411
    12  N    0.491066
    13  O   -0.445470
    14  O   -0.461103
    15  C   -0.171619
    16  C   -0.218828
    17  C   -0.170817
    18  C    0.158585
    19  C   -0.168898
    20  C   -0.219629
    21  H    0.222642
    22  H    0.221778
    23  H    0.275446
    24  H    0.274353
    25  H    0.218529
    26  N    0.487520
    27  O   -0.448432
    28  O   -0.464570
 Sum of Mulliken charges =  -0.00000

 Dipole moment (field-independent basis, Debye):
    X=              1.8933    Y=              8.9951    Z=             -1.0201  Tot=              9.2486
 Quadrupole moment (field-independent basis, Debye-Ang):
   XX=            -83.5864   YY=           -108.9353   ZZ=           -102.0111
   XY=             -3.3516   XZ=             -5.2282   YZ=              2.8371

 Normal termination of Gaussian 16 at Thu May  6 21:20:54 2021.
