 Gaussian 16, Revision A.03,
 Gaussian 16:  EM64L-G16RevA.03 25-Dec-2016

 -------------
 #p 6-31g* mp2
 -------------

 ------------------------------------------------------
 Input file generated by CHIRIPA (05-May-2021 14:51:11)
 ------------------------------------------------------
 Symbolic Z-matrix:
 Charge =  0 Multiplicity = 1

                         Standard orientation:
 ---------------------------------------------------------------------
 Center     Atomic      Atomic             Coordinates (Angstroms)
 Number     Number       Type             X           Y           Z
 ---------------------------------------------------------------------
      1          6           0        3.596677   -0.073829   -0.158942
      2          6           0        5.075339   -0.320409    0.142290
      3          6           0        5.953634    0.889481   -0.177956
      4          1           0        3.484383    0.192296   -1.218901
      5          1           0        3.251618    0.794318    0.419547
      6          1           0        5.417149   -1.188679   -0.435541
      7          1           0        5.184103   -0.586165    1.201611
      8          1           0        5.640373    1.759044    0.408838
      9          1           0        5.874742    1.153107   -1.237616
     10          1           0        7.006704    0.691350    0.044863
     11          6           0        2.705874   -1.274241    0.156036
     12          6           0        1.227212   -1.027660   -0.145197
     13          6           0        0.348917   -2.237550    0.175050
     14          1           0        3.050933   -2.142388   -0.422453
     15          1           0        2.818168   -1.540366    1.215995
     16          1           0        1.118448   -0.761904   -1.204517
     17          1           0        0.885402   -0.159390    0.432635
     18          1           0        0.427809   -2.501176    1.234709
     19          1           0        0.662178   -3.107113   -0.411745
     20          1           0       -0.704153   -2.039420   -0.047769
     21          6           0       -2.649887    1.098209    0.391476
     22          6           0       -1.513853    1.643576   -0.474542
     23          6           0       -0.518941    2.490161    0.319962
     24          1           0       -3.176860    1.937796    0.865120
     25          1           0       -2.224011    0.496732    1.206490
     26          1           0       -1.941815    2.242707   -1.288487
     27          1           0       -0.989645    0.802603   -0.946332
     28          1           0       -0.064781    1.899428    1.122068
     29          1           0       -1.022362    3.347715    0.777968
     30          1           0        0.284801    2.869881   -0.318529
     31          6           0       -3.652664    0.249860   -0.388569
     32          6           0       -4.788698   -0.295507    0.477448
     33          6           0       -5.783610   -1.142091   -0.317056
     34          1           0       -4.078540    0.851338   -1.203584
     35          1           0       -3.125691   -0.589727   -0.862214
     36          1           0       -5.312906    0.545467    0.949238
     37          1           0       -4.360736   -0.894637    1.291393
     38          1           0       -5.280190   -1.999645   -0.775062
     39          1           0       -6.237770   -0.551358   -1.119162
     40          1           0       -6.587352   -1.521811    0.321436
 ---------------------------------------------------------------------

 SCF Done:  E(RHF) =  -470.732282530     A.U. after   11 cycles
 E2 =    -0.1584630327D+01 EUMP2 =    -0.47231691285643D+03

 The electronic state is 1-A.
 Alpha  occ. eigenvalues --  -11.21605 -11.21596 -11.21596 -11.21505 -11.21414
 Alpha  occ. eigenvalues --  -11.21398 -11.21354 -11.21332 -11.21147 -11.21071
 Alpha  occ. eigenvalues --  -11.21064 -11.21061  -1.08486  -1.08382  -1.03623
 Alpha  occ. eigenvalues --   -1.03453  -0.96012  -0.95972  -0.87033  -0.86978
 Alpha  occ. eigenvalues --   -0.79686  -0.79531  -0.78313  -0.78188  -0.65225
 Alpha  occ. eigenvalues --   -0.64964  -0.61192  -0.60773  -0.59379  -0.59264
 Alpha  occ. eigenvalues --   -0.57606  -0.57565  -0.55341  -0.55258  -0.52722
 Alpha  occ. eigenvalues --   -0.52643  -0.52437  -0.52381  -0.50044  -0.49840
 Alpha  occ. eigenvalues --   -0.48098  -0.47741  -0.46758  -0.46499  -0.45919
 Alpha  occ. eigenvalues --   -0.45790  -0.45601  -0.45546  -0.43801  -0.43764
 Alpha virt. eigenvalues --    0.19880   0.22658   0.23753   0.24622   0.25738
 Alpha virt. eigenvalues --    0.26369   0.26642   0.27516   0.28999   0.29425
 Alpha virt. eigenvalues --    0.30517   0.30950   0.31742   0.32009   0.32639

 Mulliken charges:
               1
     1  C   -0.298872
     2  C   -0.299634
     3  C   -0.475739
     4  H    0.149504
     5  H    0.150288
     6  H    0.151922
     7  H    0.151917
     8  H    0.155361
     9  H    0.155138
    10  H    0.160258
    11  C   -0.297328
    12  C   -0.308081
    13  C   -0.479357
    14  H    0.149360
    15  H    0.149319
    16  H    0.151638
    17  H    0.161773
    18  H    0.155298
    19  H    0.155733
    20  H    0.162010
    21  C   -0.298646
    22  C   -0.306768
    23  C   -0.477667
    24  H    0.149652
    25  H    0.149704
    26  H    0.151845
    27  H    0.160953
    28  H    0.154446
    29  H    0.155608
    30  H    0.161068
    31  C   -0.300402
    32  C   -0.299640
    33  C   -0.475721
    34  H    0.149770
    35  H    0.150548
    36  H    0.152002
    37  H    0.152104
    38  H    0.155199
    39  H    0.155142
    40  H    0.160295
 Sum of Mulliken charges =  -0.00000

 Dipole moment (field-independent basis, Debye):
    X=              0.0176    Y=              0.0080    Z=             -0.0062  Tot=              0.0203
 Quadrupole moment (field-independent basis, Debye-Ang):
   XX=            -85.7612   YY=            -85.0592   ZZ=            -84.0543
   XY=             -1.5900   XZ=             -0.2245   YZ=              0.0259

 Normal termination of Gaussian 16 at Wed May  5 15:15:45 2021.
