 Gaussian 16, Revision A.03,
 Gaussian 16:  EM64L-G16RevA.03 25-Dec-2016

 -------------
 #p 6-31g* mp2
 -------------

 ------------------------------------------------------
 Input file generated by CHIRIPA (05-May-2021 14:55:22)
 ------------------------------------------------------
 Symbolic Z-matrix:
 Charge =  0 Multiplicity = 1

                         Standard orientation:
 ---------------------------------------------------------------------
 Center     Atomic      Atomic             Coordinates (Angstroms)
 Number     Number       Type             X           Y           Z
 ---------------------------------------------------------------------
      1          6           0        3.460818    1.253807   -1.192785
      2          6           0        3.552750   -0.093221   -1.558280
      3          6           0        2.850214   -1.071183   -0.847942
      4          6           0        2.061574   -0.664933    0.227371
      5          6           0        1.949547    0.669135    0.615958
      6          6           0        2.660920    1.630022   -0.108744
      7          1           0        4.009997    2.006880   -1.750172
      8          1           0        4.173192   -0.388300   -2.399723
      9          1           0        2.903356   -2.121073   -1.109335
     10          1           0        1.322953    0.932667    1.459373
     11          1           0        2.587634    2.675401    0.177364
     12          7           0        1.313154   -1.691220    0.986977
     13          8           0        0.625204   -1.307464    1.930425
     14          8           0        1.428662   -2.859948    0.624525
     15          6           0       -2.236578    0.967686    0.267652
     16          6           0       -2.139266    2.475461    0.032854
     17          6           0       -1.014024    3.127533    0.836863
     18          1           0       -2.392413    0.779116    1.338680
     19          1           0       -1.277812    0.499981    0.004188
     20          1           0       -3.098379    2.940006    0.295371
     21          1           0       -1.983836    2.660472   -1.037766
     22          1           0       -0.046319    2.691179    0.569019
     23          1           0       -1.167194    2.972303    1.909729
     24          1           0       -0.962445    4.205380    0.653980
     25          6           0       -3.356825    0.301534   -0.529228
     26          6           0       -3.454137   -1.206241   -0.294431
     27          6           0       -4.579378   -1.858313   -1.098439
     28          1           0       -4.315592    0.769239   -0.265764
     29          1           0       -3.200990    0.490104   -1.600256
     30          1           0       -3.609567   -1.391251    0.776190
     31          1           0       -2.495023   -1.670786   -0.556947
     32          1           0       -4.426209   -1.703082   -2.171306
     33          1           0       -5.547085   -1.421959   -0.830594
     34          1           0       -4.630959   -2.936159   -0.915556
 ---------------------------------------------------------------------

 SCF Done:  E(RHF) =  -669.534754171     A.U. after   15 cycles
 E2 =    -0.2093931590D+01 EUMP2 =    -0.67162868576111D+03

 The electronic state is 1-A.
 Alpha  occ. eigenvalues --  -20.60845 -20.60824 -15.85877 -11.31247 -11.27828
 Alpha  occ. eigenvalues --  -11.27778 -11.27564 -11.26835 -11.26810 -11.21630
 Alpha  occ. eigenvalues --  -11.21406 -11.21081 -11.21032 -11.20981 -11.20592
 Alpha  occ. eigenvalues --   -1.59902  -1.39455  -1.19432  -1.08819  -1.08162
 Alpha  occ. eigenvalues --   -1.04843  -1.03329  -0.95822  -0.95648  -0.86853
 Alpha  occ. eigenvalues --   -0.86224  -0.82489  -0.79416  -0.77939  -0.77490
 Alpha  occ. eigenvalues --   -0.72095  -0.71225  -0.70536  -0.65093  -0.64849
 Alpha  occ. eigenvalues --   -0.64780  -0.62241  -0.60706  -0.59195  -0.57388
 Alpha  occ. eigenvalues --   -0.55344  -0.55110  -0.53176  -0.52922  -0.52526
 Alpha  occ. eigenvalues --   -0.52228  -0.49789  -0.48857  -0.48844  -0.47703
 Alpha  occ. eigenvalues --   -0.46417  -0.45544  -0.45367  -0.44733  -0.43550
 Alpha  occ. eigenvalues --   -0.37405  -0.36372
 Alpha virt. eigenvalues --    0.04960   0.11133   0.16320   0.20986   0.23189
 Alpha virt. eigenvalues --    0.24433   0.26364   0.26934   0.27546   0.28072
 Alpha virt. eigenvalues --    0.29487   0.30242   0.31668   0.31948   0.32434

 Mulliken charges:
               1
     1  C   -0.171188
     2  C   -0.218678
     3  C   -0.171253
     4  C    0.156082
     5  C   -0.170994
     6  C   -0.219643
     7  H    0.226097
     8  H    0.223750
     9  H    0.275783
    10  H    0.280337
    11  H    0.225688
    12  N    0.488131
    13  O   -0.458779
    14  O   -0.460303
    15  C   -0.299478
    16  C   -0.297887
    17  C   -0.483141
    18  H    0.156864
    19  H    0.148730
    20  H    0.153005
    21  H    0.150273
    22  H    0.148465
    23  H    0.158314
    24  H    0.158761
    25  C   -0.299179
    26  C   -0.299095
    27  C   -0.475963
    28  H    0.147992
    29  H    0.146494
    30  H    0.157390
    31  H    0.155669
    32  H    0.152389
    33  H    0.153172
    34  H    0.162193
 Sum of Mulliken charges =  -0.00000

 Dipole moment (field-independent basis, Debye):
    X=              2.6575    Y=              3.4744    Z=             -2.5955  Tot=              5.0863
 Quadrupole moment (field-independent basis, Debye-Ang):
   XX=            -83.9069   YY=            -98.0405   ZZ=            -94.3383
   XY=              3.8964   XZ=             -7.5925   YZ=              4.7864

 Normal termination of Gaussian 16 at Wed May  5 19:01:24 2021.
