 Gaussian 16, Revision A.03,
 Gaussian 16:  EM64L-G16RevA.03 25-Dec-2016

 -------------
 #p 6-31g* mp2
 -------------

 ------------------------------------------------------
 Input file generated by CHIRIPA (05-May-2021 14:55:19)
 ------------------------------------------------------
 Symbolic Z-matrix:
 Charge =  0 Multiplicity = 1

                         Standard orientation:
 ---------------------------------------------------------------------
 Center     Atomic      Atomic             Coordinates (Angstroms)
 Number     Number       Type             X           Y           Z
 ---------------------------------------------------------------------
      1          6           0       -2.953724   -1.951545    1.286199
      2          6           0       -3.030704   -1.788597   -0.100900
      3          6           0       -2.759402   -0.548302   -0.686232
      4          6           0       -2.412554    0.512344    0.149241
      5          6           0       -2.327392    0.381562    1.534497
      6          6           0       -2.602932   -0.867856    2.098039
      7          1           0       -3.166124   -2.918579    1.732435
      8          1           0       -3.302888   -2.628441   -0.733848
      9          1           0       -2.811528   -0.394299   -1.757205
     10          1           0       -2.053478    1.237335    2.139511
     11          1           0       -2.542366   -0.991485    3.175579
     12          7           0       -2.123095    1.830218   -0.458889
     13          8           0       -1.819705    2.748967    0.299063
     14          8           0       -2.205088    1.919464   -1.681979
     15          6           0        2.813918   -0.696772   -0.927028
     16          6           0        1.296172   -0.819288   -0.787660
     17          6           0        0.639916   -1.459321   -2.011376
     18          1           0        3.046878   -0.103771   -1.822028
     19          1           0        3.241623   -1.695143   -1.093515
     20          1           0        0.871598    0.178849   -0.620105
     21          1           0        1.066795   -1.411905    0.107218
     22          1           0        1.035867   -2.466260   -2.178402
     23          1           0        0.839561   -0.866467   -2.909856
     24          1           0       -0.445060   -1.537155   -1.890428
     25          6           0        3.484348   -0.058794    0.288389
     26          6           0        5.002093    0.063722    0.149022
     27          6           0        5.658350    0.703755    1.372737
     28          1           0        3.056643    0.939577    0.454876
     29          1           0        3.251388   -0.651796    1.183388
     30          1           0        5.231471    0.656339   -0.745857
     31          1           0        5.426667   -0.934415   -0.018534
     32          1           0        5.458704    0.110902    2.271217
     33          1           0        5.262399    1.710694    1.539762
     34          1           0        6.743326    0.781589    1.251790
 ---------------------------------------------------------------------

 SCF Done:  E(RHF) =  -669.534816260     A.U. after   15 cycles
 E2 =    -0.2093480130D+01 EUMP2 =    -0.67162829638904D+03

 The electronic state is 1-A.
 Alpha  occ. eigenvalues --  -20.60820 -20.60812 -15.85874 -11.31228 -11.27807
 Alpha  occ. eigenvalues --  -11.27803 -11.27555 -11.26819 -11.26808 -11.21505
 Alpha  occ. eigenvalues --  -11.21463 -11.21264 -11.21202 -11.20973 -11.20944
 Alpha  occ. eigenvalues --   -1.59897  -1.39449  -1.19419  -1.08808  -1.08298
 Alpha  occ. eigenvalues --   -1.04831  -1.03413  -0.95881  -0.95636  -0.86897
 Alpha  occ. eigenvalues --   -0.86214  -0.82478  -0.79485  -0.78112  -0.77523
 Alpha  occ. eigenvalues --   -0.72090  -0.71226  -0.70531  -0.65072  -0.64920
 Alpha  occ. eigenvalues --   -0.64822  -0.62187  -0.60803  -0.59296  -0.57540
 Alpha  occ. eigenvalues --   -0.55321  -0.55141  -0.53280  -0.52921  -0.52464
 Alpha  occ. eigenvalues --   -0.52190  -0.49800  -0.48850  -0.48844  -0.47813
 Alpha  occ. eigenvalues --   -0.46508  -0.45656  -0.45571  -0.44851  -0.43690
 Alpha  occ. eigenvalues --   -0.37375  -0.36341
 Alpha virt. eigenvalues --    0.04983   0.11206   0.16425   0.21218   0.22997
 Alpha virt. eigenvalues --    0.24351   0.26715   0.26840   0.27503   0.28005
 Alpha virt. eigenvalues --    0.28609   0.30836   0.31457   0.31890   0.31970

 Mulliken charges:
               1
     1  C   -0.170537
     2  C   -0.217445
     3  C   -0.172642
     4  C    0.161310
     5  C   -0.170924
     6  C   -0.218449
     7  H    0.225894
     8  H    0.224231
     9  H    0.276962
    10  H    0.275905
    11  H    0.223648
    12  N    0.488327
    13  O   -0.460713
    14  O   -0.460325
    15  C   -0.298376
    16  C   -0.299057
    17  C   -0.478493
    18  H    0.152592
    19  H    0.147559
    20  H    0.153664
    21  H    0.149137
    22  H    0.151734
    23  H    0.160043
    24  H    0.155772
    25  C   -0.299003
    26  C   -0.299630
    27  C   -0.475809
    28  H    0.153640
    29  H    0.146640
    30  H    0.153440
    31  H    0.150555
    32  H    0.153501
    33  H    0.156880
    34  H    0.159970
 Sum of Mulliken charges =  -0.00000

 Dipole moment (field-independent basis, Debye):
    X=             -1.0743    Y=             -4.5661    Z=              2.1586  Tot=              5.1636
 Quadrupole moment (field-independent basis, Debye-Ang):
   XX=            -90.8314   YY=            -98.8688   ZZ=            -90.5688
   XY=             11.0946   XZ=             -5.0417   YZ=              1.4626

 Normal termination of Gaussian 16 at Thu May  6 20:39:19 2021.
