 Gaussian 16, Revision A.03,
 Gaussian 16:  EM64L-G16RevA.03 25-Dec-2016

 -------------
 #p 6-31g* mp2
 -------------

 ------------------------------------------------------
 Input file generated by CHIRIPA (05-May-2021 14:53:15)
 ------------------------------------------------------
 Symbolic Z-matrix:
 Charge =  0 Multiplicity = 1

                         Standard orientation:
 ---------------------------------------------------------------------
 Center     Atomic      Atomic             Coordinates (Angstroms)
 Number     Number       Type             X           Y           Z
 ---------------------------------------------------------------------
      1          6           0        4.165518    0.767191   -0.206066
      2          6           0        2.849639    1.545448   -0.233716
      3          6           0        3.042400    3.020213   -0.588262
      4          1           0        4.845301    1.234410    0.519570
      5          1           0        4.652322    0.848653   -1.187789
      6          1           0        2.364791    1.461392    0.747341
      7          1           0        2.172839    1.076207   -0.959230
      8          1           0        3.503906    3.121873   -1.575823
      9          1           0        3.696949    3.509246    0.140445
     10          1           0        2.089082    3.557658   -0.602339
     11          6           0        3.989197   -0.708639    0.146871
     12          6           0        5.305076   -1.486895    0.174522
     13          6           0        5.112315   -2.961661    0.529068
     14          1           0        3.502392   -0.790101    1.128595
     15          1           0        3.309414   -1.175858   -0.578764
     16          1           0        5.981876   -1.017655    0.900036
     17          1           0        5.789924   -1.402840   -0.806536
     18          1           0        4.457765   -3.450694   -0.199639
     19          1           0        4.650808   -3.063320    1.516629
     20          1           0        6.065633   -3.499106    0.543145
     21          6           0       -1.375906    1.707095    0.337350
     22          6           0       -2.669467    1.953557    0.809025
     23          6           0       -3.679944    1.002206    0.640454
     24          6           0       -3.360374   -0.190118   -0.007255
     25          6           0       -2.081202   -0.465034   -0.488330
     26          6           0       -1.086412    0.500713   -0.308683
     27          1           0       -0.597036    2.451719    0.472601
     28          1           0       -2.897170    2.889558    1.311116
     29          1           0       -4.689877    1.167102    0.995786
     30          1           0       -1.884564   -1.407466   -0.984891
     31          1           0       -0.082707    0.306593   -0.676022
     32          7           0       -4.421818   -1.204891   -0.191577
     33          8           0       -4.114655   -2.247413   -0.765543
     34          8           0       -5.540841   -0.938534    0.241410
 ---------------------------------------------------------------------

 SCF Done:  E(RHF) =  -669.535524138     A.U. after   15 cycles
 E2 =    -0.2091536479D+01 EUMP2 =    -0.67162706061642D+03

 The electronic state is 1-A.
 Alpha  occ. eigenvalues --  -20.60704 -20.60699 -15.85755 -11.31104 -11.27672
 Alpha  occ. eigenvalues --  -11.27653 -11.27393 -11.26689 -11.26617 -11.22904
 Alpha  occ. eigenvalues --  -11.22326 -11.22240 -11.22216 -11.22153 -11.21535
 Alpha  occ. eigenvalues --   -1.59780  -1.39334  -1.19270  -1.09337  -1.08666
 Alpha  occ. eigenvalues --   -1.04672  -1.04416  -0.96830  -0.95506  -0.87849
 Alpha  occ. eigenvalues --   -0.86070  -0.82339  -0.80540  -0.79120  -0.77386
 Alpha  occ. eigenvalues --   -0.71974  -0.71102  -0.70379  -0.65970  -0.64919
 Alpha  occ. eigenvalues --   -0.64684  -0.62069  -0.61769  -0.60237  -0.58447
 Alpha  occ. eigenvalues --   -0.56088  -0.55168  -0.53552  -0.53258  -0.53001
 Alpha  occ. eigenvalues --   -0.52769  -0.50760  -0.48859  -0.48731  -0.48680
 Alpha  occ. eigenvalues --   -0.47553  -0.46642  -0.46541  -0.44743  -0.44661
 Alpha  occ. eigenvalues --   -0.37249  -0.36273
 Alpha virt. eigenvalues --    0.05137   0.11361   0.16632   0.19036   0.22428
 Alpha virt. eigenvalues --    0.23405   0.24433   0.25764   0.26240   0.28399
 Alpha virt. eigenvalues --    0.28968   0.29853   0.30871   0.31664   0.32161

 Mulliken charges:
               1
     1  C   -0.297837
     2  C   -0.308271
     3  C   -0.475972
     4  H    0.153232
     5  H    0.152756
     6  H    0.151371
     7  H    0.148038
     8  H    0.160668
     9  H    0.160095
    10  H    0.154701
    11  C   -0.299404
    12  C   -0.300339
    13  C   -0.476380
    14  H    0.150902
    15  H    0.147060
    16  H    0.153423
    17  H    0.153294
    18  H    0.156025
    19  H    0.156350
    20  H    0.162572
    21  C   -0.175900
    22  C   -0.218723
    23  C   -0.171312
    24  C    0.158852
    25  C   -0.172383
    26  C   -0.223440
    27  H    0.228416
    28  H    0.223056
    29  H    0.275193
    30  H    0.275526
    31  H    0.231810
    32  N    0.487985
    33  O   -0.460636
    34  O   -0.460730
 Sum of Mulliken charges =  -0.00000

 Dipole moment (field-independent basis, Debye):
    X=              4.0470    Y=              3.5648    Z=              0.6657  Tot=              5.4341
 Quadrupole moment (field-independent basis, Debye-Ang):
   XX=           -117.0432   YY=            -95.6719   ZZ=            -93.4466
   XY=            -14.9630   XZ=             -3.8639   YZ=              1.9315

 Normal termination of Gaussian 16 at Thu May  6 04:17:28 2021.
