 Gaussian 16, Revision A.03,
 Gaussian 16:  EM64L-G16RevA.03 25-Dec-2016

 -------------
 #p 6-31g* mp2
 -------------

 ------------------------------------------------------
 Input file generated by CHIRIPA (05-May-2021 14:57:21)
 ------------------------------------------------------
 Symbolic Z-matrix:
 Charge =  0 Multiplicity = 1

                         Standard orientation:
 ---------------------------------------------------------------------
 Center     Atomic      Atomic             Coordinates (Angstroms)
 Number     Number       Type             X           Y           Z
 ---------------------------------------------------------------------
      1          6           0       -3.705043    2.453701    0.565171
      2          6           0       -4.778065    1.863731   -0.110906
      3          6           0       -4.778216    0.492406   -0.382961
      4          6           0       -3.684192   -0.262409    0.037346
      5          6           0       -2.600252    0.296168    0.712885
      6          6           0       -2.621471    1.669419    0.974188
      7          1           0       -3.713226    3.519728    0.772333
      8          1           0       -5.620916    2.470356   -0.429738
      9          1           0       -5.595799    0.009884   -0.904639
     10          1           0       -1.774123   -0.334455    1.018245
     11          1           0       -1.786773    2.124894    1.499418
     12          7           0       -3.673040   -1.715190   -0.244975
     13          8           0       -2.697328   -2.358309    0.135841
     14          8           0       -4.640222   -2.183251   -0.841729
     15          6           0        6.201348   -0.075789    0.087433
     16          6           0        5.592755    0.875390   -0.738033
     17          6           0        4.199939    0.939267   -0.840660
     18          6           0        3.442859    0.032521   -0.100437
     19          6           0        4.019663   -0.926599    0.730632
     20          6           0        5.414248   -0.972167    0.817843
     21          1           0        7.284008   -0.118299    0.161167
     22          1           0        6.201518    1.572793   -1.306436
     23          1           0        3.702710    1.665547   -1.472087
     24          1           0        3.386380   -1.608490    1.285064
     25          1           0        5.884155   -1.711923    1.459709
     26          7           0        1.967411    0.090454   -0.200924
     27          8           0        1.322742   -0.719630    0.461498
     28          8           0        1.483562    0.944850   -0.940203
 ---------------------------------------------------------------------

 SCF Done:  E(RHF) =  -868.339253917     A.U. after   16 cycles
 E2 =    -0.2598839542D+01 EUMP2 =    -0.87093809345952D+03

 The electronic state is 1-A.
 Alpha  occ. eigenvalues --  -20.61220 -20.61178 -20.59586 -20.59543 -15.86217
 Alpha  occ. eigenvalues --  -15.84616 -11.31439 -11.29874 -11.28001 -11.27971
 Alpha  occ. eigenvalues --  -11.27712 -11.26981 -11.26957 -11.26564 -11.26303
 Alpha  occ. eigenvalues --  -11.26286 -11.25584 -11.25417  -1.60261  -1.58648
 Alpha  occ. eigenvalues --   -1.39814  -1.38198  -1.19599  -1.18077  -1.09024
 Alpha  occ. eigenvalues --   -1.07518  -1.04978  -1.03454  -0.95880  -0.94351
 Alpha  occ. eigenvalues --   -0.86383  -0.84875  -0.82712  -0.81177  -0.77777
 Alpha  occ. eigenvalues --   -0.76209  -0.72435  -0.71568  -0.70844  -0.70704
 Alpha  occ. eigenvalues --   -0.69967  -0.69212  -0.65253  -0.64980  -0.63740
 Alpha  occ. eigenvalues --   -0.63484  -0.62324  -0.60782  -0.55488  -0.54038
 Alpha  occ. eigenvalues --   -0.53318  -0.53067  -0.51814  -0.51560  -0.49199
 Alpha  occ. eigenvalues --   -0.49186  -0.47614  -0.47579  -0.45246  -0.43627
 Alpha  occ. eigenvalues --   -0.37574  -0.36575  -0.36111  -0.35039
 Alpha virt. eigenvalues --    0.04742   0.06306   0.11082   0.12598   0.16261
 Alpha virt. eigenvalues --    0.17781   0.21235   0.22643   0.27160   0.28095
 Alpha virt. eigenvalues --    0.28576   0.29584   0.30823   0.32092   0.32368

 Mulliken charges:
               1
     1  C   -0.171199
     2  C   -0.219947
     3  C   -0.171897
     4  C    0.155136
     5  C   -0.168089
     6  C   -0.217475
     7  H    0.220589
     8  H    0.218144
     9  H    0.271406
    10  H    0.292817
    11  H    0.222935
    12  N    0.487587
    13  O   -0.456093
    14  O   -0.467086
    15  C   -0.170247
    16  C   -0.218661
    17  C   -0.170896
    18  C    0.157555
    19  C   -0.170571
    20  C   -0.218641
    21  H    0.226590
    22  H    0.223957
    23  H    0.275174
    24  H    0.277766
    25  H    0.224948
    26  N    0.488742
    27  O   -0.460942
    28  O   -0.461600
 Sum of Mulliken charges =  -0.00000

 Dipole moment (field-independent basis, Debye):
    X=              5.6709    Y=              4.8041    Z=              1.4067  Tot=              7.5642
 Quadrupole moment (field-independent basis, Debye-Ang):
   XX=            -66.8144   YY=           -105.9443   ZZ=           -102.9848
   XY=            -19.5103   XZ=             -1.0576   YZ=             -3.2630

 Normal termination of Gaussian 16 at Wed May  5 19:17:24 2021.
