 Gaussian 16, Revision A.03,
 Gaussian 16:  EM64L-G16RevA.03 25-Dec-2016

 -------------
 #p 6-31g* mp2
 -------------

 ------------------------------------------------------
 Input file generated by CHIRIPA (05-May-2021 14:55:19)
 ------------------------------------------------------
 Symbolic Z-matrix:
 Charge =  0 Multiplicity = 1

                         Standard orientation:
 ---------------------------------------------------------------------
 Center     Atomic      Atomic             Coordinates (Angstroms)
 Number     Number       Type             X           Y           Z
 ---------------------------------------------------------------------
      1          6           0        2.292834    2.568947   -0.164535
      2          6           0        3.534696    2.279001    0.410124
      3          6           0        4.029480    0.971433    0.409349
      4          6           0        3.252544   -0.026256   -0.177402
      5          6           0        2.011535    0.230981   -0.757932
      6          6           0        1.536551    1.545816   -0.745704
      7          1           0        1.916165    3.587520   -0.159484
      8          1           0        4.124203    3.071573    0.862181
      9          1           0        4.987612    0.719046    0.847187
     10          1           0        1.446720   -0.580225   -1.201043
     11          1           0        0.571761    1.768065   -1.192730
     12          7           0        3.765869   -1.414367   -0.184285
     13          8           0        3.062108   -2.275492   -0.707565
     14          8           0        4.862254   -1.614958    0.333730
     15          6           0       -4.664794    0.200532    0.238354
     16          6           0       -5.902370   -0.415515   -0.415006
     17          6           0       -7.114159    0.516286   -0.381720
     18          1           0       -4.899394    0.462253    1.279224
     19          1           0       -4.418976    1.141650   -0.272788
     20          1           0       -6.144961   -1.355890    0.096327
     21          1           0       -5.664739   -0.675976   -1.454384
     22          1           0       -6.896214    1.450683   -0.908981
     23          1           0       -7.379166    0.766906    0.650541
     24          1           0       -7.987616    0.056004   -0.854024
     25          6           0       -3.445136   -0.718986    0.212892
     26          6           0       -2.207561   -0.102938    0.866252
     27          6           0       -0.995772   -1.034739    0.832966
     28          1           0       -3.690955   -1.660104    0.724034
     29          1           0       -3.210536   -0.980707   -0.827978
     30          1           0       -2.445192    0.157522    1.905630
     31          1           0       -1.964969    0.837436    0.354919
     32          1           0       -0.730765   -1.285360   -0.199295
     33          1           0       -1.213716   -1.969137    1.360226
     34          1           0       -0.122315   -0.574457    1.305271
 ---------------------------------------------------------------------

 SCF Done:  E(RHF) =  -669.534759979     A.U. after   15 cycles
 E2 =    -0.2092234638D+01 EUMP2 =    -0.67162699461710D+03

 The electronic state is 1-A.
 Alpha  occ. eigenvalues --  -20.60731 -20.60724 -15.85785 -11.31146 -11.27742
 Alpha  occ. eigenvalues --  -11.27713 -11.27492 -11.26744 -11.26733 -11.22044
 Alpha  occ. eigenvalues --  -11.21865 -11.21746 -11.21686 -11.21352 -11.21314
 Alpha  occ. eigenvalues --   -1.59806  -1.39359  -1.19342  -1.08773  -1.08731
 Alpha  occ. eigenvalues --   -1.04753  -1.03852  -0.96296  -0.95561  -0.87313
 Alpha  occ. eigenvalues --   -0.86137  -0.82396  -0.79923  -0.78582  -0.77440
 Alpha  occ. eigenvalues --   -0.72004  -0.71130  -0.70457  -0.65421  -0.64989
 Alpha  occ. eigenvalues --   -0.64750  -0.62171  -0.61207  -0.59663  -0.57904
 Alpha  occ. eigenvalues --   -0.55628  -0.55216  -0.53312  -0.52932  -0.52710
 Alpha  occ. eigenvalues --   -0.52618  -0.50216  -0.48764  -0.48756  -0.48225
 Alpha  occ. eigenvalues --   -0.46966  -0.46117  -0.46056  -0.44765  -0.44103
 Alpha  occ. eigenvalues --   -0.37327  -0.36290
 Alpha virt. eigenvalues --    0.05089   0.11277   0.16507   0.20186   0.22744
 Alpha virt. eigenvalues --    0.23946   0.25776   0.26086   0.27137   0.28116
 Alpha virt. eigenvalues --    0.28706   0.29844   0.31370   0.31474   0.32163

 Mulliken charges:
               1
     1  C   -0.170795
     2  C   -0.219106
     3  C   -0.170820
     4  C    0.156690
     5  C   -0.168204
     6  C   -0.220032
     7  H    0.225541
     8  H    0.223258
     9  H    0.275549
    10  H    0.278632
    11  H    0.223910
    12  N    0.488198
    13  O   -0.460257
    14  O   -0.460763
    15  C   -0.297957
    16  C   -0.299911
    17  C   -0.475797
    18  H    0.150443
    19  H    0.146626
    20  H    0.153533
    21  H    0.152126
    22  H    0.154289
    23  H    0.155570
    24  H    0.161394
    25  C   -0.298381
    26  C   -0.299976
    27  C   -0.477901
    28  H    0.152915
    29  H    0.148790
    30  H    0.154259
    31  H    0.142684
    32  H    0.149322
    33  H    0.161339
    34  H    0.164830
 Sum of Mulliken charges =  -0.00000

 Dipole moment (field-independent basis, Debye):
    X=             -1.8623    Y=              4.8151    Z=              0.0865  Tot=              5.1634
 Quadrupole moment (field-independent basis, Debye-Ang):
   XX=           -104.0634   YY=            -95.2507   ZZ=            -93.4237
   XY=             18.3675   XZ=              2.2715   YZ=             -0.4451

 Normal termination of Gaussian 16 at Wed May  5 20:29:26 2021.
