 Gaussian 16, Revision A.03,
 Gaussian 16:  EM64L-G16RevA.03 25-Dec-2016

 -------------
 #p 6-31g* mp2
 -------------

 ------------------------------------------------------
 Input file generated by CHIRIPA (05-May-2021 14:51:13)
 ------------------------------------------------------
 Symbolic Z-matrix:
 Charge =  0 Multiplicity = 1

                         Standard orientation:
 ---------------------------------------------------------------------
 Center     Atomic      Atomic             Coordinates (Angstroms)
 Number     Number       Type             X           Y           Z
 ---------------------------------------------------------------------
      1          6           0        2.191041    0.349743   -0.309223
      2          6           0        3.456092    0.975110   -0.897907
      3          6           0        3.165949    1.879534   -2.096085
      4          1           0        1.677403   -0.227440   -1.090236
      5          1           0        1.501204    1.149946   -0.007238
      6          1           0        4.143919    0.173986   -1.197421
      7          1           0        3.966879    1.550714   -0.115352
      8          1           0        2.499190    2.698673   -1.807911
      9          1           0        2.677236    1.314122   -2.896129
     10          1           0        4.084184    2.316056   -2.501243
     11          6           0        2.464807   -0.557065    0.889309
     12          6           0        1.199757   -1.182432    1.477992
     13          6           0        1.489899   -2.086855    2.676170
     14          1           0        3.154645   -1.357267    0.587323
     15          1           0        2.978445    0.020118    1.670322
     16          1           0        0.688970   -1.758036    0.695437
     17          1           0        0.511930   -0.381307    1.777507
     18          1           0        1.978612   -1.521443    3.476214
     19          1           0        2.156658   -2.905994    2.387996
     20          1           0        0.571665   -2.523378    3.081328
     21          6           0       -2.648127    0.783636   -0.153896
     22          6           0       -2.162782    1.433833    1.142124
     23          6           0       -2.812405    2.793590    1.400668
     24          1           0       -2.438532    1.457728   -0.995688
     25          1           0       -3.739918    0.667222   -0.111031
     26          1           0       -1.072074    1.547722    1.097401
     27          1           0       -2.373384    0.758031    1.980906
     28          1           0       -3.900302    2.693498    1.471826
     29          1           0       -2.591598    3.487676    0.583301
     30          1           0       -2.451180    3.240481    2.332154
     31          6           0       -2.007721   -0.576314   -0.426189
     32          6           0       -2.493066   -1.226512   -1.722210
     33          6           0       -1.843443   -2.586269   -1.980754
     34          1           0       -0.915931   -0.459901   -0.469054
     35          1           0       -2.217316   -1.250407    0.415603
     36          1           0       -2.282464   -0.550710   -2.560991
     37          1           0       -3.583775   -1.340401   -1.677486
     38          1           0       -2.064250   -3.280354   -1.163386
     39          1           0       -0.755546   -2.486178   -2.051911
     40          1           0       -2.204668   -3.033161   -2.912239
 ---------------------------------------------------------------------

 SCF Done:  E(RHF) =  -470.731645684     A.U. after   11 cycles
 E2 =    -0.1585700923D+01 EUMP2 =    -0.47231734660663D+03

 The electronic state is 1-A.
 Alpha  occ. eigenvalues --  -11.21670 -11.21607 -11.21548 -11.21491 -11.21468
 Alpha  occ. eigenvalues --  -11.21370 -11.21333 -11.21183 -11.21135 -11.21095
 Alpha  occ. eigenvalues --  -11.21082 -11.21018  -1.08517  -1.08341  -1.03542
 Alpha  occ. eigenvalues --   -1.03517  -0.96003  -0.95961  -0.87025  -0.86976
 Alpha  occ. eigenvalues --   -0.79678  -0.79579  -0.78664  -0.77809  -0.65112
 Alpha  occ. eigenvalues --   -0.65020  -0.60982  -0.60883  -0.59386  -0.59321
 Alpha  occ. eigenvalues --   -0.57629  -0.57562  -0.55295  -0.55251  -0.52736
 Alpha  occ. eigenvalues --   -0.52646  -0.52453  -0.52367  -0.49946  -0.49915
 Alpha  occ. eigenvalues --   -0.48074  -0.47943  -0.46726  -0.46613  -0.46585
 Alpha  occ. eigenvalues --   -0.45679  -0.45595  -0.44716  -0.43796  -0.43729
 Alpha virt. eigenvalues --    0.20580   0.22218   0.23617   0.23943   0.24761
 Alpha virt. eigenvalues --    0.26258   0.26783   0.28048   0.28232   0.30716
 Alpha virt. eigenvalues --    0.31018   0.31124   0.31308   0.31866   0.32044

 Mulliken charges:
               1
     1  C   -0.304081
     2  C   -0.299322
     3  C   -0.475799
     4  H    0.149873
     5  H    0.151678
     6  H    0.152437
     7  H    0.152412
     8  H    0.155003
     9  H    0.155053
    10  H    0.160683
    11  C   -0.297469
    12  C   -0.308702
    13  C   -0.475042
    14  H    0.149338
    15  H    0.149359
    16  H    0.156378
    17  H    0.158970
    18  H    0.154550
    19  H    0.154698
    20  H    0.159794
    21  C   -0.297255
    22  C   -0.305273
    23  C   -0.475339
    24  H    0.149152
    25  H    0.148948
    26  H    0.155733
    27  H    0.152012
    28  H    0.155450
    29  H    0.155098
    30  H    0.159875
    31  C   -0.307306
    32  C   -0.299121
    33  C   -0.476833
    34  H    0.163690
    35  H    0.148564
    36  H    0.151430
    37  H    0.151398
    38  H    0.155313
    39  H    0.154122
    40  H    0.160533
 Sum of Mulliken charges =  -0.00000

 Dipole moment (field-independent basis, Debye):
    X=              0.0240    Y=              0.0071    Z=              0.0027  Tot=              0.0251
 Quadrupole moment (field-independent basis, Debye-Ang):
   XX=            -84.4492   YY=            -85.4643   ZZ=            -85.0862
   XY=              0.7301   XZ=             -0.4497   YZ=              0.5423

 Normal termination of Gaussian 16 at Wed May  5 21:34:12 2021.
