 Gaussian 16, Revision A.03,
 Gaussian 16:  EM64L-G16RevA.03 25-Dec-2016

 -------------
 #p 6-31g* mp2
 -------------

 ------------------------------------------------------
 Input file generated by CHIRIPA (05-May-2021 14:53:15)
 ------------------------------------------------------
 Symbolic Z-matrix:
 Charge =  0 Multiplicity = 1

                         Standard orientation:
 ---------------------------------------------------------------------
 Center     Atomic      Atomic             Coordinates (Angstroms)
 Number     Number       Type             X           Y           Z
 ---------------------------------------------------------------------
      1          6           0        4.102509    0.881250   -0.335469
      2          6           0        2.673975    1.164880   -0.801119
      3          6           0        2.412172    2.653420   -1.032429
      4          1           0        4.296369    1.437536    0.591844
      5          1           0        4.808181    1.266555   -1.084442
      6          1           0        1.971178    0.777923   -0.052149
      7          1           0        2.483429    0.607704   -1.727328
      8          1           0        3.090131    3.049830   -1.795208
      9          1           0        2.574969    3.221016   -0.110511
     10          1           0        1.385061    2.833496   -1.364807
     11          6           0        4.379592   -0.602494   -0.099973
     12          6           0        5.808125   -0.886124    0.365677
     13          6           0        6.069928   -2.374663    0.596988
     14          1           0        3.673919   -0.987799    0.649000
     15          1           0        4.185731   -1.158780   -1.027286
     16          1           0        5.998671   -0.328948    1.291886
     17          1           0        6.510922   -0.499167   -0.383293
     18          1           0        5.907132   -2.942260   -0.324930
     19          1           0        5.391970   -2.771074    1.359767
     20          1           0        7.097040   -2.554740    0.929365
     21          6           0       -5.360910   -1.134944   -0.888449
     22          6           0       -5.452554   -0.526857    0.367877
     23          6           0       -4.324552    0.044868    0.963939
     24          6           0       -3.115367   -0.009694    0.272431
     25          6           0       -2.992027   -0.608378   -0.980428
     26          6           0       -4.133104   -1.173694   -1.557413
     27          1           0       -6.242246   -1.576584   -1.344075
     28          1           0       -6.404779   -0.495288    0.889715
     29          1           0       -4.367236    0.521953    1.935529
     30          1           0       -2.029053   -0.624301   -1.476254
     31          1           0       -4.058969   -1.645280   -2.533197
     32          7           0       -1.914282    0.592174    0.893356
     33          8           0       -0.860596    0.530978    0.263564
     34          8           0       -2.049300    1.113719    1.998073
 ---------------------------------------------------------------------

 SCF Done:  E(RHF) =  -669.536117792     A.U. after   15 cycles
 E2 =    -0.2090880556D+01 EUMP2 =    -0.67162699834848D+03

 The electronic state is 1-A.
 Alpha  occ. eigenvalues --  -20.60950 -20.60943 -15.85985 -11.31298 -11.27861
 Alpha  occ. eigenvalues --  -11.27856 -11.27598 -11.26867 -11.26857 -11.20919
 Alpha  occ. eigenvalues --  -11.20525 -11.20519 -11.20319 -11.20117 -11.19795
 Alpha  occ. eigenvalues --   -1.60013  -1.39568  -1.19466  -1.08873  -1.07453
 Alpha  occ. eigenvalues --   -1.04861  -1.02524  -0.95716  -0.95020  -0.86262
 Alpha  occ. eigenvalues --   -0.86048  -0.82551  -0.78622  -0.77608  -0.77206
 Alpha  occ. eigenvalues --   -0.72208  -0.71327  -0.70575  -0.65123  -0.64865
 Alpha  occ. eigenvalues --   -0.64085  -0.62208  -0.59915  -0.58411  -0.56594
 Alpha  occ. eigenvalues --   -0.55366  -0.54326  -0.53194  -0.52953  -0.51722
 Alpha  occ. eigenvalues --   -0.51446  -0.49043  -0.48961  -0.48927  -0.46928
 Alpha  occ. eigenvalues --   -0.45647  -0.44987  -0.44787  -0.44592  -0.42794
 Alpha  occ. eigenvalues --   -0.37446  -0.36463
 Alpha virt. eigenvalues --    0.04924   0.11193   0.16421   0.21315   0.23786
 Alpha virt. eigenvalues --    0.25276   0.27241   0.27611   0.28043   0.28638
 Alpha virt. eigenvalues --    0.28913   0.30892   0.32294   0.32338   0.32797

 Mulliken charges:
               1
     1  C   -0.297844
     2  C   -0.306528
     3  C   -0.473385
     4  H    0.148998
     5  H    0.144207
     6  H    0.179700
     7  H    0.142776
     8  H    0.146539
     9  H    0.154807
    10  H    0.162544
    11  C   -0.297675
    12  C   -0.298855
    13  C   -0.475135
    14  H    0.152278
    15  H    0.146100
    16  H    0.151773
    17  H    0.149941
    18  H    0.153228
    19  H    0.155066
    20  H    0.158041
    21  C   -0.170574
    22  C   -0.218619
    23  C   -0.170468
    24  C    0.157459
    25  C   -0.170910
    26  C   -0.218551
    27  H    0.226011
    28  H    0.223809
    29  H    0.275836
    30  H    0.276117
    31  H    0.223892
    32  N    0.493278
    33  O   -0.464600
    34  O   -0.459255
 Sum of Mulliken charges =  -0.00000

 Dipole moment (field-independent basis, Debye):
    X=             -4.5792    Y=             -2.1338    Z=             -2.0695  Tot=              5.4594
 Quadrupole moment (field-independent basis, Debye-Ang):
   XX=            -68.6482   YY=            -96.5948   ZZ=            -92.3502
   XY=              6.2931   XZ=              3.3193   YZ=              1.3159

 Normal termination of Gaussian 16 at Thu May  6 12:11:12 2021.
