 Gaussian 16, Revision A.03,
 Gaussian 16:  EM64L-G16RevA.03 25-Dec-2016

 -------------
 #p 6-31g* mp2
 -------------

 ------------------------------------------------------
 Input file generated by CHIRIPA (05-May-2021 14:51:07)
 ------------------------------------------------------
 Symbolic Z-matrix:
 Charge =  0 Multiplicity = 1

                         Standard orientation:
 ---------------------------------------------------------------------
 Center     Atomic      Atomic             Coordinates (Angstroms)
 Number     Number       Type             X           Y           Z
 ---------------------------------------------------------------------
      1          6           0       -3.706490   -0.577943    0.073271
      2          6           0       -2.516724   -1.491962   -0.221707
      3          6           0       -2.843599   -2.971784   -0.019043
      4          1           0       -4.040115   -0.743009    1.106901
      5          1           0       -4.547023   -0.860923   -0.575437
      6          1           0       -1.678237   -1.206442    0.426393
      7          1           0       -2.185772   -1.324562   -1.254695
      8          1           0       -3.663419   -3.278771   -0.676505
      9          1           0       -3.153000   -3.159980    1.014134
     10          1           0       -1.979114   -3.607171   -0.235393
     11          6           0       -3.395311    0.904504   -0.124839
     12          6           0       -4.585076    1.818523    0.170138
     13          6           0       -4.258201    3.298345   -0.032526
     14          1           0       -2.554778    1.187484    0.523868
     15          1           0       -3.061686    1.069570   -1.158470
     16          1           0       -4.916029    1.651123    1.203126
     17          1           0       -5.423564    1.533003   -0.477961
     18          1           0       -3.948801    3.486541   -1.065703
     19          1           0       -3.438382    3.605332    0.624936
     20          1           0       -5.122687    3.933732    0.183825
     21          6           0        4.053473    0.288638    0.381624
     22          6           0        5.039503    0.966520   -0.570326
     23          6           0        6.038562    1.867339    0.156447
     24          1           0        3.511102    1.058773    0.947018
     25          1           0        4.613933   -0.303406    1.118348
     26          1           0        4.477291    1.556002   -1.305885
     27          1           0        5.579453    0.194687   -1.133657
     28          1           0        6.624740    1.289018    0.877932
     29          1           0        5.516315    2.658067    0.704725
     30          1           0        6.733925    2.341840   -0.542966
     31          6           0        3.048327   -0.615199   -0.330055
     32          6           0        2.062299   -1.293082    0.621895
     33          6           0        1.063238   -2.193900   -0.104879
     34          1           0        2.487867   -0.023154   -1.066781
     35          1           0        3.590699   -1.385334   -0.895449
     36          1           0        1.522347   -0.521248    1.185226
     37          1           0        2.624510   -1.882562    1.357454
     38          1           0        1.585486   -2.984627   -0.653157
     39          1           0        0.477061   -1.615579   -0.826363
     40          1           0        0.367876   -2.668401    0.594535
 ---------------------------------------------------------------------

 SCF Done:  E(RHF) =  -470.732090426     A.U. after   11 cycles
 E2 =    -0.1583475516D+01 EUMP2 =    -0.47231556594188D+03

 The electronic state is 1-A.
 Alpha  occ. eigenvalues --  -11.21599 -11.21597 -11.21592 -11.21493 -11.21398
 Alpha  occ. eigenvalues --  -11.21385 -11.21338 -11.21308 -11.21077 -11.21068
 Alpha  occ. eigenvalues --  -11.21007 -11.20964  -1.08438  -1.08387  -1.03583
 Alpha  occ. eigenvalues --   -1.03438  -0.96046  -0.95876  -0.86990  -0.86970
 Alpha  occ. eigenvalues --   -0.79702  -0.79466  -0.78270  -0.78179  -0.65091
 Alpha  occ. eigenvalues --   -0.65007  -0.61035  -0.60842  -0.59581  -0.59113
 Alpha  occ. eigenvalues --   -0.57665  -0.57475  -0.55284  -0.55193  -0.52814
 Alpha  occ. eigenvalues --   -0.52537  -0.52398  -0.52271  -0.49974  -0.49868
 Alpha  occ. eigenvalues --   -0.47974  -0.47790  -0.46646  -0.46557  -0.45824
 Alpha  occ. eigenvalues --   -0.45742  -0.45678  -0.45585  -0.43772  -0.43722
 Alpha virt. eigenvalues --    0.21772   0.23117   0.23528   0.24843   0.26137
 Alpha virt. eigenvalues --    0.26466   0.27012   0.27542   0.27631   0.29223
 Alpha virt. eigenvalues --    0.30221   0.30873   0.31455   0.31640   0.32398

 Mulliken charges:
               1
     1  C   -0.297817
     2  C   -0.301688
     3  C   -0.479062
     4  H    0.149226
     5  H    0.149050
     6  H    0.157523
     7  H    0.150852
     8  H    0.155063
     9  H    0.154333
    10  H    0.163554
    11  C   -0.298161
    12  C   -0.299537
    13  C   -0.475680
    14  H    0.148848
    15  H    0.149178
    16  H    0.151963
    17  H    0.152029
    18  H    0.155068
    19  H    0.154974
    20  H    0.160289
    21  C   -0.298230
    22  C   -0.299643
    23  C   -0.475695
    24  H    0.149520
    25  H    0.149487
    26  H    0.151956
    27  H    0.151928
    28  H    0.155156
    29  H    0.155158
    30  H    0.160247
    31  C   -0.298492
    32  C   -0.301128
    33  C   -0.480551
    34  H    0.149762
    35  H    0.149728
    36  H    0.151397
    37  H    0.151835
    38  H    0.154253
    39  H    0.160645
    40  H    0.162659
 Sum of Mulliken charges =  -0.00000

 Dipole moment (field-independent basis, Debye):
    X=              0.0078    Y=             -0.0144    Z=             -0.0087  Tot=              0.0185
 Quadrupole moment (field-independent basis, Debye-Ang):
   XX=            -85.1381   YY=            -85.8805   ZZ=            -83.9791
   XY=             -1.0968   XZ=              0.0595   YZ=             -0.1500

 Normal termination of Gaussian 16 at Thu May  6 13:11:16 2021.
