 Gaussian 16, Revision A.03,
 Gaussian 16:  EM64L-G16RevA.03 25-Dec-2016

 -------------
 #p 6-31g* mp2
 -------------

 ------------------------------------------------------
 Input file generated by CHIRIPA (05-May-2021 14:53:18)
 ------------------------------------------------------
 Symbolic Z-matrix:
 Charge =  0 Multiplicity = 1

                         Standard orientation:
 ---------------------------------------------------------------------
 Center     Atomic      Atomic             Coordinates (Angstroms)
 Number     Number       Type             X           Y           Z
 ---------------------------------------------------------------------
      1          6           0       -5.334209   -0.550351   -0.166010
      2          6           0       -6.380468    0.361918   -0.807176
      3          6           0       -7.527159   -0.416338   -1.453096
      4          1           0       -4.933079   -1.230862   -0.929517
      5          1           0       -5.821908   -1.181330    0.589908
      6          1           0       -5.890688    0.991960   -1.560687
      7          1           0       -6.779016    1.040465   -0.042096
      8          1           0       -8.041854   -1.032555   -0.708807
      9          1           0       -7.148479   -1.081335   -2.236027
     10          1           0       -8.263559    0.255279   -1.905319
     11          6           0       -4.181532    0.212994    0.483888
     12          6           0       -3.135274   -0.699275    1.125055
     13          6           0       -1.988583    0.078981    1.770975
     14          1           0       -3.693834    0.843973   -0.272029
     15          1           0       -4.582663    0.893505    1.247396
     16          1           0       -2.736725   -1.377822    0.359974
     17          1           0       -3.625053   -1.329317    1.878566
     18          1           0       -2.367263    0.743978    2.553906
     19          1           0       -1.473887    0.695197    1.026686
     20          1           0       -1.252182   -0.592636    2.223198
     21          6           0        2.084694    2.015599    0.266268
     22          6           0        1.814807    0.739487    0.771462
     23          6           0        2.712130   -0.311775    0.561205
     24          6           0        3.874900   -0.050341   -0.161918
     25          6           0        4.172005    1.210092   -0.677988
     26          6           0        3.260358    2.246422   -0.455572
     27          1           0        1.382068    2.826445    0.434324
     28          1           0        0.902564    0.557318    1.332418
     29          1           0        2.528085   -1.309394    0.941075
     30          1           0        5.089731    1.361028   -1.233341
     31          1           0        3.472565    3.236450   -0.849091
     32          7           0        4.832438   -1.155361   -0.390944
     33          8           0        5.849786   -0.899151   -1.031254
     34          8           0        4.547476   -2.256761    0.074193
 ---------------------------------------------------------------------

 SCF Done:  E(RHF) =  -669.535322872     A.U. after   15 cycles
 E2 =    -0.2091138300D+01 EUMP2 =    -0.67162646117173D+03

 The electronic state is 1-A.
 Alpha  occ. eigenvalues --  -20.60708 -20.60703 -15.85759 -11.31108 -11.27674
 Alpha  occ. eigenvalues --  -11.27650 -11.27400 -11.26694 -11.26580 -11.22418
 Alpha  occ. eigenvalues --  -11.22264 -11.22050 -11.22025 -11.21869 -11.21407
 Alpha  occ. eigenvalues --   -1.59784  -1.39338  -1.19271  -1.09052  -1.08671
 Alpha  occ. eigenvalues --   -1.04670  -1.04199  -0.96685  -0.95511  -0.87724
 Alpha  occ. eigenvalues --   -0.86063  -0.82342  -0.80280  -0.78824  -0.77390
 Alpha  occ. eigenvalues --   -0.71979  -0.71107  -0.70387  -0.65691  -0.64920
 Alpha  occ. eigenvalues --   -0.64691  -0.62096  -0.61531  -0.60066  -0.58261
 Alpha  occ. eigenvalues --   -0.55986  -0.55168  -0.53489  -0.53119  -0.52998
 Alpha  occ. eigenvalues --   -0.52647  -0.50580  -0.48736  -0.48735  -0.48579
 Alpha  occ. eigenvalues --   -0.47268  -0.46377  -0.46270  -0.44747  -0.44437
 Alpha  occ. eigenvalues --   -0.37256  -0.36267
 Alpha virt. eigenvalues --    0.05134   0.11328   0.16629   0.20671   0.22437
 Alpha virt. eigenvalues --    0.23831   0.25903   0.26149   0.26751   0.27816
 Alpha virt. eigenvalues --    0.28882   0.30029   0.30933   0.31234   0.32156

 Mulliken charges:
               1
     1  C   -0.299071
     2  C   -0.300047
     3  C   -0.476086
     4  H    0.151367
     5  H    0.150957
     6  H    0.151948
     7  H    0.152134
     8  H    0.155964
     9  H    0.156177
    10  H    0.161282
    11  C   -0.299377
    12  C   -0.299190
    13  C   -0.483167
    14  H    0.149188
    15  H    0.150246
    16  H    0.155405
    17  H    0.155906
    18  H    0.159574
    19  H    0.150602
    20  H    0.158353
    21  C   -0.174119
    22  C   -0.226287
    23  C   -0.173806
    24  C    0.158921
    25  C   -0.171611
    26  C   -0.218284
    27  H    0.225375
    28  H    0.237686
    29  H    0.275165
    30  H    0.275204
    31  H    0.222923
    32  N    0.488052
    33  O   -0.460742
    34  O   -0.460640
 Sum of Mulliken charges =  -0.00000

 Dipole moment (field-independent basis, Debye):
    X=             -3.6400    Y=              3.8544    Z=              0.8119  Tot=              5.3634
 Quadrupole moment (field-independent basis, Debye-Ang):
   XX=           -119.4523   YY=            -93.8007   ZZ=            -93.8275
   XY=             17.2514   XZ=              0.9875   YZ=             -2.7136

 Normal termination of Gaussian 16 at Thu May  6 14:00:40 2021.
