 Gaussian 16, Revision A.03,
 Gaussian 16:  EM64L-G16RevA.03 25-Dec-2016

 -------------
 #p 6-31g* mp2
 -------------

 ------------------------------------------------------
 Input file generated by CHIRIPA (05-May-2021 14:55:21)
 ------------------------------------------------------
 Symbolic Z-matrix:
 Charge =  0 Multiplicity = 1

                         Standard orientation:
 ---------------------------------------------------------------------
 Center     Atomic      Atomic             Coordinates (Angstroms)
 Number     Number       Type             X           Y           Z
 ---------------------------------------------------------------------
      1          6           0        3.060452    2.637694    0.490755
      2          6           0        2.262885    1.771430    1.245734
      3          6           0        2.213441    0.407285    0.943721
      4          6           0        2.977822   -0.058686   -0.124868
      5          6           0        3.782159    0.779194   -0.895769
      6          6           0        3.816211    2.139690   -0.575706
      7          1           0        3.092883    3.695977    0.732377
      8          1           0        1.674898    2.155393    2.074521
      9          1           0        1.604551   -0.285584    1.511703
     10          1           0        4.357184    0.367005   -1.716052
     11          1           0        4.436510    2.810112   -1.163762
     12          7           0        2.933625   -1.500914   -0.454150
     13          8           0        3.616425   -1.886584   -1.400554
     14          8           0        2.217020   -2.218353    0.240397
     15          6           0       -4.563699   -0.255927   -0.085750
     16          6           0       -5.132256    1.094408   -0.523157
     17          6           0       -6.619237    1.024649   -0.872176
     18          1           0       -4.719330   -0.989532   -0.888587
     19          1           0       -5.128695   -0.619505    0.783724
     20          1           0       -4.565460    1.455983   -1.390694
     21          1           0       -4.975081    1.824931    0.280739
     22          1           0       -7.202202    0.687935   -0.008824
     23          1           0       -6.790253    0.316890   -1.689753
     24          1           0       -7.005068    2.000803   -1.182206
     25          6           0       -3.078173   -0.202339    0.266483
     26          6           0       -2.509615   -1.552674    0.703889
     27          6           0       -1.022633   -1.482915    1.052909
     28          1           0       -2.513175    0.161239   -0.602991
     29          1           0       -2.922540    0.531266    1.069320
     30          1           0       -2.666790   -2.283197   -0.100006
     31          1           0       -3.076412   -1.914249    1.571427
     32          1           0       -0.851618   -0.775156    1.870486
     33          1           0       -0.439669   -1.146200    0.189556
     34          1           0       -0.636803   -2.459068    1.362939
 ---------------------------------------------------------------------

 SCF Done:  E(RHF) =  -669.534768280     A.U. after   15 cycles
 E2 =    -0.2092482061D+01 EUMP2 =    -0.67162725034119D+03

 The electronic state is 1-A.
 Alpha  occ. eigenvalues --  -20.60788 -20.60771 -15.85815 -11.31138 -11.27730
 Alpha  occ. eigenvalues --  -11.27646 -11.27471 -11.26732 -11.26706 -11.21599
 Alpha  occ. eigenvalues --  -11.21352 -11.21316 -11.21261 -11.21065 -11.20686
 Alpha  occ. eigenvalues --   -1.59854  -1.39409  -1.19321  -1.08728  -1.08328
 Alpha  occ. eigenvalues --   -1.04718  -1.03391  -0.95870  -0.95542  -0.86887
 Alpha  occ. eigenvalues --   -0.86105  -0.82401  -0.79501  -0.78172  -0.77407
 Alpha  occ. eigenvalues --   -0.72044  -0.71179  -0.70436  -0.65000  -0.64937
 Alpha  occ. eigenvalues --   -0.64727  -0.62081  -0.60791  -0.59185  -0.57449
 Alpha  occ. eigenvalues --   -0.55240  -0.55142  -0.53079  -0.52926  -0.52453
 Alpha  occ. eigenvalues --   -0.52152  -0.49843  -0.48804  -0.48774  -0.47767
 Alpha  occ. eigenvalues --   -0.46527  -0.45700  -0.45634  -0.44722  -0.43601
 Alpha  occ. eigenvalues --   -0.37311  -0.36304
 Alpha virt. eigenvalues --    0.05063   0.11281   0.16549   0.21212   0.22959
 Alpha virt. eigenvalues --    0.24449   0.26013   0.26950   0.27654   0.27868
 Alpha virt. eigenvalues --    0.29081   0.30763   0.31498   0.31803   0.32278

 Mulliken charges:
               1
     1  C   -0.170369
     2  C   -0.221414
     3  C   -0.173173
     4  C    0.155105
     5  C   -0.170581
     6  C   -0.219083
     7  H    0.225406
     8  H    0.223266
     9  H    0.287685
    10  H    0.275271
    11  H    0.223162
    12  N    0.488268
    13  O   -0.460493
    14  O   -0.459866
    15  C   -0.298094
    16  C   -0.299287
    17  C   -0.475618
    18  H    0.151107
    19  H    0.149380
    20  H    0.151532
    21  H    0.149983
    22  H    0.155175
    23  H    0.155969
    24  H    0.159463
    25  C   -0.297814
    26  C   -0.301825
    27  C   -0.475261
    28  H    0.149191
    29  H    0.144804
    30  H    0.155688
    31  H    0.150280
    32  H    0.136688
    33  H    0.159481
    34  H    0.175971
 Sum of Mulliken charges =  -0.00000

 Dipole moment (field-independent basis, Debye):
    X=              0.2132    Y=              4.9274    Z=              1.1181  Tot=              5.0572
 Quadrupole moment (field-independent basis, Debye-Ang):
   XX=            -93.7367   YY=            -95.4884   ZZ=            -91.8843
   XY=             16.0901   XZ=              0.2912   YZ=             -1.1552

 Normal termination of Gaussian 16 at Thu May  6 20:44:56 2021.
