 Gaussian 16, Revision A.03,
 Gaussian 16:  EM64L-G16RevA.03 25-Dec-2016

 -------------
 #p 6-31g* mp2
 -------------

 ------------------------------------------------------
 Input file generated by CHIRIPA (05-May-2021 14:55:20)
 ------------------------------------------------------
 Symbolic Z-matrix:
 Charge =  0 Multiplicity = 1

                         Standard orientation:
 ---------------------------------------------------------------------
 Center     Atomic      Atomic             Coordinates (Angstroms)
 Number     Number       Type             X           Y           Z
 ---------------------------------------------------------------------
      1          6           0       -2.057318    2.050208    0.728353
      2          6           0       -2.770196    1.982045   -0.473180
      3          6           0       -3.474103    0.823916   -0.816401
      4          6           0       -3.443426   -0.252112    0.069326
      5          6           0       -2.742488   -0.214840    1.273730
      6          6           0       -2.045760    0.953482    1.596442
      7          1           0       -1.513295    2.953829    0.987009
      8          1           0       -2.780944    2.832235   -1.149276
      9          1           0       -4.034212    0.744111   -1.740157
     10          1           0       -2.750448   -1.078595    1.927397
     11          1           0       -1.492992    1.003584    2.530242
     12          7           0       -4.184821   -1.483567   -0.283171
     13          8           0       -4.142029   -2.417835    0.514293
     14          8           0       -4.794679   -1.491194   -1.350247
     15          6           0        5.008663    0.038114   -0.258165
     16          6           0        5.639481   -1.264145    0.235974
     17          6           0        7.155331   -1.298709    0.038993
     18          1           0        5.244636    0.171523   -1.322807
     19          1           0        5.467635    0.884020    0.272104
     20          1           0        5.178479   -2.107437   -0.294074
     21          1           0        5.401819   -1.394565    1.299518
     22          1           0        7.633174   -0.476691    0.581720
     23          1           0        7.408566   -1.193613   -1.020926
     24          1           0        7.585636   -2.238418    0.399051
     25          6           0        3.493699    0.087720   -0.068036
     26          6           0        2.862881    1.389980   -0.562175
     27          6           0        1.347032    1.424543   -0.365193
     28          1           0        3.034727   -0.758185   -0.598304
     29          1           0        3.257727   -0.045689    0.996607
     30          1           0        3.100543    1.520400   -1.625718
     31          1           0        3.323884    2.233272   -0.032126
     32          1           0        1.093796    1.319448    0.694726
     33          1           0        0.869187    0.602525   -0.907920
     34          1           0        0.916726    2.364253   -0.725252
 ---------------------------------------------------------------------

 SCF Done:  E(RHF) =  -669.535262711     A.U. after   15 cycles
 E2 =    -0.2091704045D+01 EUMP2 =    -0.67162696675617D+03

 The electronic state is 1-A.
 Alpha  occ. eigenvalues --  -20.60734 -20.60729 -15.85789 -11.31137 -11.27724
 Alpha  occ. eigenvalues --  -11.27719 -11.27461 -11.26726 -11.26717 -11.22039
 Alpha  occ. eigenvalues --  -11.21832 -11.21753 -11.21657 -11.21635 -11.21263
 Alpha  occ. eigenvalues --   -1.59811  -1.39364  -1.19322  -1.08780  -1.08710
 Alpha  occ. eigenvalues --   -1.04726  -1.03885  -0.96348  -0.95548  -0.87362
 Alpha  occ. eigenvalues --   -0.86126  -0.82386  -0.79950  -0.78571  -0.77434
 Alpha  occ. eigenvalues --   -0.72008  -0.71135  -0.70434  -0.65402  -0.64977
 Alpha  occ. eigenvalues --   -0.64735  -0.62079  -0.61280  -0.59731  -0.57949
 Alpha  occ. eigenvalues --   -0.55640  -0.55222  -0.53383  -0.52899  -0.52822
 Alpha  occ. eigenvalues --   -0.52583  -0.50280  -0.48765  -0.48762  -0.48260
 Alpha  occ. eigenvalues --   -0.46979  -0.46117  -0.46032  -0.44774  -0.44149
 Alpha  occ. eigenvalues --   -0.37227  -0.36321
 Alpha virt. eigenvalues --    0.05102   0.11252   0.16581   0.20835   0.22638
 Alpha virt. eigenvalues --    0.24053   0.26183   0.26796   0.27071   0.27435
 Alpha virt. eigenvalues --    0.28935   0.30329   0.31231   0.31509   0.31880

 Mulliken charges:
               1
     1  C   -0.163546
     2  C   -0.219662
     3  C   -0.171017
     4  C    0.157931
     5  C   -0.171236
     6  C   -0.218479
     7  H    0.226033
     8  H    0.223060
     9  H    0.275401
    10  H    0.275414
    11  H    0.222699
    12  N    0.488109
    13  O   -0.460657
    14  O   -0.460721
    15  C   -0.298425
    16  C   -0.299939
    17  C   -0.475889
    18  H    0.150506
    19  H    0.149003
    20  H    0.153331
    21  H    0.151603
    22  H    0.154901
    23  H    0.155699
    24  H    0.161241
    25  C   -0.298377
    26  C   -0.301238
    27  C   -0.472014
    28  H    0.151948
    29  H    0.147921
    30  H    0.153321
    31  H    0.150251
    32  H    0.149119
    33  H    0.161327
    34  H    0.152382
 Sum of Mulliken charges =  -0.00000

 Dipole moment (field-independent basis, Debye):
    X=              2.6571    Y=              4.3111    Z=              1.2183  Tot=              5.2086
 Quadrupole moment (field-independent basis, Debye-Ang):
   XX=           -114.2094   YY=            -96.5798   ZZ=            -90.2913
   XY=            -16.4419   XZ=             -2.5219   YZ=             -1.6977

 Normal termination of Gaussian 16 at Wed May  5 22:10:30 2021.
