 Gaussian 16, Revision A.03,
 Gaussian 16:  EM64L-G16RevA.03 25-Dec-2016

 -------------
 #p 6-31g* mp2
 -------------

 ------------------------------------------------------
 Input file generated by CHIRIPA (05-May-2021 14:55:19)
 ------------------------------------------------------
 Symbolic Z-matrix:
 Charge =  0 Multiplicity = 1

                         Standard orientation:
 ---------------------------------------------------------------------
 Center     Atomic      Atomic             Coordinates (Angstroms)
 Number     Number       Type             X           Y           Z
 ---------------------------------------------------------------------
      1          6           0        5.239629   -1.265840    0.135390
      2          6           0        4.069010   -1.978490    0.415216
      3          6           0        2.819975   -1.357648    0.320271
      4          6           0        2.778216   -0.016859   -0.058982
      5          6           0        3.926688    0.719976   -0.344245
      6          6           0        5.164864    0.078748   -0.242780
      7          1           0        6.205692   -1.756044    0.211678
      8          1           0        4.124047   -3.022821    0.709136
      9          1           0        1.897976   -1.885706    0.531196
     10          1           0        3.839926    1.759905   -0.634831
     11          1           0        6.072331    0.634681   -0.460694
     12          7           0        1.461667    0.651189   -0.162948
     13          8           0        1.451807    1.833365   -0.499104
     14          8           0        0.464544   -0.020019    0.093690
     15          6           0       -4.514523   -0.182218    0.017729
     16          6           0       -4.418505   -1.692915   -0.198046
     17          6           0       -5.788431   -2.368388   -0.267572
     18          1           0       -5.069536    0.014746    0.945151
     19          1           0       -5.101961    0.261083   -0.798234
     20          1           0       -3.830253   -2.133053    0.617340
     21          1           0       -3.863490   -1.886311   -1.124962
     22          1           0       -6.379566   -1.956664   -1.091978
     23          1           0       -6.346139   -2.204809    0.660223
     24          1           0       -5.696356   -3.447956   -0.422216
     25          6           0       -3.153186    0.507241    0.089400
     26          6           0       -3.249205    2.017938    0.305176
     27          6           0       -1.879279    2.693411    0.374703
     28          1           0       -2.565749    0.063940    0.905364
     29          1           0       -2.598173    0.310277   -0.838021
     30          1           0       -3.804220    2.211333    1.232092
     31          1           0       -3.837457    2.458076   -0.510210
     32          1           0       -1.321570    2.529832   -0.553092
     33          1           0       -1.288144    2.281686    1.199108
     34          1           0       -1.971354    3.772978    0.529347
 ---------------------------------------------------------------------

 SCF Done:  E(RHF) =  -669.535709524     A.U. after   15 cycles
 E2 =    -0.2092600700D+01 EUMP2 =    -0.67162831022370D+03

 The electronic state is 1-A.
 Alpha  occ. eigenvalues --  -20.61034 -20.61029 -15.86043 -11.31351 -11.27909
 Alpha  occ. eigenvalues --  -11.27905 -11.27642 -11.26909 -11.26899 -11.20618
 Alpha  occ. eigenvalues --  -11.20315 -11.20118 -11.19846 -11.19567 -11.18734
 Alpha  occ. eigenvalues --   -1.60080  -1.39636  -1.19515  -1.08923  -1.06990
 Alpha  occ. eigenvalues --   -1.04906  -1.02065  -0.95768  -0.94480  -0.86308
 Alpha  occ. eigenvalues --   -0.85484  -0.82603  -0.78209  -0.77657  -0.76660
 Alpha  occ. eigenvalues --   -0.72246  -0.71393  -0.70622  -0.65169  -0.64908
 Alpha  occ. eigenvalues --   -0.63650  -0.62253  -0.59486  -0.57970  -0.56098
 Alpha  occ. eigenvalues --   -0.55399  -0.53777  -0.53240  -0.52997  -0.51242
 Alpha  occ. eigenvalues --   -0.50929  -0.49111  -0.49028  -0.48349  -0.46355
 Alpha  occ. eigenvalues --   -0.45268  -0.45065  -0.44112  -0.44068  -0.42311
 Alpha  occ. eigenvalues --   -0.37492  -0.36506
 Alpha virt. eigenvalues --    0.04850   0.11149   0.16352   0.21285   0.24130
 Alpha virt. eigenvalues --    0.25837   0.27211   0.28031   0.28156   0.28894
 Alpha virt. eigenvalues --    0.29571   0.30893   0.32377   0.32823   0.32901

 Mulliken charges:
               1
     1  C   -0.170483
     2  C   -0.218586
     3  C   -0.170917
     4  C    0.158743
     5  C   -0.170600
     6  C   -0.218593
     7  H    0.226201
     8  H    0.224038
     9  H    0.275949
    10  H    0.276039
    11  H    0.224030
    12  N    0.489156
    13  O   -0.457246
    14  O   -0.459375
    15  C   -0.298021
    16  C   -0.297526
    17  C   -0.474644
    18  H    0.144924
    19  H    0.145229
    20  H    0.150077
    21  H    0.151058
    22  H    0.153658
    23  H    0.153317
    24  H    0.156105
    25  C   -0.293180
    26  C   -0.301966
    27  C   -0.468483
    28  H    0.155043
    29  H    0.155376
    30  H    0.142674
    31  H    0.143889
    32  H    0.173101
    33  H    0.155644
    34  H    0.145369
 Sum of Mulliken charges =  -0.00000

 Dipole moment (field-independent basis, Debye):
    X=              5.1894    Y=             -2.3975    Z=              0.2988  Tot=              5.7243
 Quadrupole moment (field-independent basis, Debye-Ang):
   XX=            -71.2877   YY=            -92.4279   ZZ=            -94.3519
   XY=             -4.9402   XZ=              0.1493   YZ=             -1.7046

 Normal termination of Gaussian 16 at Thu May  6 15:42:10 2021.
