 Gaussian 16, Revision A.03,
 Gaussian 16:  EM64L-G16RevA.03 25-Dec-2016

 -------------
 #p 6-31g* mp2
 -------------

 ------------------------------------------------------
 Input file generated by CHIRIPA (05-May-2021 14:57:22)
 ------------------------------------------------------
 Symbolic Z-matrix:
 Charge =  0 Multiplicity = 1

                         Standard orientation:
 ---------------------------------------------------------------------
 Center     Atomic      Atomic             Coordinates (Angstroms)
 Number     Number       Type             X           Y           Z
 ---------------------------------------------------------------------
      1          6           0        4.085257   -2.146561   -0.149251
      2          6           0        4.973378   -1.067919   -0.214784
      3          6           0        4.494529    0.245212   -0.245439
      4          6           0        3.115263    0.444160   -0.208936
      5          6           0        2.205043   -0.609650   -0.143573
      6          6           0        2.706355   -1.914393   -0.113918
      7          1           0        4.465964   -3.163375   -0.125826
      8          1           0        6.044754   -1.245230   -0.242344
      9          1           0        5.159703    1.098673   -0.296108
     10          1           0        1.142337   -0.401356   -0.117365
     11          1           0        2.014283   -2.750151   -0.063018
     12          7           0        2.596436    1.829873   -0.240860
     13          8           0        1.376831    1.978517   -0.207634
     14          8           0        3.419210    2.741113   -0.298505
     15          6           0       -1.102138   -0.727377    1.507488
     16          6           0       -1.520710   -1.589258    0.488429
     17          6           0       -2.681910   -1.315735   -0.240507
     18          6           0       -3.403659   -0.166318    0.077627
     19          6           0       -3.012494    0.711795    1.087180
     20          6           0       -1.848050    0.418379    1.803089
     21          1           0       -0.198831   -0.947583    2.068684
     22          1           0       -0.943407   -2.479794    0.256677
     23          1           0       -3.028781   -1.965856   -1.034511
     24          1           0       -3.608856    1.591854    1.295183
     25          1           0       -1.525373    1.089521    2.593970
     26          7           0       -4.634687    0.133777   -0.687170
     27          8           0       -5.252923    1.152892   -0.387459
     28          8           0       -4.958020   -0.655804   -1.571847
 ---------------------------------------------------------------------

 SCF Done:  E(RHF) =  -868.336472958     A.U. after   16 cycles
 E2 =    -0.2602132181D+01 EUMP2 =    -0.87093860513846D+03

 The electronic state is 1-A.
 Alpha  occ. eigenvalues --  -20.61301 -20.61291 -20.60741 -20.60723 -15.86353
 Alpha  occ. eigenvalues --  -15.85792 -11.31790 -11.31255 -11.28370 -11.28316
 Alpha  occ. eigenvalues --  -11.28163 -11.27923 -11.27764 -11.27659 -11.27507
 Alpha  occ. eigenvalues --  -11.27380 -11.27073 -11.26788  -1.60376  -1.59805
 Alpha  occ. eigenvalues --   -1.39925  -1.39357  -1.19994  -1.19460  -1.09372
 Alpha  occ. eigenvalues --   -1.08871  -1.05426  -1.04873  -0.96194  -0.95668
 Alpha  occ. eigenvalues --   -0.86811  -0.86295  -0.83028  -0.82494  -0.78073
 Alpha  occ. eigenvalues --   -0.77498  -0.72571  -0.72016  -0.71709  -0.71170
 Alpha  occ. eigenvalues --   -0.71121  -0.70545  -0.65654  -0.65448  -0.65129
 Alpha  occ. eigenvalues --   -0.64924  -0.62777  -0.62193  -0.55923  -0.55441
 Alpha  occ. eigenvalues --   -0.53729  -0.53690  -0.53009  -0.52940  -0.49336
 Alpha  occ. eigenvalues --   -0.49317  -0.48781  -0.48757  -0.45316  -0.44740
 Alpha  occ. eigenvalues --   -0.37978  -0.37477  -0.37000  -0.36437
 Alpha virt. eigenvalues --    0.04409   0.05056   0.10595   0.11050   0.15884
 Alpha virt. eigenvalues --    0.16469   0.19080   0.21992   0.24963   0.27769
 Alpha virt. eigenvalues --    0.27954   0.29165   0.29940   0.31678   0.32338

 Mulliken charges:
               1
     1  C   -0.169691
     2  C   -0.218895
     3  C   -0.169119
     4  C    0.156862
     5  C   -0.184289
     6  C   -0.225025
     7  H    0.227214
     8  H    0.225782
     9  H    0.277577
    10  H    0.288783
    11  H    0.217063
    12  N    0.486843
    13  O   -0.460061
    14  O   -0.458493
    15  C   -0.179462
    16  C   -0.226570
    17  C   -0.168658
    18  C    0.160020
    19  C   -0.167466
    20  C   -0.207168
    21  H    0.226273
    22  H    0.215738
    23  H    0.275551
    24  H    0.278801
    25  H    0.229204
    26  N    0.488162
    27  O   -0.457887
    28  O   -0.461092
 Sum of Mulliken charges =  -0.00000

 Dipole moment (field-independent basis, Debye):
    X=              6.0633    Y=             -5.6220    Z=              2.8592  Tot=              8.7490
 Quadrupole moment (field-independent basis, Debye-Ang):
   XX=           -117.9309   YY=           -105.7658   ZZ=           -104.1694
   XY=            -10.7762   XZ=             -9.8831   YZ=              3.2955

 Normal termination of Gaussian 16 at Thu May  6 06:34:54 2021.
