 Gaussian 16, Revision A.03,
 Gaussian 16:  EM64L-G16RevA.03 25-Dec-2016

 -------------
 #p 6-31g* mp2
 -------------

 ------------------------------------------------------
 Input file generated by CHIRIPA (05-May-2021 14:51:12)
 ------------------------------------------------------
 Symbolic Z-matrix:
 Charge =  0 Multiplicity = 1

                         Standard orientation:
 ---------------------------------------------------------------------
 Center     Atomic      Atomic             Coordinates (Angstroms)
 Number     Number       Type             X           Y           Z
 ---------------------------------------------------------------------
      1          6           0        3.061367    0.696370    0.149887
      2          6           0        4.223075    1.683303    0.029955
      3          6           0        4.050829    2.910717    0.925266
      4          1           0        2.124427    1.209908   -0.105783
      5          1           0        2.967168    0.377192    1.197096
      6          1           0        4.315930    1.999463   -1.016962
      7          1           0        5.157382    1.167306    0.285755
      8          1           0        3.980482    2.613794    1.976689
      9          1           0        3.134250    3.450679    0.666569
     10          1           0        4.892488    3.602942    0.823805
     11          6           0        3.219088   -0.535896   -0.739141
     12          6           0        2.057380   -1.522829   -0.619209
     13          6           0        2.229626   -2.750243   -1.514520
     14          1           0        3.313287   -0.216718   -1.786350
     15          1           0        4.156028   -1.049434   -0.483471
     16          1           0        1.123074   -1.006832   -0.875009
     17          1           0        1.964525   -1.838989    0.427708
     18          1           0        3.146206   -3.290205   -1.255823
     19          1           0        2.299973   -2.453320   -2.565943
     20          1           0        1.387967   -3.442467   -1.413059
     21          6           0       -2.664569   -0.677633    0.277326
     22          6           0       -2.152174   -1.084967    1.659178
     23          6           0       -1.201668   -2.281516    1.608137
     24          1           0       -3.175082   -1.533826   -0.184469
     25          1           0       -1.807849   -0.439263   -0.368124
     26          1           0       -3.009665   -1.321164    2.302244
     27          1           0       -1.642989   -0.227647    2.117816
     28          1           0       -0.328050   -2.053393    0.988982
     29          1           0       -1.702492   -3.153123    1.174458
     30          1           0       -0.847480   -2.555760    2.606736
     31          6           0       -3.615886    0.517159    0.311928
     32          6           0       -4.128282    0.924493   -1.069923
     33          6           0       -5.078787    2.121041   -1.018883
     34          1           0       -4.472606    0.278789    0.957378
     35          1           0       -3.105374    1.373352    0.773723
     36          1           0       -4.637467    0.067172   -1.528562
     37          1           0       -3.270790    1.160689   -1.712990
     38          1           0       -4.577963    2.992649   -0.585205
     39          1           0       -5.952405    1.892918   -0.399729
     40          1           0       -5.432975    2.395285   -2.017482
 ---------------------------------------------------------------------

 SCF Done:  E(RHF) =  -470.732833068     A.U. after   11 cycles
 E2 =    -0.1583314492D+01 EUMP2 =    -0.47231614755981D+03

 The electronic state is 1-A.
 Alpha  occ. eigenvalues --  -11.21664 -11.21642 -11.21600 -11.21537 -11.21457
 Alpha  occ. eigenvalues --  -11.21398 -11.21387 -11.21328 -11.21106 -11.21103
 Alpha  occ. eigenvalues --  -11.21070 -11.20899  -1.08491  -1.08398  -1.03598
 Alpha  occ. eigenvalues --   -1.03473  -0.96031  -0.95928  -0.87046  -0.86950
 Alpha  occ. eigenvalues --   -0.79741  -0.79491  -0.78347  -0.78176  -0.65118
 Alpha  occ. eigenvalues --   -0.65034  -0.60986  -0.60907  -0.59428  -0.59282
 Alpha  occ. eigenvalues --   -0.57730  -0.57467  -0.55318  -0.55209  -0.52721
 Alpha  occ. eigenvalues --   -0.52626  -0.52448  -0.52358  -0.50006  -0.49882
 Alpha  occ. eigenvalues --   -0.48130  -0.47735  -0.46695  -0.46593  -0.45959
 Alpha  occ. eigenvalues --   -0.45753  -0.45723  -0.45449  -0.43826  -0.43748
 Alpha virt. eigenvalues --    0.21222   0.23187   0.23541   0.24819   0.25477
 Alpha virt. eigenvalues --    0.26358   0.27113   0.27604   0.28319   0.29032
 Alpha virt. eigenvalues --    0.30723   0.30867   0.31657   0.31874   0.32048

 Mulliken charges:
               1
     1  C   -0.298522
     2  C   -0.299662
     3  C   -0.475732
     4  H    0.148952
     5  H    0.149748
     6  H    0.152032
     7  H    0.152162
     8  H    0.155288
     9  H    0.155046
    10  H    0.160447
    11  C   -0.296849
    12  C   -0.306787
    13  C   -0.476511
    14  H    0.149607
    15  H    0.150013
    16  H    0.153495
    17  H    0.155475
    18  H    0.155518
    19  H    0.155365
    20  H    0.161878
    21  C   -0.300142
    22  C   -0.298623
    23  C   -0.486792
    24  H    0.149607
    25  H    0.150310
    26  H    0.151460
    27  H    0.151682
    28  H    0.169075
    29  H    0.153889
    30  H    0.158785
    31  C   -0.298271
    32  C   -0.299559
    33  C   -0.475684
    34  H    0.149685
    35  H    0.149595
    36  H    0.151981
    37  H    0.151471
    38  H    0.155129
    39  H    0.155260
    40  H    0.160181
 Sum of Mulliken charges =  -0.00000

 Dipole moment (field-independent basis, Debye):
    X=              0.0586    Y=             -0.0062    Z=             -0.0187  Tot=              0.0618
 Quadrupole moment (field-independent basis, Debye-Ang):
   XX=            -84.3821   YY=            -85.7806   ZZ=            -84.6334
   XY=              0.7594   XZ=              0.2429   YZ=             -0.8122

 Normal termination of Gaussian 16 at Wed May  5 18:18:38 2021.
