 Gaussian 16, Revision A.03,
 Gaussian 16:  EM64L-G16RevA.03 25-Dec-2016

 -------------
 #p 6-31g* mp2
 -------------

 ------------------------------------------------------
 Input file generated by CHIRIPA (05-May-2021 14:51:13)
 ------------------------------------------------------
 Symbolic Z-matrix:
 Charge =  0 Multiplicity = 1

                         Standard orientation:
 ---------------------------------------------------------------------
 Center     Atomic      Atomic             Coordinates (Angstroms)
 Number     Number       Type             X           Y           Z
 ---------------------------------------------------------------------
      1          6           0        3.053323   -0.066207    0.090702
      2          6           0        3.067666    0.741444   -1.207558
      3          6           0        4.263440    1.689733   -1.300653
      4          1           0        3.042556    0.624711    0.944788
      5          1           0        3.986012   -0.642195    0.166352
      6          1           0        2.134621    1.314671   -1.281406
      7          1           0        3.078206    0.048523   -2.058655
      8          1           0        5.203347    1.130402   -1.252434
      9          1           0        4.254400    2.403744   -0.470769
     10          1           0        4.253941    2.257143   -2.236503
     11          6           0        1.863898   -1.018773    0.198473
     12          6           0        1.849555   -1.826423    1.496733
     13          6           0        0.653781   -2.774712    1.589829
     14          1           0        0.931209   -0.442784    0.122824
     15          1           0        1.874665   -1.709690   -0.655612
     16          1           0        1.839014   -1.133503    2.347830
     17          1           0        2.782600   -2.399650    1.570581
     18          1           0        0.662821   -3.488723    0.759944
     19          1           0       -0.286126   -2.215381    1.541610
     20          1           0        0.663279   -3.342123    2.525679
     21          6           0       -2.458612    1.306316   -0.143503
     22          6           0       -1.893233    1.910857    1.142134
     23          6           0       -1.899884    3.439773    1.129196
     24          1           0       -1.874269    1.669717   -0.999908
     25          1           0       -3.485751    1.668217   -0.289807
     26          1           0       -0.867951    1.546833    1.286695
     27          1           0       -2.478869    1.545824    1.995596
     28          1           0       -2.919698    3.819577    1.009497
     29          1           0       -1.299626    3.820591    0.296569
     30          1           0       -1.491547    3.850889    2.057693
     31          6           0       -2.458609   -0.221337   -0.145672
     32          6           0       -3.023988   -0.825878   -1.431309
     33          6           0       -3.017336   -2.354794   -1.418372
     34          1           0       -1.431468   -0.583238    0.000632
     35          1           0       -3.042951   -0.584738    0.710732
     36          1           0       -2.438351   -0.460844   -2.284770
     37          1           0       -4.049270   -0.461853   -1.575870
     38          1           0       -3.617594   -2.735613   -0.585743
     39          1           0       -1.997522   -2.734597   -1.298672
     40          1           0       -3.425673   -2.765910   -2.346867
 ---------------------------------------------------------------------

 SCF Done:  E(RHF) =  -470.732933173     A.U. after   11 cycles
 E2 =    -0.1584343296D+01 EUMP2 =    -0.47231727646928D+03

 The electronic state is 1-A.
 Alpha  occ. eigenvalues --  -11.21673 -11.21660 -11.21629 -11.21590 -11.21462
 Alpha  occ. eigenvalues --  -11.21428 -11.21402 -11.21347 -11.21124 -11.21111
 Alpha  occ. eigenvalues --  -11.21045 -11.21032  -1.08511  -1.08435  -1.03574
 Alpha  occ. eigenvalues --   -1.03541  -0.96014  -0.95996  -0.87030  -0.87012
 Alpha  occ. eigenvalues --   -0.79671  -0.79584  -0.78452  -0.78140  -0.65337
 Alpha  occ. eigenvalues --   -0.64894  -0.60990  -0.60926  -0.59413  -0.59340
 Alpha  occ. eigenvalues --   -0.57628  -0.57606  -0.55312  -0.55281  -0.52703
 Alpha  occ. eigenvalues --   -0.52690  -0.52442  -0.52423  -0.49969  -0.49937
 Alpha  occ. eigenvalues --   -0.48091  -0.47848  -0.46826  -0.46636  -0.46309
 Alpha  occ. eigenvalues --   -0.45803  -0.45778  -0.44986  -0.43824  -0.43801
 Alpha virt. eigenvalues --    0.19805   0.22747   0.23675   0.24529   0.25629
 Alpha virt. eigenvalues --    0.26594   0.26951   0.27466   0.28466   0.30266
 Alpha virt. eigenvalues --    0.30909   0.31470   0.31649   0.31803   0.32353

 Mulliken charges:
               1
     1  C   -0.297547
     2  C   -0.299631
     3  C   -0.475763
     4  H    0.149721
     5  H    0.149986
     6  H    0.151105
     7  H    0.152068
     8  H    0.155403
     9  H    0.155395
    10  H    0.160371
    11  C   -0.307520
    12  C   -0.299372
    13  C   -0.481318
    14  H    0.156971
    15  H    0.149388
    16  H    0.151919
    17  H    0.152122
    18  H    0.154748
    19  H    0.161392
    20  H    0.160428
    21  C   -0.297439
    22  C   -0.302060
    23  C   -0.475614
    24  H    0.149329
    25  H    0.149966
    26  H    0.152126
    27  H    0.152356
    28  H    0.155644
    29  H    0.155156
    30  H    0.160322
    31  C   -0.311132
    32  C   -0.298730
    33  C   -0.476895
    34  H    0.161987
    35  H    0.149375
    36  H    0.151916
    37  H    0.151771
    38  H    0.155150
    39  H    0.156893
    40  H    0.160015
 Sum of Mulliken charges =  -0.00000

 Dipole moment (field-independent basis, Debye):
    X=              0.0019    Y=             -0.0029    Z=              0.0034  Tot=              0.0048
 Quadrupole moment (field-independent basis, Debye-Ang):
   XX=            -84.2365   YY=            -86.0012   ZZ=            -84.4663
   XY=             -1.0667   XZ=             -0.5053   YZ=              0.3424

 Normal termination of Gaussian 16 at Thu May  6 00:46:27 2021.
