 Gaussian 16, Revision A.03,
 Gaussian 16:  EM64L-G16RevA.03 25-Dec-2016

 -------------
 #p 6-31g* mp2
 -------------

 ------------------------------------------------------
 Input file generated by CHIRIPA (05-May-2021 14:55:24)
 ------------------------------------------------------
 Symbolic Z-matrix:
 Charge =  0 Multiplicity = 1

                         Standard orientation:
 ---------------------------------------------------------------------
 Center     Atomic      Atomic             Coordinates (Angstroms)
 Number     Number       Type             X           Y           Z
 ---------------------------------------------------------------------
      1          6           0        2.033729    1.640794    1.843789
      2          6           0        2.267357    0.338763    2.298380
      3          6           0        2.428518   -0.712068    1.390455
      4          6           0        2.349693   -0.423777    0.028851
      5          6           0        2.118082    0.862850   -0.455129
      6          6           0        1.959967    1.898229    0.470906
      7          1           0        1.909718    2.451103    2.556121
      8          1           0        2.325135    0.135895    3.364002
      9          1           0        2.610407   -1.729427    1.714979
     10          1           0        2.065684    1.034085   -1.523469
     11          1           0        1.778635    2.908421    0.114992
     12          7           0        2.518694   -1.528065   -0.941915
     13          8           0        2.444861   -1.247913   -2.136360
     14          8           0        2.721791   -2.652849   -0.489974
     15          6           0       -3.135122   -0.427372   -0.123966
     16          6           0       -4.477643   -0.647087    0.574138
     17          6           0       -4.789979   -2.126272    0.802730
     18          1           0       -3.139062   -0.955863   -1.087099
     19          1           0       -2.337328   -0.882598    0.479099
     20          1           0       -5.272504   -0.190377   -0.029374
     21          1           0       -4.470577   -0.117852    1.535635
     22          1           0       -4.017767   -2.591543    1.423868
     23          1           0       -4.824250   -2.664480   -0.150033
     24          1           0       -5.754146   -2.260355    1.302993
     25          6           0       -2.808787    1.046321   -0.359477
     26          6           0       -1.466267    1.266036   -1.057580
     27          6           0       -1.153930    2.745221   -1.286172
     28          1           0       -3.606582    1.501547   -0.962542
     29          1           0       -2.804848    1.574813    0.603657
     30          1           0       -1.473332    0.736802   -2.019077
     31          1           0       -0.671405    0.809327   -0.454069
     32          1           0       -1.119659    3.283430   -0.333408
     33          1           0       -1.926142    3.210492   -1.907310
     34          1           0       -0.189763    2.879304   -1.786435
 ---------------------------------------------------------------------

 SCF Done:  E(RHF) =  -669.534017557     A.U. after   15 cycles
 E2 =    -0.2094084731D+01 EUMP2 =    -0.67162810228784D+03

 The electronic state is 1-A.
 Alpha  occ. eigenvalues --  -20.60790 -20.60785 -15.85845 -11.31227 -11.27802
 Alpha  occ. eigenvalues --  -11.27774 -11.27538 -11.26820 -11.26756 -11.21708
 Alpha  occ. eigenvalues --  -11.21652 -11.21640 -11.21534 -11.21408 -11.21062
 Alpha  occ. eigenvalues --   -1.59865  -1.39418  -1.19419  -1.08797  -1.08554
 Alpha  occ. eigenvalues --   -1.04836  -1.03696  -0.96195  -0.95629  -0.87212
 Alpha  occ. eigenvalues --   -0.86201  -0.82459  -0.79768  -0.78350  -0.77504
 Alpha  occ. eigenvalues --   -0.72062  -0.71191  -0.70515  -0.65216  -0.65050
 Alpha  occ. eigenvalues --   -0.64799  -0.62213  -0.61117  -0.59573  -0.57798
 Alpha  occ. eigenvalues --   -0.55518  -0.55295  -0.53166  -0.52983  -0.52782
 Alpha  occ. eigenvalues --   -0.52606  -0.50104  -0.48822  -0.48815  -0.48076
 Alpha  occ. eigenvalues --   -0.46759  -0.45893  -0.45797  -0.44815  -0.43957
 Alpha  occ. eigenvalues --   -0.37398  -0.36304
 Alpha virt. eigenvalues --    0.05018   0.11163   0.16453   0.20437   0.22898
 Alpha virt. eigenvalues --    0.24056   0.26145   0.26493   0.27166   0.28044
 Alpha virt. eigenvalues --    0.29095   0.30627   0.31002   0.31527   0.32224

 Mulliken charges:
               1
     1  C   -0.172501
     2  C   -0.218565
     3  C   -0.171914
     4  C    0.160979
     5  C   -0.174784
     6  C   -0.214655
     7  H    0.225782
     8  H    0.223548
     9  H    0.275761
    10  H    0.276283
    11  H    0.226501
    12  N    0.488359
    13  O   -0.460280
    14  O   -0.460485
    15  C   -0.298858
    16  C   -0.299677
    17  C   -0.475782
    18  H    0.153239
    19  H    0.149836
    20  H    0.152025
    21  H    0.149942
    22  H    0.155338
    23  H    0.157219
    24  H    0.159820
    25  C   -0.297318
    26  C   -0.307636
    27  C   -0.475572
    28  H    0.149460
    29  H    0.146490
    30  H    0.157049
    31  H    0.160757
    32  H    0.150045
    33  H    0.159440
    34  H    0.150155
 Sum of Mulliken charges =  -0.00000

 Dipole moment (field-independent basis, Debye):
    X=             -0.6015    Y=              3.8084    Z=              3.4020  Tot=              5.1419
 Quadrupole moment (field-independent basis, Debye-Ang):
   XX=            -98.2295   YY=            -97.6689   ZZ=            -91.2019
   XY=              8.8127   XZ=              9.3210   YZ=             -3.7148

 Normal termination of Gaussian 16 at Thu May  6 15:59:37 2021.
