 Gaussian 16, Revision A.03,
 Gaussian 16:  EM64L-G16RevA.03 25-Dec-2016

 -------------
 #p 6-31g* mp2
 -------------

 ------------------------------------------------------
 Input file generated by CHIRIPA (05-May-2021 14:51:11)
 ------------------------------------------------------
 Symbolic Z-matrix:
 Charge =  0 Multiplicity = 1

                         Standard orientation:
 ---------------------------------------------------------------------
 Center     Atomic      Atomic             Coordinates (Angstroms)
 Number     Number       Type             X           Y           Z
 ---------------------------------------------------------------------
      1          6           0        2.604325    0.439639    0.525652
      2          6           0        2.278012    0.592069    2.011677
      3          6           0        1.096575    1.529158    2.264392
      4          1           0        2.822110    1.429264    0.101203
      5          1           0        1.716671    0.062244   -0.000692
      6          1           0        3.166443    0.967752    2.535288
      7          1           0        2.061166   -0.398057    2.432681
      8          1           0        0.195316    1.155384    1.767777
      9          1           0        1.306873    2.528954    1.870967
     10          1           0        0.880581    1.623659    3.333165
     11          6           0        3.783140   -0.494125    0.256935
     12          6           0        4.109453   -0.646555   -1.229090
     13          6           0        5.290890   -1.583644   -1.481804
     14          1           0        4.670794   -0.116730    0.783279
     15          1           0        3.565355   -1.483750    0.681385
     16          1           0        4.326299    0.343571   -1.650094
     17          1           0        3.221022   -1.022238   -1.752701
     18          1           0        5.080592   -2.583440   -1.088379
     19          1           0        6.192149   -1.209870   -0.985189
     20          1           0        5.506884   -1.678144   -2.550578
     21          6           0       -3.113207   -0.666827   -0.082725
     22          6           0       -4.431476   -1.431291    0.042759
     23          6           0       -4.254041   -2.818048    0.661803
     24          1           0       -2.412329   -1.254607   -0.691190
     25          1           0       -2.657631   -0.569580    0.912458
     26          1           0       -4.885110   -1.525861   -0.952172
     27          1           0       -5.129362   -0.841534    0.650837
     28          1           0       -3.823990   -2.739698    1.665555
     29          1           0       -3.578349   -3.427911    0.053438
     30          1           0       -5.208830   -3.346996    0.742129
     31          6           0       -3.274258    0.721313   -0.699862
     32          6           0       -1.955989    1.485777   -0.825347
     33          6           0       -2.133424    2.872534   -1.444391
     34          1           0       -3.729833    0.624066   -1.695045
     35          1           0       -3.975135    1.309094   -0.091397
     36          1           0       -1.258103    0.896021   -1.433424
     37          1           0       -1.502355    1.580347    0.169585
     38          1           0       -2.809116    3.482398   -0.836025
     39          1           0       -2.563475    2.794184   -2.448143
     40          1           0       -1.178636    3.401483   -1.524716
 ---------------------------------------------------------------------

 SCF Done:  E(RHF) =  -470.733320706     A.U. after   11 cycles
 E2 =    -0.1582816583D+01 EUMP2 =    -0.47231613728918D+03

 The electronic state is 1-A.
 Alpha  occ. eigenvalues --  -11.21623 -11.21596 -11.21591 -11.21575 -11.21427
 Alpha  occ. eigenvalues --  -11.21386 -11.21361 -11.21325 -11.21092 -11.21067
 Alpha  occ. eigenvalues --  -11.21055 -11.21051  -1.08447  -1.08413  -1.03548
 Alpha  occ. eigenvalues --   -1.03507  -0.95988  -0.95968  -0.87015  -0.86977
 Alpha  occ. eigenvalues --   -0.79668  -0.79527  -0.78304  -0.78181  -0.65102
 Alpha  occ. eigenvalues --   -0.65025  -0.61008  -0.60857  -0.59393  -0.59300
 Alpha  occ. eigenvalues --   -0.57636  -0.57541  -0.55297  -0.55241  -0.52680
 Alpha  occ. eigenvalues --   -0.52668  -0.52443  -0.52375  -0.50011  -0.49856
 Alpha  occ. eigenvalues --   -0.48097  -0.47775  -0.46742  -0.46513  -0.45936
 Alpha  occ. eigenvalues --   -0.45751  -0.45709  -0.45455  -0.43790  -0.43774
 Alpha virt. eigenvalues --    0.21393   0.23142   0.23693   0.24620   0.25551
 Alpha virt. eigenvalues --    0.25964   0.27065   0.27930   0.28051   0.29085
 Alpha virt. eigenvalues --    0.30847   0.31399   0.31679   0.31942   0.32056

 Mulliken charges:
               1
     1  C   -0.299134
     2  C   -0.299216
     3  C   -0.482138
     4  H    0.149381
     5  H    0.151074
     6  H    0.151824
     7  H    0.151865
     8  H    0.161374
     9  H    0.155074
    10  H    0.159938
    11  C   -0.298330
    12  C   -0.299568
    13  C   -0.475697
    14  H    0.149465
    15  H    0.149652
    16  H    0.151908
    17  H    0.151732
    18  H    0.155180
    19  H    0.155195
    20  H    0.160178
    21  C   -0.298886
    22  C   -0.299598
    23  C   -0.475756
    24  H    0.149187
    25  H    0.149204
    26  H    0.152129
    27  H    0.152162
    28  H    0.155216
    29  H    0.155037
    30  H    0.160385
    31  C   -0.297730
    32  C   -0.307894
    33  C   -0.475129
    34  H    0.149557
    35  H    0.149749
    36  H    0.151745
    37  H    0.160195
    38  H    0.155132
    39  H    0.154955
    40  H    0.160582
 Sum of Mulliken charges =  -0.00000

 Dipole moment (field-independent basis, Debye):
    X=             -0.0114    Y=              0.0081    Z=              0.0002  Tot=              0.0140
 Quadrupole moment (field-independent basis, Debye-Ang):
   XX=            -85.0668   YY=            -85.4593   ZZ=            -84.2631
   XY=              0.9597   XZ=              0.1777   YZ=              0.6373

 Normal termination of Gaussian 16 at Wed May  5 16:43:52 2021.
