 Gaussian 16, Revision A.03,
 Gaussian 16:  EM64L-G16RevA.03 25-Dec-2016

 -------------
 #p 6-31g* mp2
 -------------

 ------------------------------------------------------
 Input file generated by CHIRIPA (05-May-2021 14:53:15)
 ------------------------------------------------------
 Symbolic Z-matrix:
 Charge =  0 Multiplicity = 1

                         Standard orientation:
 ---------------------------------------------------------------------
 Center     Atomic      Atomic             Coordinates (Angstroms)
 Number     Number       Type             X           Y           Z
 ---------------------------------------------------------------------
      1          6           0       -3.703318   -0.517547    0.353788
      2          6           0       -4.145842   -1.582867   -0.649831
      3          6           0       -4.556435   -2.893596    0.021883
      4          1           0       -2.863513   -0.906728    0.945574
      5          1           0       -4.522440   -0.327293    1.061062
      6          1           0       -3.326622   -1.770056   -1.355844
      7          1           0       -4.984567   -1.191034   -1.239427
      8          1           0       -5.389592   -2.728033    0.712563
      9          1           0       -3.722227   -3.310344    0.595484
     10          1           0       -4.869138   -3.641036   -0.713923
     11          6           0       -3.289787    0.798497   -0.302527
     12          6           0       -2.847262    1.863817    0.701091
     13          6           0       -2.436669    3.174545    0.029377
     14          1           0       -2.470664    0.608242   -1.009802
     15          1           0       -4.129592    1.187677   -0.894314
     16          1           0       -2.008538    1.471984    1.290687
     17          1           0       -3.666483    2.051005    1.407104
     18          1           0       -3.270877    3.591294   -0.544224
     19          1           0       -1.603512    3.008982   -0.661303
     20          1           0       -2.123966    3.921985    0.765183
     21          6           0        5.161048   -0.787021    0.053442
     22          6           0        4.812527    0.542297   -0.207265
     23          6           0        3.469675    0.928875   -0.250352
     24          6           0        2.496819   -0.044269   -0.027126
     25          6           0        2.812267   -1.376576    0.235059
     26          6           0        4.161568   -1.740534    0.273385
     27          1           0        6.206713   -1.078538    0.085063
     28          1           0        5.586612    1.284947   -0.378453
     29          1           0        3.171808    1.951040   -0.450032
     30          1           0        2.018253   -2.094339    0.401720
     31          1           0        4.429295   -2.773628    0.476078
     32          7           0        1.071789    0.353010   -0.070219
     33          8           0        0.233585   -0.523368    0.129810
     34          8           0        0.820037    1.533253   -0.303210
 ---------------------------------------------------------------------

 SCF Done:  E(RHF) =  -669.537172352     A.U. after   15 cycles
 E2 =    -0.2092861454D+01 EUMP2 =    -0.67163003380643D+03

 The electronic state is 1-A.
 Alpha  occ. eigenvalues --  -20.61281 -20.61275 -15.86263 -11.31480 -11.28023
 Alpha  occ. eigenvalues --  -11.28018 -11.27741 -11.27003 -11.26993 -11.20289
 Alpha  occ. eigenvalues --  -11.20059 -11.19693 -11.19594 -11.19414 -11.19059
 Alpha  occ. eigenvalues --   -1.60304  -1.39864  -1.19631  -1.09058  -1.06690
 Alpha  occ. eigenvalues --   -1.05009  -1.01882  -0.95914  -0.94348  -0.86415
 Alpha  occ. eigenvalues --   -0.85385  -0.82754  -0.78008  -0.77814  -0.76475
 Alpha  occ. eigenvalues --   -0.72479  -0.71601  -0.70738  -0.65288  -0.65019
 Alpha  occ. eigenvalues --   -0.63288  -0.62356  -0.59265  -0.57795  -0.55972
 Alpha  occ. eigenvalues --   -0.55511  -0.53610  -0.53346  -0.53091  -0.51129
 Alpha  occ. eigenvalues --   -0.50803  -0.49247  -0.49210  -0.48235  -0.46314
 Alpha  occ. eigenvalues --   -0.45304  -0.44989  -0.44014  -0.43842  -0.42118
 Alpha  occ. eigenvalues --   -0.37603  -0.36603
 Alpha virt. eigenvalues --    0.04680   0.11054   0.16203   0.21176   0.24537
 Alpha virt. eigenvalues --    0.25981   0.27130   0.27943   0.28561   0.29138
 Alpha virt. eigenvalues --    0.29491   0.30814   0.32312   0.32973   0.33072

 Mulliken charges:
               1
     1  C   -0.299118
     2  C   -0.298625
     3  C   -0.474650
     4  H    0.160281
     5  H    0.141093
     6  H    0.153575
     7  H    0.147088
     8  H    0.152237
     9  H    0.153833
    10  H    0.154966
    11  C   -0.296301
    12  C   -0.295950
    13  C   -0.479588
    14  H    0.162483
    15  H    0.138772
    16  H    0.161298
    17  H    0.139823
    18  H    0.143337
    19  H    0.174970
    20  H    0.150539
    21  C   -0.170129
    22  C   -0.218627
    23  C   -0.170415
    24  C    0.157958
    25  C   -0.170234
    26  C   -0.218637
    27  H    0.226725
    28  H    0.224540
    29  H    0.276364
    30  H    0.276033
    31  H    0.224510
    32  N    0.491379
    33  O   -0.460372
    34  O   -0.459162
 Sum of Mulliken charges =  -0.00000

 Dipole moment (field-independent basis, Debye):
    X=              5.6836    Y=             -1.4718    Z=              0.1060  Tot=              5.8720
 Quadrupole moment (field-independent basis, Debye-Ang):
   XX=            -71.0861   YY=            -92.1720   ZZ=            -95.7291
   XY=             -2.7088   XZ=              0.0782   YZ=             -0.9402

 Normal termination of Gaussian 16 at Thu May  6 15:30:59 2021.
