 Gaussian 16, Revision A.03,
 Gaussian 16:  EM64L-G16RevA.03 25-Dec-2016

 -------------
 #p 6-31g* mp2
 -------------

 ------------------------------------------------------
 Input file generated by CHIRIPA (05-May-2021 14:51:12)
 ------------------------------------------------------
 Symbolic Z-matrix:
 Charge =  0 Multiplicity = 1

                         Standard orientation:
 ---------------------------------------------------------------------
 Center     Atomic      Atomic             Coordinates (Angstroms)
 Number     Number       Type             X           Y           Z
 ---------------------------------------------------------------------
      1          6           0        3.291386    1.006380    0.282096
      2          6           0        2.809404    2.277922   -0.417089
      3          6           0        3.035080    3.535855    0.422237
      4          1           0        2.771162    0.905034    1.244406
      5          1           0        4.360777    1.106642    0.513927
      6          1           0        1.741560    2.174730   -0.648772
      7          1           0        3.330696    2.376152   -1.377933
      8          1           0        4.099598    3.666388    0.642155
      9          1           0        2.501432    3.463822    1.375459
     10          1           0        2.683322    4.433072   -0.096539
     11          6           0        3.072578   -0.259568   -0.544478
     12          6           0        3.554560   -1.531110    0.154707
     13          6           0        3.328884   -2.789043   -0.684619
     14          1           0        2.003187   -0.359830   -0.776310
     15          1           0        3.592802   -0.158222   -1.506788
     16          1           0        3.033268   -1.629340    1.115551
     17          1           0        4.622403   -1.427918    0.386390
     18          1           0        3.862531   -2.717010   -1.637841
     19          1           0        2.264366   -2.919576   -0.904537
     20          1           0        3.680642   -3.686260   -0.165843
     21          6           0       -2.697643   -0.704569    0.620251
     22          6           0       -1.405442   -1.187377   -0.039370
     23          6           0       -0.446651   -1.847655    0.951865
     24          1           0       -2.449890    0.005326    1.421258
     25          1           0       -3.196244   -1.557313    1.101517
     26          1           0       -0.910126   -0.334231   -0.520431
     27          1           0       -1.656309   -1.896059   -0.839027
     28          1           0       -0.917932   -2.716001    1.423531
     29          1           0       -0.167509   -1.145299    1.743938
     30          1           0        0.470449   -2.185298    0.459134
     31          6           0       -3.666321   -0.042244   -0.357868
     32          6           0       -4.958522    0.440566    0.301752
     33          6           0       -5.917313    1.100842   -0.689483
     34          1           0       -3.167719    0.810502   -0.839134
     35          1           0       -3.914073   -0.752138   -1.158876
     36          1           0       -4.707653    1.149248    1.101410
     37          1           0       -5.453837   -0.412580    0.782814
     38          1           0       -6.196454    0.398487   -1.481555
     39          1           0       -5.446031    1.969190   -1.161148
     40          1           0       -6.834413    1.438487   -0.196752
 ---------------------------------------------------------------------

 SCF Done:  E(RHF) =  -470.732857319     A.U. after   11 cycles
 E2 =    -0.1583820420D+01 EUMP2 =    -0.47231667773877D+03

 The electronic state is 1-A.
 Alpha  occ. eigenvalues --  -11.21681 -11.21630 -11.21616 -11.21571 -11.21452
 Alpha  occ. eigenvalues --  -11.21390 -11.21389 -11.21325 -11.21107 -11.21091
 Alpha  occ. eigenvalues --  -11.21086 -11.21081  -1.08490  -1.08415  -1.03611
 Alpha  occ. eigenvalues --   -1.03508  -0.96038  -0.95977  -0.87047  -0.87002
 Alpha  occ. eigenvalues --   -0.79645  -0.79592  -0.78305  -0.78221  -0.65208
 Alpha  occ. eigenvalues --   -0.65013  -0.61109  -0.60956  -0.59405  -0.59250
 Alpha  occ. eigenvalues --   -0.57633  -0.57573  -0.55386  -0.55220  -0.52713
 Alpha  occ. eigenvalues --   -0.52673  -0.52465  -0.52369  -0.50006  -0.49894
 Alpha  occ. eigenvalues --   -0.48006  -0.47851  -0.46713  -0.46606  -0.45863
 Alpha  occ. eigenvalues --   -0.45815  -0.45751  -0.45592  -0.43820  -0.43770
 Alpha virt. eigenvalues --    0.19972   0.23098   0.23621   0.24731   0.25935
 Alpha virt. eigenvalues --    0.26249   0.26897   0.27481   0.28179   0.29348
 Alpha virt. eigenvalues --    0.30745   0.31374   0.31594   0.31726   0.32244

 Mulliken charges:
               1
     1  C   -0.298225
     2  C   -0.299715
     3  C   -0.475676
     4  H    0.149820
     5  H    0.149533
     6  H    0.151226
     7  H    0.152099
     8  H    0.155362
     9  H    0.154992
    10  H    0.160185
    11  C   -0.302367
    12  C   -0.302455
    13  C   -0.479099
    14  H    0.154199
    15  H    0.149457
    16  H    0.154443
    17  H    0.152614
    18  H    0.155677
    19  H    0.156608
    20  H    0.160735
    21  C   -0.298397
    22  C   -0.301592
    23  C   -0.485002
    24  H    0.149660
    25  H    0.149904
    26  H    0.152638
    27  H    0.152293
    28  H    0.155717
    29  H    0.154698
    30  H    0.170232
    31  C   -0.298325
    32  C   -0.299695
    33  C   -0.475743
    34  H    0.149525
    35  H    0.149819
    36  H    0.151978
    37  H    0.152011
    38  H    0.155251
    39  H    0.155253
    40  H    0.160361
 Sum of Mulliken charges =  -0.00000

 Dipole moment (field-independent basis, Debye):
    X=             -0.0064    Y=             -0.0160    Z=              0.0021  Tot=              0.0174
 Quadrupole moment (field-independent basis, Debye-Ang):
   XX=            -84.3315   YY=            -85.1693   ZZ=            -85.1786
   XY=              0.8075   XZ=             -0.8101   YZ=             -0.0699

 Normal termination of Gaussian 16 at Wed May  5 16:49:00 2021.
