 Gaussian 16, Revision A.03,
 Gaussian 16:  EM64L-G16RevA.03 25-Dec-2016

 -------------
 #p 6-31g* mp2
 -------------

 ------------------------------------------------------
 Input file generated by CHIRIPA (05-May-2021 14:53:12)
 ------------------------------------------------------
 Symbolic Z-matrix:
 Charge =  0 Multiplicity = 1

                         Standard orientation:
 ---------------------------------------------------------------------
 Center     Atomic      Atomic             Coordinates (Angstroms)
 Number     Number       Type             X           Y           Z
 ---------------------------------------------------------------------
      1          6           0       -4.042448   -0.641160   -0.371761
      2          6           0       -5.354743   -1.188453    0.190679
      3          6           0       -5.621632   -2.633645   -0.231201
      4          1           0       -4.065368   -0.706286   -1.468200
      5          1           0       -3.213552   -1.280593   -0.037919
      6          1           0       -6.180762   -0.547379   -0.142987
      7          1           0       -5.328774   -1.121839    1.285898
      8          1           0       -4.817433   -3.290839    0.115154
      9          1           0       -5.674263   -2.713116   -1.321850
     10          1           0       -6.564730   -3.004817    0.181908
     11          6           0       -3.761666    0.802557    0.041242
     12          6           0       -2.449372    1.349850   -0.521198
     13          6           0       -2.182482    2.795043   -0.099318
     14          1           0       -4.590563    1.441991   -0.292600
     15          1           0       -3.738746    0.867684    1.137681
     16          1           0       -2.475341    1.283236   -1.616417
     17          1           0       -1.623353    0.708776   -0.187532
     18          1           0       -2.129852    2.874513    0.991331
     19          1           0       -2.986681    3.452237   -0.445673
     20          1           0       -1.239385    3.166214   -0.512427
     21          6           0        1.078732    1.322530    0.881563
     22          6           0        1.668648    1.562772   -0.363749
     23          6           0        2.760488    0.801235   -0.790944
     24          6           0        3.238911   -0.196999    0.056364
     25          6           0        2.672765   -0.460454    1.302704
     26          6           0        1.581787    0.313462    1.709356
     27          1           0        0.230899    1.918918    1.205440
     28          1           0        1.280077    2.345768   -1.008710
     29          1           0        3.236243    0.965961   -1.750079
     30          1           0        3.082316   -1.247928    1.923647
     31          1           0        1.125648    0.124658    2.677000
     32          7           0        4.394337   -1.009756   -0.385014
     33          8           0        4.797081   -1.883337    0.380027
     34          8           0        4.875336   -0.757824   -1.487650
 ---------------------------------------------------------------------

 SCF Done:  E(RHF) =  -669.534635257     A.U. after   15 cycles
 E2 =    -0.2092872176D+01 EUMP2 =    -0.67162750743356D+03

 The electronic state is 1-A.
 Alpha  occ. eigenvalues --  -20.60746 -20.60741 -15.85801 -11.31161 -11.27742
 Alpha  occ. eigenvalues --  -11.27736 -11.27399 -11.26742 -11.26730 -11.22540
 Alpha  occ. eigenvalues --  -11.22436 -11.22169 -11.22089 -11.21957 -11.21448
 Alpha  occ. eigenvalues --   -1.59822  -1.39376  -1.19340  -1.09180  -1.08725
 Alpha  occ. eigenvalues --   -1.04745  -1.04324  -0.96811  -0.95555  -0.87811
 Alpha  occ. eigenvalues --   -0.86139  -0.82400  -0.80381  -0.78920  -0.77450
 Alpha  occ. eigenvalues --   -0.72019  -0.71146  -0.70499  -0.65804  -0.64992
 Alpha  occ. eigenvalues --   -0.64773  -0.62115  -0.61733  -0.60185  -0.58364
 Alpha  occ. eigenvalues --   -0.56250  -0.55001  -0.53504  -0.53213  -0.53073
 Alpha  occ. eigenvalues --   -0.52811  -0.50717  -0.48784  -0.48773  -0.48679
 Alpha  occ. eigenvalues --   -0.47410  -0.46473  -0.46368  -0.44782  -0.44551
 Alpha  occ. eigenvalues --   -0.37261  -0.36353
 Alpha virt. eigenvalues --    0.05061   0.11269   0.16477   0.19658   0.22581
 Alpha virt. eigenvalues --    0.24144   0.25079   0.26038   0.26555   0.27361
 Alpha virt. eigenvalues --    0.29180   0.30248   0.31205   0.31415   0.32283

 Mulliken charges:
               1
     1  C   -0.299006
     2  C   -0.300131
     3  C   -0.476140
     4  H    0.151701
     5  H    0.150755
     6  H    0.152732
     7  H    0.151534
     8  H    0.156077
     9  H    0.156400
    10  H    0.161611
    11  C   -0.297896
    12  C   -0.306702
    13  C   -0.484715
    14  H    0.151591
    15  H    0.147740
    16  H    0.156037
    17  H    0.156543
    18  H    0.151231
    19  H    0.165222
    20  H    0.153268
    21  C   -0.172629
    22  C   -0.222466
    23  C   -0.170733
    24  C    0.158245
    25  C   -0.170562
    26  C   -0.222014
    27  H    0.236431
    28  H    0.224619
    29  H    0.275611
    30  H    0.275424
    31  H    0.223240
    32  N    0.488044
    33  O   -0.460569
    34  O   -0.460494
 Sum of Mulliken charges =  -0.00000

 Dipole moment (field-independent basis, Debye):
    X=             -4.2543    Y=              2.8146    Z=              1.5029  Tot=              5.3178
 Quadrupole moment (field-independent basis, Debye-Ang):
   XX=           -121.1972   YY=            -96.0918   ZZ=            -90.4622
   XY=              9.7845   XZ=              5.1678   YZ=             -3.2703

 Normal termination of Gaussian 16 at Thu May  6 05:44:16 2021.
