 Gaussian 16, Revision A.03,
 Gaussian 16:  EM64L-G16RevA.03 25-Dec-2016

 -------------
 #p 6-31g* mp2
 -------------

 ------------------------------------------------------
 Input file generated by CHIRIPA (05-May-2021 14:55:21)
 ------------------------------------------------------
 Symbolic Z-matrix:
 Charge =  0 Multiplicity = 1

                         Standard orientation:
 ---------------------------------------------------------------------
 Center     Atomic      Atomic             Coordinates (Angstroms)
 Number     Number       Type             X           Y           Z
 ---------------------------------------------------------------------
      1          6           0       -5.065013    0.224992   -1.053506
      2          6           0       -4.871543   -0.883073   -0.222073
      3          6           0       -3.667474   -1.051151    0.468229
      4          6           0       -2.673783   -0.087495    0.303203
      5          6           0       -2.836385    1.027266   -0.517868
      6          6           0       -4.048608    1.174951   -1.198494
      7          1           0       -6.003530    0.347638   -1.585991
      8          1           0       -5.659141   -1.622414   -0.107571
      9          1           0       -3.491087   -1.899477    1.118343
     10          1           0       -2.032774    1.747525   -0.611962
     11          1           0       -4.196071    2.036485   -1.843520
     12          7           0       -1.394773   -0.254637    1.028873
     13          8           0       -0.534944    0.608488    0.866560
     14          8           0       -1.276332   -1.245603    1.746226
     15          6           0        3.404055   -0.600501   -0.439274
     16          6           0        4.422984   -1.738542   -0.371218
     17          6           0        3.831432   -3.087051   -0.782778
     18          1           0        2.550797   -0.841531    0.209418
     19          1           0        3.009262   -0.531843   -1.462416
     20          1           0        4.816759   -1.804138    0.651159
     21          1           0        5.274004   -1.494686   -1.019999
     22          1           0        3.455156   -3.045265   -1.810042
     23          1           0        2.995312   -3.356475   -0.129389
     24          1           0        4.576961   -3.886371   -0.726806
     25          6           0        3.980467    0.753969   -0.030752
     26          6           0        2.961538    1.892009   -0.098808
     27          6           0        3.553091    3.240518    0.312753
     28          1           0        4.375260    0.685310    0.992390
     29          1           0        4.833726    0.994999   -0.679444
     30          1           0        2.110519    1.648154    0.549973
     31          1           0        2.567763    1.957605   -1.121185
     32          1           0        4.389210    3.509942   -0.340637
     33          1           0        3.929367    3.198733    1.340016
     34          1           0        2.807561    4.039838    0.256780
 ---------------------------------------------------------------------

 SCF Done:  E(RHF) =  -669.536372393     A.U. after   15 cycles
 E2 =    -0.2091107689D+01 EUMP2 =    -0.67162748008200D+03

 The electronic state is 1-A.
 Alpha  occ. eigenvalues --  -20.60997 -20.60980 -15.86023 -11.31314 -11.27874
 Alpha  occ. eigenvalues --  -11.27869 -11.27609 -11.26876 -11.26867 -11.20661
 Alpha  occ. eigenvalues --  -11.20278 -11.20249 -11.20217 -11.20162 -11.20096
 Alpha  occ. eigenvalues --   -1.60050  -1.39606  -1.19480  -1.08891  -1.07302
 Alpha  occ. eigenvalues --   -1.04872  -1.02482  -0.95737  -0.94969  -0.86274
 Alpha  occ. eigenvalues --   -0.85989  -0.82574  -0.78533  -0.77630  -0.77083
 Alpha  occ. eigenvalues --   -0.72247  -0.71359  -0.70589  -0.65138  -0.64876
 Alpha  occ. eigenvalues --   -0.63922  -0.62219  -0.59874  -0.58338  -0.56570
 Alpha  occ. eigenvalues --   -0.55379  -0.54261  -0.53206  -0.52964  -0.51697
 Alpha  occ. eigenvalues --   -0.51394  -0.49039  -0.49000  -0.48897  -0.46855
 Alpha  occ. eigenvalues --   -0.45530  -0.45073  -0.44656  -0.44427  -0.42722
 Alpha  occ. eigenvalues --   -0.37458  -0.36472
 Alpha virt. eigenvalues --    0.04896   0.11184   0.16396   0.21299   0.23983
 Alpha virt. eigenvalues --    0.25267   0.27233   0.27744   0.28015   0.28803
 Alpha virt. eigenvalues --    0.29034   0.30912   0.32292   0.32370   0.32813

 Mulliken charges:
               1
     1  C   -0.170502
     2  C   -0.218630
     3  C   -0.170398
     4  C    0.157466
     5  C   -0.170641
     6  C   -0.218588
     7  H    0.226078
     8  H    0.223878
     9  H    0.275852
    10  H    0.276158
    11  H    0.223948
    12  N    0.494395
    13  O   -0.465751
    14  O   -0.459573
    15  C   -0.301829
    16  C   -0.298600
    17  C   -0.475821
    18  H    0.166040
    19  H    0.143815
    20  H    0.151515
    21  H    0.147761
    22  H    0.151761
    23  H    0.159010
    24  H    0.156611
    25  C   -0.296802
    26  C   -0.309943
    27  C   -0.474472
    28  H    0.148450
    29  H    0.143330
    30  H    0.181657
    31  H    0.143901
    32  H    0.149887
    33  H    0.154164
    34  H    0.155870
 Sum of Mulliken charges =  -0.00000

 Dipole moment (field-independent basis, Debye):
    X=             -4.8673    Y=              0.5326    Z=             -2.4058  Tot=              5.4555
 Quadrupole moment (field-independent basis, Debye-Ang):
   XX=            -71.9318   YY=            -93.2324   ZZ=            -95.4491
   XY=              0.0165   XZ=              5.0976   YZ=             -2.1530

 Normal termination of Gaussian 16 at Thu May  6 19:10:02 2021.
