 Gaussian 16, Revision A.03,
 Gaussian 16:  EM64L-G16RevA.03 25-Dec-2016

 -------------
 #p 6-31g* mp2
 -------------

 ------------------------------------------------------
 Input file generated by CHIRIPA (05-May-2021 14:53:18)
 ------------------------------------------------------
 Symbolic Z-matrix:
 Charge =  0 Multiplicity = 1

                         Standard orientation:
 ---------------------------------------------------------------------
 Center     Atomic      Atomic             Coordinates (Angstroms)
 Number     Number       Type             X           Y           Z
 ---------------------------------------------------------------------
      1          6           0       -3.790091   -0.310460   -0.120544
      2          6           0       -4.900419   -1.048752    0.627842
      3          6           0       -4.943220   -2.541465    0.299561
      4          1           0       -3.932516   -0.445693   -1.201457
      5          1           0       -2.822796   -0.769175    0.127077
      6          1           0       -5.865191   -0.587899    0.379959
      7          1           0       -4.755443   -0.911586    1.707094
      8          1           0       -3.995205   -3.021282    0.563461
      9          1           0       -5.111258   -2.695756   -0.771214
     10          1           0       -5.744211   -3.049756    0.845376
     11          6           0       -3.734538    1.182752    0.197196
     12          6           0       -2.624210    1.921044   -0.551190
     13          6           0       -2.581409    3.413757   -0.222909
     14          1           0       -4.701833    1.641467   -0.050425
     15          1           0       -3.592112    1.317985    1.278109
     16          1           0       -2.769185    1.783878   -1.630442
     17          1           0       -1.659438    1.460191   -0.303307
     18          1           0       -2.413371    3.568048    0.847866
     19          1           0       -3.529424    3.893574   -0.486809
     20          1           0       -1.780418    3.922048   -0.768724
     21          6           0        5.106370    0.864032    0.437275
     22          6           0        5.109376   -0.513740    0.195915
     23          6           0        3.914627   -1.191627   -0.064070
     24          6           0        2.729804   -0.457212   -0.075111
     25          6           0        2.694186    0.916099    0.161616
     26          6           0        3.900909    1.573304    0.419387
     27          1           0        6.039131    1.382598    0.638378
     28          1           0        6.044053   -1.067137    0.209181
     29          1           0        3.888167   -2.257721   -0.254229
     30          1           0        1.746657    1.440707    0.141783
     31          1           0        3.895558    2.643356    0.606484
     32          7           0        1.458639   -1.163913   -0.349174
     33          8           0        0.428144   -0.494060   -0.353321
     34          8           0        1.516862   -2.374296   -0.554648
 ---------------------------------------------------------------------

 SCF Done:  E(RHF) =  -669.536278947     A.U. after   15 cycles
 E2 =    -0.2091299011D+01 EUMP2 =    -0.67162757795774D+03

 The electronic state is 1-A.
 Alpha  occ. eigenvalues --  -20.60995 -20.60989 -15.86031 -11.31325 -11.27886
 Alpha  occ. eigenvalues --  -11.27882 -11.27618 -11.26888 -11.26878 -11.20614
 Alpha  occ. eigenvalues --  -11.20546 -11.20471 -11.20393 -11.20110 -11.20095
 Alpha  occ. eigenvalues --   -1.60054  -1.39612  -1.19491  -1.08900  -1.07380
 Alpha  occ. eigenvalues --   -1.04884  -1.02598  -0.95746  -0.95070  -0.86286
 Alpha  occ. eigenvalues --   -0.86086  -0.82585  -0.78641  -0.77646  -0.77137
 Alpha  occ. eigenvalues --   -0.72254  -0.71367  -0.70600  -0.65151  -0.64886
 Alpha  occ. eigenvalues --   -0.64002  -0.62232  -0.59999  -0.58447  -0.56671
 Alpha  occ. eigenvalues --   -0.55389  -0.54365  -0.53217  -0.52975  -0.51809
 Alpha  occ. eigenvalues --   -0.51488  -0.49101  -0.49005  -0.48915  -0.46956
 Alpha  occ. eigenvalues --   -0.45640  -0.45033  -0.44734  -0.44539  -0.42819
 Alpha  occ. eigenvalues --   -0.37469  -0.36484
 Alpha virt. eigenvalues --    0.04893   0.11171   0.16397   0.21042   0.23709
 Alpha virt. eigenvalues --    0.24877   0.26744   0.27448   0.27943   0.28827
 Alpha virt. eigenvalues --    0.29090   0.30715   0.31774   0.32355   0.32525

 Mulliken charges:
               1
     1  C   -0.303782
     2  C   -0.298907
     3  C   -0.475485
     4  H    0.147789
     5  H    0.169837
     6  H    0.147434
     7  H    0.148907
     8  H    0.159806
     9  H    0.154283
    10  H    0.155685
    11  C   -0.296701
    12  C   -0.308819
    13  C   -0.475255
    14  H    0.144320
    15  H    0.145685
    16  H    0.150359
    17  H    0.173193
    18  H    0.151112
    19  H    0.153305
    20  H    0.153650
    21  C   -0.170499
    22  C   -0.218585
    23  C   -0.170762
    24  C    0.157458
    25  C   -0.170617
    26  C   -0.218754
    27  H    0.226143
    28  H    0.223926
    29  H    0.275893
    30  H    0.276313
    31  H    0.224195
    32  N    0.496746
    33  O   -0.469138
    34  O   -0.458735
 Sum of Mulliken charges =  -0.00000

 Dipole moment (field-independent basis, Debye):
    X=              4.8119    Y=              2.3040    Z=              0.9343  Tot=              5.4163
 Quadrupole moment (field-independent basis, Debye-Ang):
   XX=            -70.2858   YY=            -95.3425   ZZ=            -95.3072
   XY=              2.4723   XZ=              2.7692   YZ=             -0.3594

 Normal termination of Gaussian 16 at Wed May  5 22:04:38 2021.
