 Gaussian 16, Revision A.03,
 Gaussian 16:  EM64L-G16RevA.03 25-Dec-2016

 -------------
 #p 6-31g* mp2
 -------------

 ------------------------------------------------------
 Input file generated by CHIRIPA (05-May-2021 14:57:22)
 ------------------------------------------------------
 Symbolic Z-matrix:
 Charge =  0 Multiplicity = 1

                         Standard orientation:
 ---------------------------------------------------------------------
 Center     Atomic      Atomic             Coordinates (Angstroms)
 Number     Number       Type             X           Y           Z
 ---------------------------------------------------------------------
      1          6           0       -5.558846    1.656916   -0.082513
      2          6           0       -4.263813    2.071784    0.245047
      3          6           0       -3.205734    1.158011    0.251092
      4          6           0       -3.479721   -0.168871   -0.076944
      5          6           0       -4.759081   -0.612882   -0.407673
      6          6           0       -5.801918    0.318267   -0.407255
      7          1           0       -6.374867    2.373505   -0.084699
      8          1           0       -4.072098    3.110762    0.497660
      9          1           0       -2.193534    1.452127    0.500819
     10          1           0       -4.919193   -1.655260   -0.655118
     11          1           0       -6.806648   -0.006761   -0.662047
     12          7           0       -2.367648   -1.145439   -0.073965
     13          8           0       -2.635201   -2.308789   -0.366658
     14          8           0       -1.249509   -0.729031    0.221006
     15          6           0        2.439434   -2.130910    0.619845
     16          6           0        2.112919   -0.948082    1.291284
     17          6           0        2.784281    0.242851    0.998888
     18          6           0        3.781294    0.214694    0.024996
     19          6           0        4.129442   -0.947693   -0.661251
     20          6           0        3.444881   -2.126947   -0.352566
     21          1           0        1.912777   -3.051518    0.853312
     22          1           0        1.332514   -0.948191    2.046938
     23          1           0        2.551651    1.172754    1.503449
     24          1           0        4.912007   -0.916297   -1.409599
     25          1           0        3.700569   -3.044057   -0.875612
     26          7           0        4.499021    1.469300   -0.293173
     27          8           0        5.373492    1.418078   -1.155330
     28          8           0        4.173516    2.480126    0.325628
 ---------------------------------------------------------------------

 SCF Done:  E(RHF) =  -868.339495493     A.U. after   16 cycles
 E2 =    -0.2598807424D+01 EUMP2 =    -0.87093830291733D+03

 The electronic state is 1-A.
 Alpha  occ. eigenvalues --  -20.61486 -20.61462 -20.60015 -20.60008 -15.86509
 Alpha  occ. eigenvalues --  -15.85056 -11.31660 -11.30134 -11.28203 -11.28200
 Alpha  occ. eigenvalues --  -11.27896 -11.27167 -11.27151 -11.26680 -11.26627
 Alpha  occ. eigenvalues --  -11.26237 -11.25636 -11.25494  -1.60549  -1.59095
 Alpha  occ. eigenvalues --   -1.40108  -1.38658  -1.19812  -1.18250  -1.09246
 Alpha  occ. eigenvalues --   -1.07676  -1.05180  -1.03615  -0.96118  -0.94574
 Alpha  occ. eigenvalues --   -0.86589  -0.85016  -0.82956  -0.81429  -0.78031
 Alpha  occ. eigenvalues --   -0.76533  -0.72746  -0.71855  -0.71285  -0.70915
 Alpha  occ. eigenvalues --   -0.70413  -0.69332  -0.65467  -0.65178  -0.63898
 Alpha  occ. eigenvalues --   -0.63601  -0.62530  -0.60988  -0.55685  -0.54068
 Alpha  occ. eigenvalues --   -0.53522  -0.53268  -0.51940  -0.51707  -0.49507
 Alpha  occ. eigenvalues --   -0.49476  -0.48055  -0.48010  -0.45558  -0.44130
 Alpha  occ. eigenvalues --   -0.37777  -0.36774  -0.36144  -0.35183
 Alpha virt. eigenvalues --    0.04480   0.05992   0.10883   0.12478   0.16015
 Alpha virt. eigenvalues --    0.17596   0.21049   0.22600   0.26972   0.27828
 Alpha virt. eigenvalues --    0.28515   0.29464   0.30656   0.32020   0.32308

 Mulliken charges:
               1
     1  C   -0.170026
     2  C   -0.218418
     3  C   -0.170606
     4  C    0.157632
     5  C   -0.170683
     6  C   -0.218510
     7  H    0.227598
     8  H    0.225998
     9  H    0.274970
    10  H    0.275606
    11  H    0.224806
    12  N    0.490828
    13  O   -0.460622
    14  O   -0.467543
    15  C   -0.165441
    16  C   -0.201903
    17  C   -0.174927
    18  C    0.157527
    19  C   -0.173192
    20  C   -0.219376
    21  H    0.228884
    22  H    0.226699
    23  H    0.269183
    24  H    0.271341
    25  H    0.220244
    26  N    0.488277
    27  O   -0.463421
    28  O   -0.464926
 Sum of Mulliken charges =  -0.00000

 Dipole moment (field-independent basis, Debye):
    X=             -6.9254    Y=             -1.0978    Z=              1.1660  Tot=              7.1082
 Quadrupole moment (field-independent basis, Debye-Ang):
   XX=            -94.8043   YY=           -104.7273   ZZ=           -103.4156
   XY=            -28.4173   XZ=              3.6104   YZ=              2.7825

 Normal termination of Gaussian 16 at Thu May  6 22:38:20 2021.
