 Gaussian 16, Revision A.03,
 Gaussian 16:  EM64L-G16RevA.03 25-Dec-2016

 -------------
 #p 6-31g* mp2
 -------------

 ------------------------------------------------------
 Input file generated by CHIRIPA (05-May-2021 14:53:14)
 ------------------------------------------------------
 Symbolic Z-matrix:
 Charge =  0 Multiplicity = 1

                         Standard orientation:
 ---------------------------------------------------------------------
 Center     Atomic      Atomic             Coordinates (Angstroms)
 Number     Number       Type             X           Y           Z
 ---------------------------------------------------------------------
      1          6           0       -2.634448   -0.314706   -0.038075
      2          6           0       -3.215408   -1.295156   -1.057481
      3          6           0       -3.033873   -2.755639   -0.642958
      4          1           0       -1.565533   -0.528370    0.098721
      5          1           0       -3.113950   -0.482604    0.936237
      6          1           0       -2.735944   -1.124529   -2.029909
      7          1           0       -4.283022   -1.079010   -1.192008
      8          1           0       -3.527480   -2.948388    0.315061
      9          1           0       -1.971612   -2.994166   -0.527601
     10          1           0       -3.456363   -3.439313   -1.385893
     11          6           0       -2.808199    1.149283   -0.438416
     12          6           0       -2.227239    2.129733    0.580990
     13          6           0       -2.408774    3.590216    0.166468
     14          1           0       -2.328698    1.317181   -1.412728
     15          1           0       -3.877114    1.362947   -0.575211
     16          1           0       -1.159626    1.913587    0.715518
     17          1           0       -2.706704    1.959106    1.553418
     18          1           0       -3.471035    3.828743    0.051110
     19          1           0       -1.915167    3.782965   -0.791551
     20          1           0       -1.986284    4.273890    0.909403
     21          6           0        3.554364    1.221358   -1.203641
     22          6           0        3.209230   -0.042204   -1.694371
     23          6           0        2.418320   -0.907842   -0.933003
     24          6           0        1.987948   -0.475600    0.320487
     25          6           0        2.315027    0.777217    0.836975
     26          6           0        3.106950    1.626321    0.058241
     27          1           0        4.169156    1.887384   -1.801835
     28          1           0        3.555273   -0.359365   -2.674017
     29          1           0        2.136315   -1.891432   -1.288589
     30          1           0        1.955068    1.065342    1.817195
     31          1           0        3.373434    2.607055    0.441898
     32          7           0        1.150111   -1.383261    1.135705
     33          8           0        0.783623   -0.978786    2.236943
     34          8           0        0.875768   -2.481974    0.658000
 ---------------------------------------------------------------------

 SCF Done:  E(RHF) =  -669.536149244     A.U. after   15 cycles
 E2 =    -0.2092775905D+01 EUMP2 =    -0.67162892514898D+03

 The electronic state is 1-A.
 Alpha  occ. eigenvalues --  -20.60971 -20.60959 -15.85985 -11.31334 -11.27891
 Alpha  occ. eigenvalues --  -11.27886 -11.27619 -11.26897 -11.26888 -11.21288
 Alpha  occ. eigenvalues --  -11.20963 -11.20937 -11.20897 -11.20687 -11.20010
 Alpha  occ. eigenvalues --   -1.60027  -1.39579  -1.19496  -1.08897  -1.07898
 Alpha  occ. eigenvalues --   -1.04890  -1.02981  -0.95737  -0.95419  -0.86430
 Alpha  occ. eigenvalues --   -0.86288  -0.82567  -0.79064  -0.77686  -0.77609
 Alpha  occ. eigenvalues --   -0.72209  -0.71356  -0.70597  -0.65148  -0.64888
 Alpha  occ. eigenvalues --   -0.64535  -0.62236  -0.60384  -0.58830  -0.57018
 Alpha  occ. eigenvalues --   -0.55390  -0.54702  -0.53221  -0.52979  -0.52134
 Alpha  occ. eigenvalues --   -0.51819  -0.49347  -0.48979  -0.48972  -0.47363
 Alpha  occ. eigenvalues --   -0.46132  -0.45192  -0.45161  -0.44906  -0.43243
 Alpha  occ. eigenvalues --   -0.37470  -0.36486
 Alpha virt. eigenvalues --    0.04865   0.11101   0.16331   0.21235   0.23164
 Alpha virt. eigenvalues --    0.24819   0.26433   0.27250   0.27687   0.28309
 Alpha virt. eigenvalues --    0.28742   0.31048   0.31301   0.32109   0.32294

 Mulliken charges:
               1
     1  C   -0.296220
     2  C   -0.299050
     3  C   -0.481626
     4  H    0.149367
     5  H    0.154323
     6  H    0.146212
     7  H    0.148497
     8  H    0.155904
     9  H    0.172869
    10  H    0.153981
    11  C   -0.298376
    12  C   -0.298389
    13  C   -0.475348
    14  H    0.145550
    15  H    0.148551
    16  H    0.148130
    17  H    0.155406
    18  H    0.155660
    19  H    0.152209
    20  H    0.157301
    21  C   -0.170590
    22  C   -0.218391
    23  C   -0.171200
    24  C    0.155609
    25  C   -0.171255
    26  C   -0.218590
    27  H    0.226253
    28  H    0.224065
    29  H    0.275943
    30  H    0.276683
    31  H    0.224325
    32  N    0.488974
    33  O   -0.456818
    34  O   -0.459959
 Sum of Mulliken charges =  -0.00000

 Dipole moment (field-independent basis, Debye):
    X=              3.1086    Y=              3.0840    Z=             -2.7405  Tot=              5.1657
 Quadrupole moment (field-independent basis, Debye-Ang):
   XX=            -83.1058   YY=            -97.2546   ZZ=            -94.1549
   XY=              5.0957   XZ=             -5.9993   YZ=              5.3432

 Normal termination of Gaussian 16 at Thu May  6 07:24:51 2021.
