 Gaussian 16, Revision A.03,
 Gaussian 16:  EM64L-G16RevA.03 25-Dec-2016

 -------------
 #p 6-31g* mp2
 -------------

 ------------------------------------------------------
 Input file generated by CHIRIPA (05-May-2021 14:53:17)
 ------------------------------------------------------
 Symbolic Z-matrix:
 Charge =  0 Multiplicity = 1

                         Standard orientation:
 ---------------------------------------------------------------------
 Center     Atomic      Atomic             Coordinates (Angstroms)
 Number     Number       Type             X           Y           Z
 ---------------------------------------------------------------------
      1          6           0        4.043639   -0.579177    0.009504
      2          6           0        2.954815   -0.726359    1.072887
      3          6           0        1.826423   -1.661997    0.638021
      4          1           0        3.591992   -0.204362   -0.919191
      5          1           0        4.456863   -1.570695   -0.221870
      6          1           0        2.544727    0.265308    1.303190
      7          1           0        3.409139   -1.100686    1.999216
      8          1           0        2.215877   -2.663237    0.427201
      9          1           0        1.346553   -1.289482   -0.272780
     10          1           0        1.058985   -1.752733    1.413047
     11          6           0        5.178615    0.353082    0.429564
     12          6           0        6.267439    0.500264   -0.633820
     13          6           0        7.395831    1.435902   -0.198953
     14          1           0        4.765392    1.344600    0.660938
     15          1           0        5.630263   -0.021733    1.358259
     16          1           0        5.813115    0.874590   -1.560149
     17          1           0        6.677527   -0.491403   -0.864122
     18          1           0        7.875701    1.063387    0.711848
     19          1           0        7.006377    2.437142    0.011867
     20          1           0        8.163269    1.526638   -0.973979
     21          6           0       -5.725239    1.289094    0.474863
     22          6           0       -5.706549   -0.107435    0.398185
     23          6           0       -4.535991   -0.783304    0.041056
     24          6           0       -3.397219   -0.027767   -0.234000
     25          6           0       -3.384176    1.364544   -0.166281
     26          6           0       -4.566037    2.019339    0.192882
     27          1           0       -6.638948    1.805940    0.753079
     28          1           0       -6.605306   -0.677140    0.616630
     29          1           0       -4.493582   -1.863641   -0.025962
     30          1           0       -2.472492    1.905192   -0.389776
     31          1           0       -4.577624    3.103986    0.251629
     32          7           0       -2.152018   -0.732125   -0.613153
     33          8           0       -1.162065   -0.043480   -0.850633
     34          8           0       -2.189562   -1.959508   -0.665674
 ---------------------------------------------------------------------

 SCF Done:  E(RHF) =  -669.536186355     A.U. after   15 cycles
 E2 =    -0.2091057709D+01 EUMP2 =    -0.67162724406435D+03

 The electronic state is 1-A.
 Alpha  occ. eigenvalues --  -20.60954 -20.60940 -15.85971 -11.31300 -11.27861
 Alpha  occ. eigenvalues --  -11.27856 -11.27598 -11.26868 -11.26858 -11.20961
 Alpha  occ. eigenvalues --  -11.20605 -11.20563 -11.20381 -11.20321 -11.19263
 Alpha  occ. eigenvalues --   -1.59999  -1.39556  -1.19465  -1.08869  -1.07505
 Alpha  occ. eigenvalues --   -1.04862  -1.02516  -0.95712  -0.94935  -0.86262
 Alpha  occ. eigenvalues --   -0.85946  -0.82544  -0.78620  -0.77597  -0.77279
 Alpha  occ. eigenvalues --   -0.72192  -0.71311  -0.70574  -0.65121  -0.64865
 Alpha  occ. eigenvalues --   -0.64142  -0.62209  -0.59908  -0.58393  -0.56554
 Alpha  occ. eigenvalues --   -0.55370  -0.54217  -0.53193  -0.52953  -0.51630
 Alpha  occ. eigenvalues --   -0.51368  -0.49234  -0.48940  -0.48582  -0.46900
 Alpha  occ. eigenvalues --   -0.45656  -0.44971  -0.44810  -0.44674  -0.42784
 Alpha  occ. eigenvalues --   -0.37444  -0.36463
 Alpha virt. eigenvalues --    0.04929   0.11192   0.16426   0.21328   0.23732
 Alpha virt. eigenvalues --    0.25390   0.27244   0.27546   0.28210   0.28375
 Alpha virt. eigenvalues --    0.29148   0.30901   0.32378   0.32508   0.32617

 Mulliken charges:
               1
     1  C   -0.298085
     2  C   -0.299020
     3  C   -0.479600
     4  H    0.152534
     5  H    0.147636
     6  H    0.148912
     7  H    0.145113
     8  H    0.147778
     9  H    0.182799
    10  H    0.154156
    11  C   -0.297287
    12  C   -0.299037
    13  C   -0.475115
    14  H    0.147561
    15  H    0.147397
    16  H    0.151838
    17  H    0.151240
    18  H    0.154064
    19  H    0.153862
    20  H    0.158429
    21  C   -0.170597
    22  C   -0.218577
    23  C   -0.170762
    24  C    0.158320
    25  C   -0.170770
    26  C   -0.218539
    27  H    0.226000
    28  H    0.223856
    29  H    0.275971
    30  H    0.275605
    31  H    0.223800
    32  N    0.489009
    33  O   -0.460022
    34  O   -0.458468
 Sum of Mulliken charges =  -0.00000

 Dipole moment (field-independent basis, Debye):
    X=             -4.7533    Y=              2.4783    Z=              1.2043  Tot=              5.4942
 Quadrupole moment (field-independent basis, Debye-Ang):
   XX=            -66.0390   YY=            -91.0923   ZZ=            -96.3441
   XY=             -7.0621   XZ=             -4.1659   YZ=             -1.2939

 Normal termination of Gaussian 16 at Thu May  6 17:15:55 2021.
