 Gaussian 16, Revision A.03,
 Gaussian 16:  EM64L-G16RevA.03 25-Dec-2016

 -------------
 #p 6-31g* mp2
 -------------

 ------------------------------------------------------
 Input file generated by CHIRIPA (05-May-2021 14:51:12)
 ------------------------------------------------------
 Symbolic Z-matrix:
 Charge =  0 Multiplicity = 1

                         Standard orientation:
 ---------------------------------------------------------------------
 Center     Atomic      Atomic             Coordinates (Angstroms)
 Number     Number       Type             X           Y           Z
 ---------------------------------------------------------------------
      1          6           0       -4.377196   -0.602814   -0.010689
      2          6           0       -5.743295    0.063387    0.156451
      3          6           0       -6.882577   -0.948219    0.284843
      4          1           0       -4.397638   -1.248883   -0.899014
      5          1           0       -4.189877   -1.260174    0.849651
      6          1           0       -5.927379    0.720357   -0.703269
      7          1           0       -5.719538    0.708093    1.044373
      8          1           0       -6.725965   -1.596684    1.152925
      9          1           0       -6.934986   -1.584350   -0.604647
     10          1           0       -7.850038   -0.450398    0.403392
     11          6           0       -3.228146    0.395486   -0.140335
     12          6           0       -1.862047   -0.270715   -0.307475
     13          6           0       -0.722765    0.740891   -0.435867
     14          1           0       -3.415465    1.052846   -1.000675
     15          1           0       -3.207704    1.041555    0.747990
     16          1           0       -1.885803   -0.915421   -1.195397
     17          1           0       -1.677963   -0.927685    0.552245
     18          1           0       -0.670356    1.377022    0.453623
     19          1           0       -0.879377    1.389356   -1.303949
     20          1           0        0.244696    0.243070   -0.554416
     21          6           0        3.508737    0.710889   -0.282696
     22          6           0        3.182923    1.871104    0.658437
     23          6           0        2.595665    3.078565   -0.072972
     24          1           0        4.215689    1.056429   -1.049354
     25          1           0        2.594575    0.410412   -0.813185
     26          1           0        4.097135    2.168392    1.188014
     27          1           0        2.476813    1.522710    1.423058
     28          1           0        1.669120    2.804063   -0.587525
     29          1           0        3.298650    3.453414   -0.823905
     30          1           0        2.370166    3.896238    0.618708
     31          6           0        4.096606   -0.503560    0.433720
     32          6           0        4.422418   -1.663776   -0.507413
     33          6           0        5.009677   -2.871237    0.223996
     34          1           0        5.010766   -0.203084    0.964210
     35          1           0        3.389652   -0.849101    1.200379
     36          1           0        5.128530   -1.315383   -1.272034
     37          1           0        3.508206   -1.961064   -1.036989
     38          1           0        4.306692   -3.246087    0.974929
     39          1           0        5.936222   -2.596736    0.738549
     40          1           0        5.235177   -3.688910   -0.467684
 ---------------------------------------------------------------------

 SCF Done:  E(RHF) =  -470.733013627     A.U. after   11 cycles
 E2 =    -0.1583220132D+01 EUMP2 =    -0.47231623375896D+03

 The electronic state is 1-A.
 Alpha  occ. eigenvalues --  -11.21672 -11.21628 -11.21588 -11.21519 -11.21448
 Alpha  occ. eigenvalues --  -11.21387 -11.21362 -11.21293 -11.21158 -11.21092
 Alpha  occ. eigenvalues --  -11.21059 -11.20933  -1.08480  -1.08383  -1.03595
 Alpha  occ. eigenvalues --   -1.03464  -0.96043  -0.95920  -0.87063  -0.86939
 Alpha  occ. eigenvalues --   -0.79673  -0.79521  -0.78291  -0.78197  -0.65113
 Alpha  occ. eigenvalues --   -0.65039  -0.61004  -0.60880  -0.59424  -0.59252
 Alpha  occ. eigenvalues --   -0.57681  -0.57516  -0.55333  -0.55206  -0.52758
 Alpha  occ. eigenvalues --   -0.52612  -0.52526  -0.52282  -0.49975  -0.49863
 Alpha  occ. eigenvalues --   -0.47956  -0.47845  -0.46687  -0.46563  -0.45829
 Alpha  occ. eigenvalues --   -0.45755  -0.45740  -0.45676  -0.43771  -0.43725
 Alpha virt. eigenvalues --    0.20913   0.22992   0.23807   0.24778   0.26075
 Alpha virt. eigenvalues --    0.26552   0.26806   0.27423   0.27874   0.28998
 Alpha virt. eigenvalues --    0.30631   0.31091   0.31739   0.31808   0.32104

 Mulliken charges:
               1
     1  C   -0.298269
     2  C   -0.299659
     3  C   -0.475730
     4  H    0.149726
     5  H    0.149551
     6  H    0.152024
     7  H    0.152016
     8  H    0.155208
     9  H    0.155221
    10  H    0.160368
    11  C   -0.298772
    12  C   -0.300438
    13  C   -0.482383
    14  H    0.149748
    15  H    0.149830
    16  H    0.152112
    17  H    0.151911
    18  H    0.156786
    19  H    0.155429
    20  H    0.165950
    21  C   -0.304035
    22  C   -0.299004
    23  C   -0.480850
    24  H    0.149752
    25  H    0.154129
    26  H    0.151482
    27  H    0.152144
    28  H    0.162909
    29  H    0.154215
    30  H    0.159254
    31  C   -0.298350
    32  C   -0.299467
    33  C   -0.475656
    34  H    0.149599
    35  H    0.149405
    36  H    0.152026
    37  H    0.151321
    38  H    0.155109
    39  H    0.155205
    40  H    0.160183
 Sum of Mulliken charges =  -0.00000

 Dipole moment (field-independent basis, Debye):
    X=             -0.0458    Y=             -0.0000    Z=             -0.0091  Tot=              0.0467
 Quadrupole moment (field-independent basis, Debye-Ang):
   XX=            -85.0272   YY=            -85.9975   ZZ=            -83.8804
   XY=              0.1510   XZ=             -0.0920   YZ=              0.3496

 Normal termination of Gaussian 16 at Wed May  5 23:08:55 2021.
