 Gaussian 16, Revision A.03,
 Gaussian 16:  EM64L-G16RevA.03 25-Dec-2016

 -------------
 #p 6-31g* mp2
 -------------

 ------------------------------------------------------
 Input file generated by CHIRIPA (05-May-2021 14:57:21)
 ------------------------------------------------------
 Symbolic Z-matrix:
 Charge =  0 Multiplicity = 1

                         Standard orientation:
 ---------------------------------------------------------------------
 Center     Atomic      Atomic             Coordinates (Angstroms)
 Number     Number       Type             X           Y           Z
 ---------------------------------------------------------------------
      1          6           0       -1.535759    0.683883   -0.520488
      2          6           0       -1.983878   -0.626304   -0.322696
      3          6           0       -3.334688   -0.884320   -0.071126
      4          6           0       -4.213857    0.196480   -0.023981
      5          6           0       -3.798015    1.512967   -0.216926
      6          6           0       -2.442659    1.747461   -0.467066
      7          1           0       -0.484651    0.875180   -0.715358
      8          1           0       -1.281824   -1.454247   -0.363622
      9          1           0       -3.708634   -1.888815    0.085634
     10          1           0       -4.521634    2.317709   -0.170202
     11          1           0       -2.097477    2.765997   -0.620293
     12          7           0       -5.646305   -0.064220    0.241588
     13          8           0       -6.400780    0.905353    0.278118
     14          8           0       -5.987461   -1.233192    0.408182
     15          6           0        1.969478   -1.758433   -0.091485
     16          6           0        2.685076   -1.420909   -1.244965
     17          6           0        3.799413   -0.580092   -1.168603
     18          6           0        4.171927   -0.092597    0.083145
     19          6           0        3.479432   -0.410626    1.250449
     20          6           0        2.368236   -1.253105    1.150352
     21          1           0        1.105054   -2.412245   -0.160023
     22          1           0        2.377687   -1.811876   -2.210729
     23          1           0        4.371472   -0.302685   -2.045649
     24          1           0        3.810003   -0.005323    2.199064
     25          1           0        1.814386   -1.513543    2.047830
     26          7           0        5.349962    0.798419    0.176550
     27          8           0        5.657759    1.214759    1.291251
     28          8           0        5.943203    1.063583   -0.866709
 ---------------------------------------------------------------------

 SCF Done:  E(RHF) =  -868.337203904     A.U. after   16 cycles
 E2 =    -0.2600092205D+01 EUMP2 =    -0.87093729610814D+03

 The electronic state is 1-A.
 Alpha  occ. eigenvalues --  -20.61530 -20.61525 -20.61181 -20.61171 -15.86587
 Alpha  occ. eigenvalues --  -15.86238 -11.32148 -11.31676 -11.28701 -11.28681
 Alpha  occ. eigenvalues --  -11.28589 -11.28323 -11.28238 -11.27999 -11.27821
 Alpha  occ. eigenvalues --  -11.27788 -11.27399 -11.27227  -1.60602  -1.60253
 Alpha  occ. eigenvalues --   -1.40149  -1.39805  -1.20341  -1.19870  -1.09726
 Alpha  occ. eigenvalues --   -1.09242  -1.05745  -1.05300  -0.96521  -0.96058
 Alpha  occ. eigenvalues --   -0.87140  -0.86695  -0.83327  -0.82901  -0.78321
 Alpha  occ. eigenvalues --   -0.77947  -0.72799  -0.72454  -0.71930  -0.71579
 Alpha  occ. eigenvalues --   -0.71506  -0.70941  -0.65985  -0.65745  -0.65522
 Alpha  occ. eigenvalues --   -0.65319  -0.63060  -0.62660  -0.56342  -0.55744
 Alpha  occ. eigenvalues --   -0.54096  -0.53822  -0.53609  -0.53382  -0.49575
 Alpha  occ. eigenvalues --   -0.49544  -0.49218  -0.49203  -0.45510  -0.45194
 Alpha  occ. eigenvalues --   -0.38390  -0.37841  -0.37342  -0.36909
 Alpha virt. eigenvalues --    0.04140   0.04618   0.10265   0.10763   0.15425
 Alpha virt. eigenvalues --    0.16086   0.18676   0.21753   0.24799   0.26473
 Alpha virt. eigenvalues --    0.27749   0.28588   0.29555   0.31622   0.31718

 Mulliken charges:
               1
     1  C   -0.172972
     2  C   -0.220530
     3  C   -0.171245
     4  C    0.158709
     5  C   -0.169874
     6  C   -0.218769
     7  H    0.230113
     8  H    0.213062
     9  H    0.275264
    10  H    0.277532
    11  H    0.226416
    12  N    0.488074
    13  O   -0.458685
    14  O   -0.460447
    15  C   -0.179637
    16  C   -0.220980
    17  C   -0.171554
    18  C    0.159361
    19  C   -0.171230
    20  C   -0.218753
    21  H    0.222923
    22  H    0.226207
    23  H    0.278508
    24  H    0.278972
    25  H    0.227562
    26  N    0.487739
    27  O   -0.457663
    28  O   -0.458105
 Sum of Mulliken charges =  -0.00000

 Dipole moment (field-independent basis, Debye):
    X=              1.0775    Y=             -2.0551    Z=             -1.2223  Tot=              2.6226
 Quadrupole moment (field-independent basis, Debye-Ang):
   XX=           -181.7520   YY=            -99.7406   ZZ=           -100.5753
   XY=            -16.9920   XZ=              1.5062   YZ=             -0.4502

 Normal termination of Gaussian 16 at Thu May  6 19:26:29 2021.
