 Gaussian 16, Revision A.03,
 Gaussian 16:  EM64L-G16RevA.03 25-Dec-2016

 -------------
 #p 6-31g* mp2
 -------------

 ------------------------------------------------------
 Input file generated by CHIRIPA (05-May-2021 14:51:09)
 ------------------------------------------------------
 Symbolic Z-matrix:
 Charge =  0 Multiplicity = 1

                         Standard orientation:
 ---------------------------------------------------------------------
 Center     Atomic      Atomic             Coordinates (Angstroms)
 Number     Number       Type             X           Y           Z
 ---------------------------------------------------------------------
      1          6           0       -2.590647   -0.567829   -0.389923
      2          6           0       -2.945571   -1.947026    0.166701
      3          6           0       -2.215583   -3.081010   -0.553711
      4          1           0       -2.831794   -0.538704   -1.461345
      5          1           0       -1.505360   -0.415878   -0.309560
      6          1           0       -4.030039   -2.095773    0.086581
      7          1           0       -2.703729   -1.972808    1.236964
      8          1           0       -1.131270   -2.960193   -0.462777
      9          1           0       -2.465116   -3.083856   -1.619697
     10          1           0       -2.483973   -4.058016   -0.139844
     11          6           0       -3.312505    0.576104    0.320052
     12          6           0       -2.957581    1.955301   -0.236572
     13          6           0       -3.687568    3.089285    0.483839
     14          1           0       -4.397791    0.424153    0.239689
     15          1           0       -3.071358    0.546979    1.391474
     16          1           0       -3.199423    1.981083   -1.306836
     17          1           0       -1.873113    2.104048   -0.156452
     18          1           0       -3.438036    3.092131    1.549825
     19          1           0       -4.771881    2.968468    0.392906
     20          1           0       -3.419178    4.066292    0.069973
     21          6           0        2.599159   -0.642671   -0.192020
     22          6           0        2.932145   -1.859087    0.672525
     23          6           0        2.219533   -3.128848    0.205959
     24          1           0        1.512719   -0.479913   -0.181852
     25          1           0        2.873477   -0.856246   -1.234388
     26          1           0        2.658558   -1.642764    1.713184
     27          1           0        4.017938   -2.018853    0.660451
     28          1           0        2.500571   -3.372064   -0.823829
     29          1           0        1.133468   -2.993840    0.234884
     30          1           0        2.471795   -3.986065    0.837942
     31          6           0        3.303993    0.634396    0.261892
     32          6           0        2.971006    1.850812   -0.602654
     33          6           0        3.683619    3.120573   -0.136088
     34          1           0        3.029674    0.847971    1.304259
     35          1           0        4.390433    0.471638    0.251723
     36          1           0        1.885214    2.010577   -0.590580
     37          1           0        3.244593    1.634489   -1.643313
     38          1           0        4.769684    2.985564   -0.165013
     39          1           0        3.402581    3.363789    0.893701
     40          1           0        3.431356    3.977790   -0.768071
 ---------------------------------------------------------------------

 SCF Done:  E(RHF) =  -470.733383937     A.U. after   11 cycles
 E2 =    -0.1583102565D+01 EUMP2 =    -0.47231648650172D+03

 The electronic state is 1-A.
 Alpha  occ. eigenvalues --  -11.21638 -11.21637 -11.21631 -11.21623 -11.21449
 Alpha  occ. eigenvalues --  -11.21443 -11.21388 -11.21383 -11.21096 -11.21092
 Alpha  occ. eigenvalues --  -11.21090 -11.21057  -1.08474  -1.08457  -1.03573
 Alpha  occ. eigenvalues --   -1.03542  -0.96035  -0.95979  -0.87064  -0.86982
 Alpha  occ. eigenvalues --   -0.79668  -0.79573  -0.78320  -0.78234  -0.65178
 Alpha  occ. eigenvalues --   -0.65021  -0.61085  -0.60844  -0.59393  -0.59351
 Alpha  occ. eigenvalues --   -0.57698  -0.57550  -0.55493  -0.55122  -0.52707
 Alpha  occ. eigenvalues --   -0.52686  -0.52556  -0.52308  -0.50149  -0.49738
 Alpha  occ. eigenvalues --   -0.48070  -0.47821  -0.46811  -0.46490  -0.46042
 Alpha  occ. eigenvalues --   -0.45787  -0.45776  -0.45461  -0.43819  -0.43808
 Alpha virt. eigenvalues --    0.19854   0.22938   0.23479   0.24801   0.25035
 Alpha virt. eigenvalues --    0.26448   0.27039   0.27101   0.28710   0.29671
 Alpha virt. eigenvalues --    0.30086   0.31562   0.31691   0.31739   0.31862

 Mulliken charges:
               1
     1  C   -0.301174
     2  C   -0.299343
     3  C   -0.483321
     4  H    0.150231
     5  H    0.150980
     6  H    0.152214
     7  H    0.151605
     8  H    0.162108
     9  H    0.155604
    10  H    0.160587
    11  C   -0.298272
    12  C   -0.299601
    13  C   -0.475734
    14  H    0.149877
    15  H    0.149515
    16  H    0.152275
    17  H    0.151275
    18  H    0.155139
    19  H    0.155333
    20  H    0.160426
    21  C   -0.301199
    22  C   -0.299293
    23  C   -0.483002
    24  H    0.151091
    25  H    0.150119
    26  H    0.151703
    27  H    0.152288
    28  H    0.155734
    29  H    0.161627
    30  H    0.160796
    31  C   -0.298277
    32  C   -0.299701
    33  C   -0.475743
    34  H    0.149389
    35  H    0.149997
    36  H    0.151623
    37  H    0.152252
    38  H    0.155276
    39  H    0.155143
    40  H    0.160454
 Sum of Mulliken charges =  -0.00000

 Dipole moment (field-independent basis, Debye):
    X=              0.0062    Y=             -0.0076    Z=             -0.0128  Tot=              0.0161
 Quadrupole moment (field-independent basis, Debye-Ang):
   XX=            -83.8358   YY=            -86.5498   ZZ=            -84.1703
   XY=             -0.1666   XZ=              0.1307   YZ=             -0.4159

 Normal termination of Gaussian 16 at Wed May  5 16:39:01 2021.
