 Gaussian 16, Revision A.03,
 Gaussian 16:  EM64L-G16RevA.03 25-Dec-2016

 -------------
 #p 6-31g* mp2
 -------------

 ------------------------------------------------------
 Input file generated by CHIRIPA (05-May-2021 14:53:11)
 ------------------------------------------------------
 Symbolic Z-matrix:
 Charge =  0 Multiplicity = 1

                         Standard orientation:
 ---------------------------------------------------------------------
 Center     Atomic      Atomic             Coordinates (Angstroms)
 Number     Number       Type             X           Y           Z
 ---------------------------------------------------------------------
      1          6           0        4.331700    0.262891    0.192943
      2          6           0        5.683959    0.675238   -0.389596
      3          6           0        6.543109    1.455768    0.605607
      4          1           0        3.791198    1.161611    0.520211
      5          1           0        4.498088   -0.346524    1.092011
      6          1           0        5.515082    1.282540   -1.288084
      7          1           0        6.221224   -0.224553   -0.715690
      8          1           0        6.740889    0.854089    1.498617
      9          1           0        6.030735    2.369745    0.922971
     10          1           0        7.505229    1.740539    0.168466
     11          6           0        3.461417   -0.518207   -0.790022
     12          6           0        2.109159   -0.930555   -0.207484
     13          6           0        1.250008   -1.711084   -1.202686
     14          1           0        3.295029    0.091208   -1.689090
     15          1           0        4.001920   -1.416927   -1.117290
     16          1           0        1.571893   -0.030763    0.118611
     17          1           0        2.278036   -1.537856    0.691005
     18          1           0        1.762383   -2.625061   -1.520050
     19          1           0        1.052229   -1.109405   -2.095696
     20          1           0        0.287889   -1.995855   -0.765546
     21          6           0       -4.293991    2.114519   -0.629640
     22          6           0       -3.268874    2.275512    0.308304
     23          6           0       -2.569654    1.166284    0.793331
     24          6           0       -2.923360   -0.095049    0.316653
     25          6           0       -3.939843   -0.287932   -0.617610
     26          6           0       -4.625619    0.835565   -1.088793
     27          1           0       -4.831940    2.981736   -1.001044
     28          1           0       -3.009174    3.267569    0.666666
     29          1           0       -1.771750    1.262259    1.519661
     30          1           0       -4.176022   -1.289455   -0.956120
     31          1           0       -5.421288    0.707531   -1.817192
     32          7           0       -2.190244   -1.276893    0.822802
     33          8           0       -2.521027   -2.377497    0.387042
     34          8           0       -1.298725   -1.080237    1.645699
 ---------------------------------------------------------------------

 SCF Done:  E(RHF) =  -669.536202942     A.U. after   15 cycles
 E2 =    -0.2091613771D+01 EUMP2 =    -0.67162781671356D+03

 The electronic state is 1-A.
 Alpha  occ. eigenvalues --  -20.60947 -20.60938 -15.85956 -11.31279 -11.27844
 Alpha  occ. eigenvalues --  -11.27839 -11.27583 -11.26850 -11.26840 -11.21234
 Alpha  occ. eigenvalues --  -11.20895 -11.20783 -11.20744 -11.20657 -11.20083
 Alpha  occ. eigenvalues --   -1.60003  -1.39554  -1.19448  -1.08854  -1.07842
 Alpha  occ. eigenvalues --   -1.04844  -1.02893  -0.95697  -0.95361  -0.86386
 Alpha  occ. eigenvalues --   -0.86244  -0.82530  -0.78975  -0.77636  -0.77568
 Alpha  occ. eigenvalues --   -0.72175  -0.71341  -0.70558  -0.65102  -0.64847
 Alpha  occ. eigenvalues --   -0.64486  -0.62191  -0.60305  -0.58731  -0.56930
 Alpha  occ. eigenvalues --   -0.55349  -0.54676  -0.53177  -0.52936  -0.52027
 Alpha  occ. eigenvalues --   -0.51784  -0.49338  -0.48945  -0.48931  -0.47279
 Alpha  occ. eigenvalues --   -0.46033  -0.45218  -0.45094  -0.44906  -0.43141
 Alpha  occ. eigenvalues --   -0.37426  -0.36443
 Alpha virt. eigenvalues --    0.04900   0.11204   0.16386   0.21303   0.23372
 Alpha virt. eigenvalues --    0.24851   0.26993   0.27345   0.27826   0.28392
 Alpha virt. eigenvalues --    0.28634   0.30785   0.31770   0.32171   0.32729

 Mulliken charges:
               1
     1  C   -0.297193
     2  C   -0.299033
     3  C   -0.475238
     4  H    0.146817
     5  H    0.150900
     6  H    0.150092
     7  H    0.151874
     8  H    0.155570
     9  H    0.153587
    10  H    0.158830
    11  C   -0.298543
    12  C   -0.294715
    13  C   -0.483319
    14  H    0.145384
    15  H    0.148661
    16  H    0.148070
    17  H    0.159043
    18  H    0.153737
    19  H    0.146444
    20  H    0.174989
    21  C   -0.170497
    22  C   -0.218660
    23  C   -0.171007
    24  C    0.158935
    25  C   -0.170596
    26  C   -0.218640
    27  H    0.225961
    28  H    0.223747
    29  H    0.275969
    30  H    0.276007
    31  H    0.223837
    32  N    0.487109
    33  O   -0.459681
    34  O   -0.458442
 Sum of Mulliken charges =  -0.00000

 Dipole moment (field-independent basis, Debye):
    X=             -2.7955    Y=              4.0875    Z=             -1.6720  Tot=              5.2267
 Quadrupole moment (field-independent basis, Debye-Ang):
   XX=            -79.4509   YY=            -93.6091   ZZ=            -95.2536
   XY=            -11.2826   XZ=              6.3937   YZ=              2.6967

 Normal termination of Gaussian 16 at Thu May  6 04:02:55 2021.
