 Gaussian 16, Revision A.03,
 Gaussian 16:  EM64L-G16RevA.03 25-Dec-2016

 -------------
 #p 6-31g* mp2
 -------------

 ------------------------------------------------------
 Input file generated by CHIRIPA (05-May-2021 14:53:18)
 ------------------------------------------------------
 Symbolic Z-matrix:
 Charge =  0 Multiplicity = 1

                         Standard orientation:
 ---------------------------------------------------------------------
 Center     Atomic      Atomic             Coordinates (Angstroms)
 Number     Number       Type             X           Y           Z
 ---------------------------------------------------------------------
      1          6           0       -3.854796   -0.427323   -0.026248
      2          6           0       -2.822876    0.088519    0.977262
      3          6           0       -1.409778   -0.416771    0.684634
      4          1           0       -3.847621   -1.525879   -0.017960
      5          1           0       -3.556925   -0.120429   -1.038416
      6          1           0       -3.123337   -0.218075    1.987381
      7          1           0       -2.832644    1.185975    0.966723
      8          1           0       -1.085479   -0.098663   -0.311478
      9          1           0       -1.377824   -1.510690    0.714979
     10          1           0       -0.688154   -0.035922    1.414067
     11          6           0       -5.272261    0.069180    0.253049
     12          6           0       -6.304181   -0.446662   -0.750461
     13          6           0       -7.717279    0.058628   -0.457832
     14          1           0       -5.570132   -0.237714    1.265217
     15          1           0       -5.279436    1.167736    0.244762
     16          1           0       -6.294413   -1.544118   -0.739922
     17          1           0       -6.003720   -0.140068   -1.760579
     18          1           0       -7.749233    1.152547   -0.488177
     19          1           0       -8.041578   -0.259480    0.538279
     20          1           0       -8.438903   -0.322220   -1.187265
     21          6           0        4.962416   -1.960355   -0.141526
     22          6           0        3.574418   -2.046558    0.008643
     23          6           0        2.790359   -0.889467    0.039314
     24          6           0        3.430185    0.342944   -0.083477
     25          6           0        4.810929    0.461581   -0.234339
     26          6           0        5.575162   -0.708767   -0.262325
     27          1           0        5.563791   -2.864359   -0.164310
     28          1           0        3.095840   -3.017209    0.102682
     29          1           0        1.713919   -0.927305    0.154472
     30          1           0        5.259415    1.443380   -0.325706
     31          1           0        6.652901   -0.638791   -0.379063
     32          7           0        2.610631    1.574922   -0.052428
     33          8           0        3.198451    2.648683   -0.162612
     34          8           0        1.395965    1.443457    0.081505
 ---------------------------------------------------------------------

 SCF Done:  E(RHF) =  -669.535533825     A.U. after   15 cycles
 E2 =    -0.2091513154D+01 EUMP2 =    -0.67162704697880D+03

 The electronic state is 1-A.
 Alpha  occ. eigenvalues --  -20.60814 -20.60788 -15.85845 -11.31179 -11.27758
 Alpha  occ. eigenvalues --  -11.27714 -11.27499 -11.26767 -11.26749 -11.21290
 Alpha  occ. eigenvalues --  -11.21003 -11.20984 -11.20896 -11.20799 -11.20328
 Alpha  occ. eigenvalues --   -1.59881  -1.39436  -1.19355  -1.08761  -1.07984
 Alpha  occ. eigenvalues --   -1.04751  -1.03056  -0.95643  -0.95470  -0.86548
 Alpha  occ. eigenvalues --   -0.86149  -0.82433  -0.79157  -0.77815  -0.77451
 Alpha  occ. eigenvalues --   -0.72079  -0.71199  -0.70465  -0.65015  -0.64757
 Alpha  occ. eigenvalues --   -0.64609  -0.62100  -0.60441  -0.58870  -0.57113
 Alpha  occ. eigenvalues --   -0.55263  -0.54791  -0.53087  -0.52874  -0.52162
 Alpha  occ. eigenvalues --   -0.51946  -0.49500  -0.48831  -0.48765  -0.47458
 Alpha  occ. eigenvalues --   -0.46158  -0.45347  -0.45258  -0.44834  -0.43291
 Alpha  occ. eigenvalues --   -0.37343  -0.36355
 Alpha virt. eigenvalues --    0.05019   0.11291   0.16508   0.21175   0.23314
 Alpha virt. eigenvalues --    0.24692   0.26157   0.27079   0.27729   0.27970
 Alpha virt. eigenvalues --    0.29270   0.30598   0.31659   0.31859   0.32483

 Mulliken charges:
               1
     1  C   -0.298379
     2  C   -0.300598
     3  C   -0.478879
     4  H    0.145822
     5  H    0.150436
     6  H    0.148185
     7  H    0.158524
     8  H    0.164744
     9  H    0.139861
    10  H    0.169748
    11  C   -0.298164
    12  C   -0.299261
    13  C   -0.475502
    14  H    0.148316
    15  H    0.151129
    16  H    0.150288
    17  H    0.151997
    18  H    0.155696
    19  H    0.154510
    20  H    0.159096
    21  C   -0.170247
    22  C   -0.221248
    23  C   -0.175549
    24  C    0.155397
    25  C   -0.170265
    26  C   -0.219085
    27  H    0.225540
    28  H    0.224048
    29  H    0.288258
    30  H    0.275425
    31  H    0.223333
    32  N    0.491043
    33  O   -0.460160
    34  O   -0.464060
 Sum of Mulliken charges =  -0.00000

 Dipole moment (field-independent basis, Debye):
    X=              3.0061    Y=             -4.1943    Z=             -0.1227  Tot=              5.1618
 Quadrupole moment (field-independent basis, Debye-Ang):
   XX=            -73.4550   YY=            -96.2020   ZZ=            -95.3057
   XY=            -11.4529   XZ=             -1.1511   YZ=             -0.4555

 Normal termination of Gaussian 16 at Wed May  5 18:49:44 2021.
