 Gaussian 16, Revision A.03,
 Gaussian 16:  EM64L-G16RevA.03 25-Dec-2016

 -------------
 #p 6-31g* mp2
 -------------

 ------------------------------------------------------
 Input file generated by CHIRIPA (05-May-2021 14:57:25)
 ------------------------------------------------------
 Symbolic Z-matrix:
 Charge =  0 Multiplicity = 1

                         Standard orientation:
 ---------------------------------------------------------------------
 Center     Atomic      Atomic             Coordinates (Angstroms)
 Number     Number       Type             X           Y           Z
 ---------------------------------------------------------------------
      1          6           0        6.220147    0.052616   -0.429559
      2          6           0        5.537167    1.085708    0.220657
      3          6           0        4.172936    0.967680    0.502597
      4          6           0        3.519982   -0.202518    0.118439
      5          6           0        4.172709   -1.249345   -0.530707
      6          6           0        5.536943   -1.109564   -0.802508
      7          1           0        7.279916    0.152751   -0.644639
      8          1           0        6.065187    1.989408    0.511457
      9          1           0        3.619716    1.751996    1.004808
     10          1           0        3.619319   -2.138221   -0.808331
     11          1           0        6.064788   -1.913498   -1.307596
     12          7           0        2.075730   -0.338982    0.411550
     13          8           0        1.523300   -1.380040    0.062756
     14          8           0        1.523502    0.597698    0.984534
     15          6           0       -5.257509   -1.841624    0.104106
     16          6           0       -5.791797   -0.603839   -0.268646
     17          6           0       -4.970365    0.523035   -0.368403
     18          6           0       -3.613046    0.375472   -0.086976
     19          6           0       -3.050917   -0.844182    0.286850
     20          6           0       -3.891182   -1.957641    0.380178
     21          1           0       -5.902932   -2.711797    0.179102
     22          1           0       -6.852535   -0.510783   -0.483636
     23          1           0       -5.357695    1.493272   -0.654819
     24          1           0       -1.989637   -0.905785    0.494955
     25          1           0       -3.473491   -2.917665    0.669888
     26          7           0       -2.733464    1.561343   -0.189180
     27          8           0       -1.540943    1.405033    0.063999
     28          8           0       -3.253222    2.624684   -0.520532
 ---------------------------------------------------------------------

 SCF Done:  E(RHF) =  -868.337567832     A.U. after   16 cycles
 E2 =    -0.2599998726D+01 EUMP2 =    -0.87093756655886D+03

 The electronic state is 1-A.
 Alpha  occ. eigenvalues --  -20.60403 -20.60283 -20.59489 -20.59381 -15.85360
 Alpha  occ. eigenvalues --  -15.84478 -11.30835 -11.30019 -11.27444 -11.27380
 Alpha  occ. eigenvalues --  -11.27191 -11.26712 -11.26488 -11.26477 -11.26470
 Alpha  occ. eigenvalues --  -11.26437 -11.25770 -11.25650  -1.59387  -1.58532
 Alpha  occ. eigenvalues --   -1.38940  -1.38065  -1.19017  -1.18238  -1.08396
 Alpha  occ. eigenvalues --   -1.07623  -1.04436  -1.03655  -0.95213  -0.94408
 Alpha  occ. eigenvalues --   -0.85830  -0.85050  -0.82045  -0.81219  -0.77074
 Alpha  occ. eigenvalues --   -0.76220  -0.71597  -0.70783  -0.70573  -0.70131
 Alpha  occ. eigenvalues --   -0.69874  -0.69345  -0.64670  -0.64445  -0.63880
 Alpha  occ. eigenvalues --   -0.63669  -0.61781  -0.60968  -0.54943  -0.54199
 Alpha  occ. eigenvalues --   -0.52760  -0.52532  -0.52005  -0.51741  -0.48388
 Alpha  occ. eigenvalues --   -0.48322  -0.47507  -0.47399  -0.44308  -0.43438
 Alpha  occ. eigenvalues --   -0.37007  -0.36275  -0.36043  -0.35273
 Alpha virt. eigenvalues --    0.05471   0.06284   0.11609   0.12372   0.16937
 Alpha virt. eigenvalues --    0.17717   0.21713   0.22476   0.27620   0.28372
 Alpha virt. eigenvalues --    0.28625   0.29461   0.31249   0.31977   0.32885

 Mulliken charges:
               1
     1  C   -0.171159
     2  C   -0.218683
     3  C   -0.170272
     4  C    0.159021
     5  C   -0.171296
     6  C   -0.218627
     7  H    0.224432
     8  H    0.223340
     9  H    0.278872
    10  H    0.273276
    11  H    0.221725
    12  N    0.488721
    13  O   -0.472226
    14  O   -0.444436
    15  C   -0.171751
    16  C   -0.219643
    17  C   -0.172154
    18  C    0.155843
    19  C   -0.175136
    20  C   -0.220524
    21  H    0.221288
    22  H    0.218927
    23  H    0.272248
    24  H    0.294971
    25  H    0.222861
    26  N    0.486554
    27  O   -0.445835
    28  O   -0.470338
 Sum of Mulliken charges =  -0.00000

 Dipole moment (field-independent basis, Debye):
    X=              2.3643    Y=             -3.5670    Z=             -0.5291  Tot=              4.3119
 Quadrupole moment (field-independent basis, Debye-Ang):
   XX=            -47.1636   YY=           -103.5819   ZZ=           -105.4561
   XY=             12.8290   XZ=             -3.0285   YZ=              2.2948

 Normal termination of Gaussian 16 at Thu May  6 08:18:33 2021.
