 Gaussian 16, Revision A.03,
 Gaussian 16:  EM64L-G16RevA.03 25-Dec-2016

 -------------
 #p 6-31g* mp2
 -------------

 ------------------------------------------------------
 Input file generated by CHIRIPA (05-May-2021 14:51:11)
 ------------------------------------------------------
 Symbolic Z-matrix:
 Charge =  0 Multiplicity = 1

                         Standard orientation:
 ---------------------------------------------------------------------
 Center     Atomic      Atomic             Coordinates (Angstroms)
 Number     Number       Type             X           Y           Z
 ---------------------------------------------------------------------
      1          6           0       -3.281667   -0.646251   -0.273523
      2          6           0       -4.309873   -1.757051   -0.056959
      3          6           0       -3.712821   -3.155195   -0.219800
      4          1           0       -2.848709   -0.746887   -1.278195
      5          1           0       -2.454635   -0.777927    0.437866
      6          1           0       -5.135391   -1.622516   -0.767619
      7          1           0       -4.740573   -1.653645    0.947242
      8          1           0       -2.902528   -3.314185    0.499053
      9          1           0       -3.299589   -3.282880   -1.225552
     10          1           0       -4.465140   -3.934021   -0.060728
     11          6           0       -3.863440    0.757263   -0.114103
     12          6           0       -2.835234    1.868063   -0.330667
     13          6           0       -3.432287    3.266207   -0.167827
     14          1           0       -4.690472    0.888939   -0.825492
     15          1           0       -4.296398    0.857899    0.890568
     16          1           0       -2.404534    1.764657   -1.334869
     17          1           0       -2.009716    1.733529    0.379993
     18          1           0       -3.845518    3.393892    0.837926
     19          1           0       -4.242579    3.425197   -0.886679
     20          1           0       -2.679967    4.045034   -0.326898
     21          6           0        2.827084   -0.062109    0.027488
     22          6           0        1.929538    0.029172    1.262018
     23          6           0        0.440983    0.014820    0.913028
     24          1           0        2.598955    0.774896   -0.646548
     25          1           0        2.587694   -0.981806   -0.524095
     26          1           0        2.171505    0.947728    1.811854
     27          1           0        2.159963   -0.808040    1.933283
     28          1           0        0.178115   -0.907146    0.384371
     29          1           0        0.189723    0.858598    0.262252
     30          1           0       -0.182365    0.080966    1.810202
     31          6           0        4.318023   -0.048904    0.360138
     32          6           0        5.215570   -0.140183   -0.874391
     33          6           0        6.704124   -0.125833   -0.525401
     34          1           0        4.557412    0.870793    0.911722
     35          1           0        4.546152   -0.885908    1.034175
     36          1           0        4.985143    0.697028   -1.545657
     37          1           0        4.973602   -1.058740   -1.424228
     38          1           0        6.955385   -0.969610    0.125374
     39          1           0        6.966992    0.796134    0.003256
     40          1           0        7.327472   -0.191979   -1.422575
 ---------------------------------------------------------------------

 SCF Done:  E(RHF) =  -470.732346267     A.U. after   11 cycles
 E2 =    -0.1583613317D+01 EUMP2 =    -0.47231595958365D+03

 The electronic state is 1-A.
 Alpha  occ. eigenvalues --  -11.21608 -11.21603 -11.21526 -11.21461 -11.21415
 Alpha  occ. eigenvalues --  -11.21355 -11.21294 -11.21211 -11.21076 -11.21066
 Alpha  occ. eigenvalues --  -11.21033 -11.21007  -1.08446  -1.08332  -1.03548
 Alpha  occ. eigenvalues --   -1.03451  -0.96009  -0.95900  -0.87033  -0.86923
 Alpha  occ. eigenvalues --   -0.79676  -0.79500  -0.78303  -0.78061  -0.65076
 Alpha  occ. eigenvalues --   -0.64972  -0.61034  -0.60785  -0.59374  -0.59276
 Alpha  occ. eigenvalues --   -0.57607  -0.57524  -0.55350  -0.55144  -0.52782
 Alpha  occ. eigenvalues --   -0.52589  -0.52403  -0.52333  -0.50076  -0.49751
 Alpha  occ. eigenvalues --   -0.48001  -0.47800  -0.46758  -0.46364  -0.45962
 Alpha  occ. eigenvalues --   -0.45702  -0.45653  -0.45397  -0.43754  -0.43674
 Alpha virt. eigenvalues --    0.22106   0.22997   0.24158   0.24296   0.25717
 Alpha virt. eigenvalues --    0.26584   0.26868   0.27524   0.27909   0.29660
 Alpha virt. eigenvalues --    0.30289   0.31242   0.31851   0.31862   0.32247

 Mulliken charges:
               1
     1  C   -0.305154
     2  C   -0.299154
     3  C   -0.475719
     4  H    0.148562
     5  H    0.159818
     6  H    0.151526
     7  H    0.151410
     8  H    0.154740
     9  H    0.154877
    10  H    0.160058
    11  C   -0.297646
    12  C   -0.306261
    13  C   -0.475129
    14  H    0.148846
    15  H    0.148673
    16  H    0.150581
    17  H    0.160833
    18  H    0.154743
    19  H    0.154818
    20  H    0.159335
    21  C   -0.298709
    22  C   -0.300594
    23  C   -0.479630
    24  H    0.149840
    25  H    0.149706
    26  H    0.151691
    27  H    0.151681
    28  H    0.157048
    29  H    0.160790
    30  H    0.158299
    31  C   -0.298288
    32  C   -0.299637
    33  C   -0.475709
    34  H    0.149518
    35  H    0.149676
    36  H    0.151938
    37  H    0.151967
    38  H    0.155193
    39  H    0.155180
    40  H    0.160281
 Sum of Mulliken charges =  -0.00000

 Dipole moment (field-independent basis, Debye):
    X=              0.0503    Y=             -0.0064    Z=              0.0088  Tot=              0.0514
 Quadrupole moment (field-independent basis, Debye-Ang):
   XX=            -86.3856   YY=            -85.0226   ZZ=            -83.8444
   XY=              0.3506   XZ=              0.0659   YZ=             -0.1677

 Normal termination of Gaussian 16 at Wed May  5 21:28:35 2021.
