 Gaussian 16, Revision A.03,
 Gaussian 16:  EM64L-G16RevA.03 25-Dec-2016

 -------------
 #p 6-31g* mp2
 -------------

 ------------------------------------------------------
 Input file generated by CHIRIPA (05-May-2021 14:51:10)
 ------------------------------------------------------
 Symbolic Z-matrix:
 Charge =  0 Multiplicity = 1

                         Standard orientation:
 ---------------------------------------------------------------------
 Center     Atomic      Atomic             Coordinates (Angstroms)
 Number     Number       Type             X           Y           Z
 ---------------------------------------------------------------------
      1          6           0       -3.588920    0.286892    0.517497
      2          6           0       -2.505358   -0.369611    1.373583
      3          6           0       -1.402049    0.607009    1.781893
      4          1           0       -3.126586    0.716763   -0.381614
      5          1           0       -4.028347    1.125902    1.074598
      6          1           0       -2.069061   -1.207997    0.815578
      7          1           0       -2.970354   -0.798136    2.270668
      8          1           0       -1.817993    1.438076    2.360614
      9          1           0       -0.911579    1.025887    0.897257
     10          1           0       -0.637993    0.116772    2.393241
     11          6           0       -4.698889   -0.676727    0.101401
     12          6           0       -5.782451   -0.020224   -0.754685
     13          6           0       -6.885760   -0.996844   -1.162995
     14          1           0       -4.259462   -1.515737   -0.455700
     15          1           0       -5.161224   -1.106598    1.000513
     16          1           0       -5.317455    0.408301   -1.651770
     17          1           0       -6.218748    0.818162   -0.196680
     18          1           0       -7.376231   -1.415722   -0.278359
     19          1           0       -6.469817   -1.827912   -1.741716
     20          1           0       -7.649816   -0.506607   -1.774343
     21          6           0        4.798837   -0.011247    0.025203
     22          6           0        5.348564   -1.342934   -0.487040
     23          6           0        6.659143   -1.741863    0.191956
     24          1           0        5.550183    0.774153   -0.134703
     25          1           0        4.644356   -0.079625    1.110955
     26          1           0        5.500658   -1.272519   -1.571717
     27          1           0        4.595747   -2.125219   -0.326070
     28          1           0        6.518568   -1.839721    1.273281
     29          1           0        7.428621   -0.982175    0.020558
     30          1           0        7.034307   -2.696771   -0.189178
     31          6           0        3.488973    0.401082   -0.644101
     32          6           0        2.939245    1.732770   -0.131858
     33          6           0        1.628667    2.131698   -0.810855
     34          1           0        3.643453    0.469460   -1.729853
     35          1           0        2.737626   -0.384317   -0.484195
     36          1           0        3.692063    2.515054   -0.292828
     37          1           0        2.787151    1.662354    0.952820
     38          1           0        0.859188    1.372011   -0.639455
     39          1           0        1.769242    2.229556   -1.892180
     40          1           0        1.253502    3.086606   -0.429721
 ---------------------------------------------------------------------

 SCF Done:  E(RHF) =  -470.733240894     A.U. after   11 cycles
 E2 =    -0.1582314927D+01 EUMP2 =    -0.47231555582039D+03

 The electronic state is 1-A.
 Alpha  occ. eigenvalues --  -11.21603 -11.21600 -11.21594 -11.21589 -11.21400
 Alpha  occ. eigenvalues --  -11.21400 -11.21341 -11.21340 -11.21069 -11.21066
 Alpha  occ. eigenvalues --  -11.21065 -11.21042  -1.08431  -1.08420  -1.03545
 Alpha  occ. eigenvalues --   -1.03507  -0.96014  -0.95941  -0.87045  -0.86945
 Alpha  occ. eigenvalues --   -0.79632  -0.79547  -0.78247  -0.78228  -0.65100
 Alpha  occ. eigenvalues --   -0.65018  -0.61073  -0.60798  -0.59346  -0.59339
 Alpha  occ. eigenvalues --   -0.57617  -0.57562  -0.55503  -0.55057  -0.52686
 Alpha  occ. eigenvalues --   -0.52664  -0.52463  -0.52333  -0.50148  -0.49691
 Alpha  occ. eigenvalues --   -0.47964  -0.47843  -0.46742  -0.46474  -0.45814
 Alpha  occ. eigenvalues --   -0.45751  -0.45717  -0.45647  -0.43784  -0.43777
 Alpha virt. eigenvalues --    0.21666   0.23060   0.23601   0.24905   0.26237
 Alpha virt. eigenvalues --    0.26778   0.27152   0.27583   0.27752   0.28891
 Alpha virt. eigenvalues --    0.30655   0.31523   0.31745   0.31896   0.32099

 Mulliken charges:
               1
     1  C   -0.298377
     2  C   -0.299348
     3  C   -0.482655
     4  H    0.149871
     5  H    0.149621
     6  H    0.151363
     7  H    0.151919
     8  H    0.155382
     9  H    0.162578
    10  H    0.159309
    11  C   -0.298297
    12  C   -0.299685
    13  C   -0.475708
    14  H    0.149469
    15  H    0.149610
    16  H    0.152085
    17  H    0.151936
    18  H    0.155139
    19  H    0.155172
    20  H    0.160264
    21  C   -0.298326
    22  C   -0.299653
    23  C   -0.475703
    24  H    0.149652
    25  H    0.149627
    26  H    0.151875
    27  H    0.151898
    28  H    0.155204
    29  H    0.155187
    30  H    0.160224
    31  C   -0.298525
    32  C   -0.299598
    33  C   -0.480077
    34  H    0.149350
    35  H    0.149767
    36  H    0.151937
    37  H    0.152868
    38  H    0.158994
    39  H    0.155000
    40  H    0.160650
 Sum of Mulliken charges =  -0.00000

 Dipole moment (field-independent basis, Debye):
    X=              0.0053    Y=              0.0151    Z=             -0.0033  Tot=              0.0163
 Quadrupole moment (field-independent basis, Debye-Ang):
   XX=            -85.9101   YY=            -85.0090   ZZ=            -83.8721
   XY=              0.0250   XZ=             -1.5142   YZ=             -0.1913

 Normal termination of Gaussian 16 at Wed May  5 16:41:09 2021.
