 Gaussian 16, Revision A.03,
 Gaussian 16:  EM64L-G16RevA.03 25-Dec-2016

 -------------
 #p 6-31g* mp2
 -------------

 ------------------------------------------------------
 Input file generated by CHIRIPA (05-May-2021 14:51:09)
 ------------------------------------------------------
 Symbolic Z-matrix:
 Charge =  0 Multiplicity = 1

                         Standard orientation:
 ---------------------------------------------------------------------
 Center     Atomic      Atomic             Coordinates (Angstroms)
 Number     Number       Type             X           Y           Z
 ---------------------------------------------------------------------
      1          6           0       -4.133402    0.894844    0.119049
      2          6           0       -2.799106    1.309055   -0.502294
      3          6           0       -2.379250    2.726162   -0.110731
      4          1           0       -4.910871    1.607395   -0.188779
      5          1           0       -4.058653    0.967055    1.212938
      6          1           0       -2.875912    1.234758   -1.594629
      7          1           0       -2.024762    0.595325   -0.193106
      8          1           0       -2.274890    2.810669    0.975808
      9          1           0       -3.130877    3.453735   -0.433679
     10          1           0       -1.422806    3.001709   -0.565868
     11          6           0       -4.566575   -0.519385   -0.263113
     12          6           0       -5.900871   -0.933595    0.358230
     13          6           0       -6.320727   -2.350703   -0.033332
     14          1           0       -4.641324   -0.591595   -1.357002
     15          1           0       -3.789106   -1.231936    0.044716
     16          1           0       -6.675215   -0.219866    0.049042
     17          1           0       -5.824065   -0.859298    1.450566
     18          1           0       -5.569100   -3.078276    0.289615
     19          1           0       -6.425087   -2.435210   -1.119872
     20          1           0       -7.277171   -2.626250    0.421804
     21          6           0        4.935377   -0.601878   -0.191092
     22          6           0        6.300953   -0.055658    0.227036
     23          6           0        7.462088   -0.894916   -0.307012
     24          1           0        4.836461   -1.636270    0.165552
     25          1           0        4.885005   -0.643274   -1.287970
     26          1           0        6.348221   -0.014004    1.322775
     27          1           0        6.396553    0.977618   -0.130479
     28          1           0        7.443083   -0.926784   -1.401189
     29          1           0        7.394476   -1.924040    0.060323
     30          1           0        8.428808   -0.486589    0.003760
     31          6           0        3.764600    0.226418    0.335155
     32          6           0        2.399024   -0.319801   -0.082972
     33          6           0        1.237889    0.519457    0.451076
     34          1           0        3.814972    0.267816    1.432034
     35          1           0        3.863516    1.260811   -0.021488
     36          1           0        2.303423   -1.353078    0.274542
     37          1           0        2.351757   -0.361455   -1.178712
     38          1           0        1.305501    1.548581    0.083741
     39          1           0        1.256894    0.551324    1.545252
     40          1           0        0.271168    0.111130    0.140304
 ---------------------------------------------------------------------

 SCF Done:  E(RHF) =  -470.733216950     A.U. after   11 cycles
 E2 =    -0.1582539097D+01 EUMP2 =    -0.47231575604668D+03

 The electronic state is 1-A.
 Alpha  occ. eigenvalues --  -11.21610 -11.21605 -11.21586 -11.21537 -11.21411
 Alpha  occ. eigenvalues --  -11.21379 -11.21352 -11.21316 -11.21074 -11.21069
 Alpha  occ. eigenvalues --  -11.21060 -11.21003  -1.08438  -1.08398  -1.03549
 Alpha  occ. eigenvalues --   -1.03482  -0.96006  -0.95924  -0.87006  -0.86958
 Alpha  occ. eigenvalues --   -0.79627  -0.79535  -0.78252  -0.78212  -0.65067
 Alpha  occ. eigenvalues --   -0.65038  -0.60952  -0.60911  -0.59455  -0.59215
 Alpha  occ. eigenvalues --   -0.57638  -0.57513  -0.55282  -0.55220  -0.52726
 Alpha  occ. eigenvalues --   -0.52602  -0.52438  -0.52344  -0.49925  -0.49880
 Alpha  occ. eigenvalues --   -0.48003  -0.47801  -0.46630  -0.46582  -0.45794
 Alpha  occ. eigenvalues --   -0.45754  -0.45715  -0.45682  -0.43778  -0.43707
 Alpha virt. eigenvalues --    0.21794   0.23001   0.23522   0.24853   0.26097
 Alpha virt. eigenvalues --    0.26564   0.27130   0.27149   0.27814   0.28949
 Alpha virt. eigenvalues --    0.29888   0.30879   0.31655   0.31843   0.32514

 Mulliken charges:
               1
     1  C   -0.297678
     2  C   -0.305963
     3  C   -0.475352
     4  H    0.149498
     5  H    0.149512
     6  H    0.151418
     7  H    0.157706
     8  H    0.155409
     9  H    0.154515
    10  H    0.161024
    11  C   -0.298265
    12  C   -0.299613
    13  C   -0.475699
    14  H    0.149456
    15  H    0.149235
    16  H    0.151955
    17  H    0.151934
    18  H    0.155121
    19  H    0.155145
    20  H    0.160208
    21  C   -0.298221
    22  C   -0.299631
    23  C   -0.475704
    24  H    0.149622
    25  H    0.149555
    26  H    0.151922
    27  H    0.151967
    28  H    0.155197
    29  H    0.155170
    30  H    0.160269
    31  C   -0.298663
    32  C   -0.299238
    33  C   -0.481690
    34  H    0.149499
    35  H    0.149680
    36  H    0.151721
    37  H    0.152088
    38  H    0.155968
    39  H    0.154957
    40  H    0.165963
 Sum of Mulliken charges =  -0.00000

 Dipole moment (field-independent basis, Debye):
    X=              0.0155    Y=              0.0034    Z=              0.0039  Tot=              0.0163
 Quadrupole moment (field-independent basis, Debye-Ang):
   XX=            -85.7361   YY=            -85.5997   ZZ=            -83.5319
   XY=             -0.1279   XZ=              0.5738   YZ=             -1.1586

 Normal termination of Gaussian 16 at Wed May  5 18:07:43 2021.
