 Gaussian 16, Revision A.03,
 Gaussian 16:  EM64L-G16RevA.03 25-Dec-2016

 -------------
 #p 6-31g* mp2
 -------------

 ------------------------------------------------------
 Input file generated by CHIRIPA (05-May-2021 14:53:14)
 ------------------------------------------------------
 Symbolic Z-matrix:
 Charge =  0 Multiplicity = 1

                         Standard orientation:
 ---------------------------------------------------------------------
 Center     Atomic      Atomic             Coordinates (Angstroms)
 Number     Number       Type             X           Y           Z
 ---------------------------------------------------------------------
      1          6           0        4.405025    0.882228   -0.176551
      2          6           0        3.298402    1.631428    0.566464
      3          6           0        3.312669    3.134833    0.288321
      4          1           0        5.379281    1.300561    0.111141
      5          1           0        4.296030    1.057434   -1.255819
      6          1           0        3.408626    1.453738    1.643911
      7          1           0        2.326678    1.211136    0.277115
      8          1           0        3.179715    3.330109   -0.780694
      9          1           0        4.267810    3.574089    0.593869
     10          1           0        2.513406    3.650823    0.829426
     11          6           0        4.403778   -0.621745    0.091386
     12          6           0        5.510401   -1.370945   -0.651629
     13          6           0        5.496134   -2.874350   -0.373486
     14          1           0        4.512773   -0.796950    1.170654
     15          1           0        3.429522   -1.040078   -0.196306
     16          1           0        6.482125   -0.950653   -0.362280
     17          1           0        5.400177   -1.193255   -1.729076
     18          1           0        4.540993   -3.313606   -0.679034
     19          1           0        5.629088   -3.069625    0.695528
     20          1           0        6.295397   -3.390339   -0.914591
     21          6           0       -0.994408    0.335406    0.468357
     22          6           0       -1.676133   -0.631780    1.214228
     23          6           0       -3.031749   -0.882384    0.981738
     24          6           0       -3.677460   -0.144014   -0.008795
     25          6           0       -3.025765    0.826184   -0.768598
     26          6           0       -1.670208    1.060023   -0.518935
     27          1           0        0.058644    0.523571    0.655632
     28          1           0       -1.153851   -1.196045    1.981608
     29          1           0       -3.583805   -1.625354    1.544453
     30          1           0       -3.573305    1.372672   -1.526865
     31          1           0       -1.143317    1.811760   -1.099730
     32          7           0       -5.112559   -0.400445   -0.264012
     33          8           0       -5.658718    0.263568   -1.142326
     34          8           0       -5.664056   -1.260591    0.419095
 ---------------------------------------------------------------------

 SCF Done:  E(RHF) =  -669.535582652     A.U. after   15 cycles
 E2 =    -0.2090960168D+01 EUMP2 =    -0.67162654281936D+03

 The electronic state is 1-A.
 Alpha  occ. eigenvalues --  -20.60734 -20.60729 -15.85788 -11.31147 -11.27719
 Alpha  occ. eigenvalues --  -11.27715 -11.27426 -11.26728 -11.26717 -11.22822
 Alpha  occ. eigenvalues --  -11.22315 -11.22270 -11.22200 -11.22081 -11.21636
 Alpha  occ. eigenvalues --   -1.59810  -1.39364  -1.19319  -1.09330  -1.08712
 Alpha  occ. eigenvalues --   -1.04723  -1.04402  -0.96815  -0.95550  -0.87833
 Alpha  occ. eigenvalues --   -0.86119  -0.82387  -0.80499  -0.79132  -0.77433
 Alpha  occ. eigenvalues --   -0.72006  -0.71134  -0.70441  -0.65960  -0.64970
 Alpha  occ. eigenvalues --   -0.64727  -0.62073  -0.61801  -0.60211  -0.58435
 Alpha  occ. eigenvalues --   -0.56094  -0.55236  -0.53514  -0.53231  -0.53052
 Alpha  occ. eigenvalues --   -0.52813  -0.50757  -0.48812  -0.48761  -0.48741
 Alpha  occ. eigenvalues --   -0.47534  -0.46665  -0.46570  -0.44771  -0.44648
 Alpha  occ. eigenvalues --   -0.37296  -0.36331
 Alpha virt. eigenvalues --    0.05102   0.11324   0.16585   0.19406   0.22461
 Alpha virt. eigenvalues --    0.23675   0.24931   0.26171   0.27056   0.27509
 Alpha virt. eigenvalues --    0.28940   0.30430   0.30813   0.31137   0.32244

 Mulliken charges:
               1
     1  C   -0.297712
     2  C   -0.306246
     3  C   -0.476466
     4  H    0.153664
     5  H    0.151363
     6  H    0.154450
     7  H    0.143418
     8  H    0.156195
     9  H    0.160439
    10  H    0.160306
    11  C   -0.298894
    12  C   -0.300223
    13  C   -0.476311
    14  H    0.149962
    15  H    0.146507
    16  H    0.153730
    17  H    0.153376
    18  H    0.155477
    19  H    0.155553
    20  H    0.162760
    21  C   -0.178756
    22  C   -0.220930
    23  C   -0.170672
    24  C    0.158215
    25  C   -0.170880
    26  C   -0.221895
    27  H    0.238471
    28  H    0.224208
    29  H    0.275415
    30  H    0.275468
    31  H    0.223106
    32  N    0.487998
    33  O   -0.460577
    34  O   -0.460522
 Sum of Mulliken charges =  -0.00000

 Dipole moment (field-independent basis, Debye):
    X=              5.3214    Y=              0.9234    Z=              0.8914  Tot=              5.4740
 Quadrupole moment (field-independent basis, Debye-Ang):
   XX=           -131.1735   YY=            -93.8955   ZZ=            -91.9778
   XY=             -3.6981   XZ=             -2.9270   YZ=             -2.8199

 Normal termination of Gaussian 16 at Thu May  6 12:07:01 2021.
