 Gaussian 16, Revision A.03,
 Gaussian 16:  EM64L-G16RevA.03 25-Dec-2016

 -------------
 #p 6-31g* mp2
 -------------

 ------------------------------------------------------
 Input file generated by CHIRIPA (05-May-2021 14:51:08)
 ------------------------------------------------------
 Symbolic Z-matrix:
 Charge =  0 Multiplicity = 1

                         Standard orientation:
 ---------------------------------------------------------------------
 Center     Atomic      Atomic             Coordinates (Angstroms)
 Number     Number       Type             X           Y           Z
 ---------------------------------------------------------------------
      1          6           0       -4.448482   -0.268743   -0.344415
      2          6           0       -5.701093    0.200173    0.396576
      3          6           0       -6.988980   -0.099255   -0.371201
      4          1           0       -4.410466    0.215213   -1.329954
      5          1           0       -4.523344   -1.349273   -0.529476
      6          1           0       -5.623260    1.279245    0.581406
      7          1           0       -5.736031   -0.284809    1.380541
      8          1           0       -7.093663   -1.175404   -0.543088
      9          1           0       -6.980252    0.397537   -1.346764
     10          1           0       -7.872031    0.244294    0.176573
     11          6           0       -3.152964    0.023568    0.410511
     12          6           0       -1.900353   -0.445348   -0.330480
     13          6           0       -0.612465   -0.145920    0.437297
     14          1           0       -3.078101    1.104098    0.595572
     15          1           0       -3.190980   -0.460388    1.396049
     16          1           0       -1.865414    0.039634   -1.314446
     17          1           0       -1.978185   -1.524420   -0.515310
     18          1           0       -0.621194   -0.642712    1.412860
     19          1           0       -0.507782    0.930229    0.609184
     20          1           0        0.270586   -0.489469   -0.110477
     21          6           0        3.393212    0.735820    0.170210
     22          6           0        3.968771    2.049367   -0.360179
     23          6           0        3.142515    3.267106    0.054800
     24          1           0        2.362274    0.621885   -0.191912
     25          1           0        3.335827    0.784860    1.266428
     26          1           0        4.026343    1.997333   -1.454981
     27          1           0        4.998524    2.160096    0.003091
     28          1           0        3.095240    3.346986    1.145665
     29          1           0        2.117536    3.183299   -0.320692
     30          1           0        3.571812    4.195319   -0.335051
     31          6           0        4.208233   -0.490645   -0.236305
     32          6           0        3.632675   -1.804192    0.294082
     33          6           0        4.458930   -3.021931   -0.120896
     34          1           0        4.265618   -0.539685   -1.332524
     35          1           0        5.239171   -0.376709    0.125816
     36          1           0        2.602921   -1.914920   -0.069186
     37          1           0        3.575102   -1.752159    1.388886
     38          1           0        5.483910   -2.938125    0.254596
     39          1           0        4.506206   -3.101811   -1.211760
     40          1           0        4.029634   -3.950145    0.268956
 ---------------------------------------------------------------------

 SCF Done:  E(RHF) =  -470.732935587     A.U. after   11 cycles
 E2 =    -0.1582998638D+01 EUMP2 =    -0.47231593422501D+03

 The electronic state is 1-A.
 Alpha  occ. eigenvalues --  -11.21620 -11.21609 -11.21574 -11.21547 -11.21417
 Alpha  occ. eigenvalues --  -11.21358 -11.21340 -11.21244 -11.21077 -11.21071
 Alpha  occ. eigenvalues --  -11.21052 -11.21038  -1.08446  -1.08377  -1.03545
 Alpha  occ. eigenvalues --   -1.03490  -0.96008  -0.95927  -0.87025  -0.86946
 Alpha  occ. eigenvalues --   -0.79625  -0.79549  -0.78273  -0.78163  -0.65080
 Alpha  occ. eigenvalues --   -0.65026  -0.60961  -0.60872  -0.59391  -0.59300
 Alpha  occ. eigenvalues --   -0.57646  -0.57513  -0.55295  -0.55215  -0.52801
 Alpha  occ. eigenvalues --   -0.52596  -0.52418  -0.52331  -0.49957  -0.49862
 Alpha  occ. eigenvalues --   -0.47949  -0.47857  -0.46677  -0.46556  -0.45812
 Alpha  occ. eigenvalues --   -0.45753  -0.45696  -0.45646  -0.43764  -0.43651
 Alpha virt. eigenvalues --    0.21454   0.23071   0.23978   0.24109   0.25922
 Alpha virt. eigenvalues --    0.26596   0.27039   0.27286   0.27833   0.29257
 Alpha virt. eigenvalues --    0.30539   0.31519   0.31747   0.31883   0.32167

 Mulliken charges:
               1
     1  C   -0.298234
     2  C   -0.299642
     3  C   -0.475706
     4  H    0.149593
     5  H    0.149526
     6  H    0.151981
     7  H    0.151978
     8  H    0.155181
     9  H    0.155171
    10  H    0.160295
    11  C   -0.298706
    12  C   -0.299463
    13  C   -0.481678
    14  H    0.149649
    15  H    0.149774
    16  H    0.151528
    17  H    0.151842
    18  H    0.155936
    19  H    0.155795
    20  H    0.165784
    21  C   -0.305144
    22  C   -0.299113
    23  C   -0.475786
    24  H    0.158218
    25  H    0.149327
    26  H    0.151377
    27  H    0.151611
    28  H    0.155217
    29  H    0.154982
    30  H    0.159973
    31  C   -0.298164
    32  C   -0.302365
    33  C   -0.475587
    34  H    0.148801
    35  H    0.149445
    36  H    0.154020
    37  H    0.152222
    38  H    0.155255
    39  H    0.154993
    40  H    0.160113
 Sum of Mulliken charges =  -0.00000

 Dipole moment (field-independent basis, Debye):
    X=             -0.0266    Y=             -0.0055    Z=              0.0168  Tot=              0.0319
 Quadrupole moment (field-independent basis, Debye-Ang):
   XX=            -85.9157   YY=            -84.9825   ZZ=            -84.0758
   XY=              0.4199   XZ=              0.1461   YZ=             -0.6356

 Normal termination of Gaussian 16 at Thu May  6 05:16:25 2021.
