 Gaussian 16, Revision A.03,
 Gaussian 16:  EM64L-G16RevA.03 25-Dec-2016

 -------------
 #p 6-31g* mp2
 -------------

 ------------------------------------------------------
 Input file generated by CHIRIPA (05-May-2021 14:51:13)
 ------------------------------------------------------
 Symbolic Z-matrix:
 Charge =  0 Multiplicity = 1

                         Standard orientation:
 ---------------------------------------------------------------------
 Center     Atomic      Atomic             Coordinates (Angstroms)
 Number     Number       Type             X           Y           Z
 ---------------------------------------------------------------------
      1          6           0       -3.504724   -0.570346   -0.119462
      2          6           0       -2.298870    0.355411    0.044472
      3          6           0       -0.966555   -0.369347   -0.149070
      4          1           0       -3.426312   -1.395343    0.601770
      5          1           0       -3.475623   -1.025358   -1.119218
      6          1           0       -2.330987    0.809607    1.043116
      7          1           0       -2.380259    1.178405   -0.677105
      8          1           0       -0.908735   -0.808392   -1.150318
      9          1           0       -0.859183   -1.179285    0.579677
     10          1           0       -0.118002    0.311121   -0.027490
     11          6           0       -4.843880    0.139635    0.071108
     12          6           0       -6.049734   -0.786123   -0.092826
     13          6           0       -7.382048   -0.061365    0.100716
     14          1           0       -4.872981    0.594647    1.070864
     15          1           0       -4.922291    0.964632   -0.650125
     16          1           0       -5.968345   -1.609116    0.628751
     17          1           0       -6.017617   -1.240319   -1.091470
     18          1           0       -7.489421    0.748573   -0.628031
     19          1           0       -7.439869    0.377680    1.101964
     20          1           0       -8.230601   -0.741832   -0.020864
     21          6           0        4.162392   -0.523479    0.217605
     22          6           0        5.396220   -1.293708   -0.253986
     23          6           0        5.357761   -2.770416    0.140536
     24          1           0        4.078762   -0.610693    1.309550
     25          1           0        3.262559   -0.993095   -0.203296
     26          1           0        6.293548   -0.821945    0.166561
     27          1           0        5.477029   -1.204489   -1.344915
     28          1           0        4.479954   -3.261827   -0.291406
     29          1           0        5.301113   -2.877109    1.228657
     30          1           0        6.249272   -3.302033   -0.206522
     31          6           0        4.186212    0.954190   -0.169250
     32          6           0        2.952383    1.724419    0.302340
     33          6           0        2.990843    3.201128   -0.092181
     34          1           0        5.086044    1.423806    0.251650
     35          1           0        4.269841    1.041405   -1.261196
     36          1           0        2.871574    1.635201    1.393269
     37          1           0        2.055055    1.252658   -0.118206
     38          1           0        3.047491    3.307821   -1.180303
     39          1           0        3.868649    3.692538    0.339760
     40          1           0        2.099331    3.732745    0.254877
 ---------------------------------------------------------------------

 SCF Done:  E(RHF) =  -470.733353680     A.U. after   11 cycles
 E2 =    -0.1582399834D+01 EUMP2 =    -0.47231575351320D+03

 The electronic state is 1-A.
 Alpha  occ. eigenvalues --  -11.21606 -11.21603 -11.21591 -11.21576 -11.21407
 Alpha  occ. eigenvalues --  -11.21381 -11.21348 -11.21318 -11.21072 -11.21072
 Alpha  occ. eigenvalues --  -11.21060 -11.21046  -1.08433  -1.08410  -1.03540
 Alpha  occ. eigenvalues --   -1.03508  -0.95986  -0.95959  -0.87014  -0.86966
 Alpha  occ. eigenvalues --   -0.79636  -0.79544  -0.78249  -0.78219  -0.65062
 Alpha  occ. eigenvalues --   -0.65048  -0.60940  -0.60923  -0.59451  -0.59242
 Alpha  occ. eigenvalues --   -0.57644  -0.57521  -0.55267  -0.55247  -0.52751
 Alpha  occ. eigenvalues --   -0.52626  -0.52429  -0.52358  -0.49923  -0.49898
 Alpha  occ. eigenvalues --   -0.48014  -0.47804  -0.46629  -0.46600  -0.45788
 Alpha  occ. eigenvalues --   -0.45763  -0.45711  -0.45690  -0.43791  -0.43706
 Alpha virt. eigenvalues --    0.21942   0.23001   0.23642   0.24691   0.25904
 Alpha virt. eigenvalues --    0.26654   0.27034   0.27483   0.28002   0.28779
 Alpha virt. eigenvalues --    0.30325   0.31411   0.31620   0.31873   0.32016

 Mulliken charges:
               1
     1  C   -0.298610
     2  C   -0.298701
     3  C   -0.484481
     4  H    0.149710
     5  H    0.149434
     6  H    0.152064
     7  H    0.151809
     8  H    0.154525
     9  H    0.155618
    10  H    0.168281
    11  C   -0.298223
    12  C   -0.299636
    13  C   -0.475704
    14  H    0.149549
    15  H    0.149632
    16  H    0.151960
    17  H    0.151905
    18  H    0.155176
    19  H    0.155194
    20  H    0.160256
    21  C   -0.298884
    22  C   -0.299638
    23  C   -0.475715
    24  H    0.149505
    25  H    0.150744
    26  H    0.151793
    27  H    0.151877
    28  H    0.155409
    29  H    0.155097
    30  H    0.160110
    31  C   -0.297465
    32  C   -0.308705
    33  C   -0.475204
    34  H    0.149478
    35  H    0.149515
    36  H    0.151874
    37  H    0.159905
    38  H    0.155115
    39  H    0.155306
    40  H    0.160123
 Sum of Mulliken charges =  -0.00000

 Dipole moment (field-independent basis, Debye):
    X=              0.0006    Y=             -0.0003    Z=              0.0034  Tot=              0.0034
 Quadrupole moment (field-independent basis, Debye-Ang):
   XX=            -85.7273   YY=            -86.0550   ZZ=            -83.0371
   XY=              0.6138   XZ=              0.5279   YZ=              0.1590

 Normal termination of Gaussian 16 at Wed May  5 16:51:34 2021.
