 Gaussian 16, Revision A.03,
 Gaussian 16:  EM64L-G16RevA.03 25-Dec-2016

 -------------
 #p 6-31g* mp2
 -------------

 ------------------------------------------------------
 Input file generated by CHIRIPA (05-May-2021 14:55:25)
 ------------------------------------------------------
 Symbolic Z-matrix:
 Charge =  0 Multiplicity = 1

                         Standard orientation:
 ---------------------------------------------------------------------
 Center     Atomic      Atomic             Coordinates (Angstroms)
 Number     Number       Type             X           Y           Z
 ---------------------------------------------------------------------
      1          6           0       -3.955496   -2.170186    0.786729
      2          6           0       -4.438912   -1.572989   -0.382110
      3          6           0       -3.872585   -0.387624   -0.860368
      4          6           0       -2.819472    0.175883   -0.141548
      5          6           0       -2.315690   -0.395067    1.026147
      6          6           0       -2.897293   -1.580359    1.485895
      7          1           0       -4.401366   -3.090978    1.151062
      8          1           0       -5.260615   -2.028823   -0.927147
      9          1           0       -4.227292    0.095930   -1.762464
     10          1           0       -1.495406    0.082870    1.547807
     11          1           0       -2.519818   -2.041925    2.393922
     12          7           0       -2.211840    1.430737   -0.638060
     13          8           0       -1.285034    1.907315    0.013508
     14          8           0       -2.673891    1.913954   -1.669393
     15          6           0        4.186932   -0.366463   -0.388546
     16          6           0        4.217493   -1.857852   -0.052669
     17          6           0        5.121709   -2.656878   -0.991681
     18          1           0        3.846810   -0.237468   -1.425186
     19          1           0        5.209331    0.033558   -0.342964
     20          1           0        3.195161   -2.254640   -0.097518
     21          1           0        4.557399   -1.983301    0.983354
     22          1           0        6.151425   -2.288495   -0.940864
     23          1           0        4.781446   -2.561376   -2.027877
     24          1           0        5.128762   -3.720452   -0.733573
     25          6           0        3.287286    0.445650    0.541420
     26          6           0        3.256726    1.937038    0.205543
     27          6           0        2.352509    2.736064    1.144555
     28          1           0        2.264887    0.045628    0.495838
     29          1           0        3.627408    0.316654    1.578060
     30          1           0        2.916819    2.062487   -0.830480
     31          1           0        4.279058    2.333826    0.250392
     32          1           0        2.692772    2.640562    2.180751
     33          1           0        1.322794    2.367682    1.093737
     34          1           0        2.345457    3.799638    0.886447
 ---------------------------------------------------------------------

 SCF Done:  E(RHF) =  -669.536102669     A.U. after   15 cycles
 E2 =    -0.2090935477D+01 EUMP2 =    -0.67162703814615D+03

 The electronic state is 1-A.
 Alpha  occ. eigenvalues --  -20.60941 -20.60928 -15.85982 -11.31297 -11.27861
 Alpha  occ. eigenvalues --  -11.27856 -11.27595 -11.26867 -11.26857 -11.21379
 Alpha  occ. eigenvalues --  -11.20987 -11.20896 -11.20852 -11.20755 -11.19912
 Alpha  occ. eigenvalues --   -1.60003  -1.39560  -1.19465  -1.08870  -1.07932
 Alpha  occ. eigenvalues --   -1.04861  -1.02955  -0.95715  -0.95392  -0.86415
 Alpha  occ. eigenvalues --   -0.86261  -0.82548  -0.79058  -0.77738  -0.77590
 Alpha  occ. eigenvalues --   -0.72209  -0.71320  -0.70574  -0.65124  -0.64863
 Alpha  occ. eigenvalues --   -0.64559  -0.62209  -0.60333  -0.58820  -0.57006
 Alpha  occ. eigenvalues --   -0.55365  -0.54659  -0.53194  -0.52952  -0.52083
 Alpha  occ. eigenvalues --   -0.51827  -0.49353  -0.48961  -0.48925  -0.47357
 Alpha  occ. eigenvalues --   -0.46091  -0.45274  -0.45186  -0.44931  -0.43230
 Alpha  occ. eigenvalues --   -0.37444  -0.36463
 Alpha virt. eigenvalues --    0.04921   0.11187   0.16415   0.21112   0.23276
 Alpha virt. eigenvalues --    0.24673   0.26432   0.27403   0.27701   0.28269
 Alpha virt. eigenvalues --    0.28947   0.30618   0.31667   0.32203   0.32534

 Mulliken charges:
               1
     1  C   -0.170629
     2  C   -0.218535
     3  C   -0.170857
     4  C    0.157651
     5  C   -0.171039
     6  C   -0.218530
     7  H    0.226062
     8  H    0.223840
     9  H    0.275841
    10  H    0.275881
    11  H    0.224141
    12  N    0.495286
    13  O   -0.467531
    14  O   -0.458952
    15  C   -0.298002
    16  C   -0.298842
    17  C   -0.475343
    18  H    0.150851
    19  H    0.149000
    20  H    0.149217
    21  H    0.150279
    22  H    0.155349
    23  H    0.155461
    24  H    0.158105
    25  C   -0.297545
    26  C   -0.298386
    27  C   -0.484449
    28  H    0.147760
    29  H    0.145930
    30  H    0.156130
    31  H    0.147630
    32  H    0.145949
    33  H    0.177794
    34  H    0.160483
 Sum of Mulliken charges =  -0.00000

 Dipole moment (field-independent basis, Debye):
    X=             -2.3744    Y=             -4.3641    Z=              1.6806  Tot=              5.2448
 Quadrupole moment (field-independent basis, Debye-Ang):
   XX=            -81.4658   YY=            -97.5581   ZZ=            -92.6883
   XY=             12.9709   XZ=             -1.2128   YZ=              0.3433

 Normal termination of Gaussian 16 at Thu May  6 17:42:19 2021.
