 Gaussian 16, Revision A.03,
 Gaussian 16:  EM64L-G16RevA.03 25-Dec-2016

 -------------
 #p 6-31g* mp2
 -------------

 ------------------------------------------------------
 Input file generated by CHIRIPA (05-May-2021 14:57:21)
 ------------------------------------------------------
 Symbolic Z-matrix:
 Charge =  0 Multiplicity = 1

                         Standard orientation:
 ---------------------------------------------------------------------
 Center     Atomic      Atomic             Coordinates (Angstroms)
 Number     Number       Type             X           Y           Z
 ---------------------------------------------------------------------
      1          6           0       -2.832327    2.602692   -0.614404
      2          6           0       -2.955844    2.275442    0.739912
      3          6           0       -3.033534    0.939085    1.143225
      4          6           0       -2.984428   -0.049040    0.161141
      5          6           0       -2.861772    0.245097   -1.195962
      6          6           0       -2.785767    1.588263   -1.576323
      7          1           0       -2.772630    3.643452   -0.918792
      8          1           0       -2.992254    3.061173    1.489143
      9          1           0       -3.129517    0.657582    2.184840
     10          1           0       -2.828125   -0.560160   -1.919735
     11          1           0       -2.689879    1.839459   -2.628820
     12          7           0       -3.065783   -1.467386    0.575962
     13          8           0       -3.020284   -2.319350   -0.308755
     14          8           0       -3.173508   -1.700265    1.777960
     15          6           0        1.227720   -1.872981   -0.783142
     16          6           0        0.890588   -0.519047   -0.684522
     17          6           0        1.848391    0.425168   -0.302920
     18          6           0        3.139556   -0.021505   -0.026032
     19          6           0        3.506239   -1.363471   -0.115248
     20          6           0        2.532171   -2.290137   -0.498691
     21          1           0        0.477357   -2.599653   -1.080293
     22          1           0       -0.121679   -0.192206   -0.904827
     23          1           0        1.614564    1.479508   -0.218596
     24          1           0        4.523595   -1.659021    0.110713
     25          1           0        2.796839   -3.340973   -0.574444
     26          7           0        4.162149    0.968803    0.378927
     27          8           0        5.292680    0.549733    0.617505
     28          8           0        3.813764    2.145323    0.450088
 ---------------------------------------------------------------------

 SCF Done:  E(RHF) =  -868.338446275     A.U. after   16 cycles
 E2 =    -0.2601397470D+01 EUMP2 =    -0.87093984374508D+03

 The electronic state is 1-A.
 Alpha  occ. eigenvalues --  -20.61824 -20.61769 -20.60669 -20.60654 -15.86842
 Alpha  occ. eigenvalues --  -15.85713 -11.32218 -11.30954 -11.28783 -11.28693
 Alpha  occ. eigenvalues --  -11.28421 -11.27787 -11.27685 -11.27537 -11.27503
 Alpha  occ. eigenvalues --  -11.27113 -11.26444 -11.26385  -1.60869  -1.59742
 Alpha  occ. eigenvalues --   -1.40422  -1.39300  -1.20394  -1.19103  -1.09751
 Alpha  occ. eigenvalues --   -1.08500  -1.05773  -1.04494  -0.96589  -0.95360
 Alpha  occ. eigenvalues --   -0.87148  -0.85893  -0.83404  -0.82205  -0.78471
 Alpha  occ. eigenvalues --   -0.77300  -0.73048  -0.72212  -0.71932  -0.71419
 Alpha  occ. eigenvalues --   -0.71064  -0.70151  -0.66002  -0.65710  -0.64744
 Alpha  occ. eigenvalues --   -0.64527  -0.63084  -0.61890  -0.56193  -0.54977
 Alpha  occ. eigenvalues --   -0.54165  -0.53805  -0.52825  -0.52440  -0.49823
 Alpha  occ. eigenvalues --   -0.49799  -0.48698  -0.48676  -0.45819  -0.44734
 Alpha  occ. eigenvalues --   -0.38342  -0.37375  -0.37038  -0.36102
 Alpha virt. eigenvalues --    0.04002   0.05248   0.10190   0.11528   0.15533
 Alpha virt. eigenvalues --    0.16791   0.20547   0.21930   0.26420   0.27305
 Alpha virt. eigenvalues --    0.27836   0.28680   0.30397   0.31507   0.31789

 Mulliken charges:
               1
     1  C   -0.172060
     2  C   -0.217337
     3  C   -0.170166
     4  C    0.162808
     5  C   -0.193349
     6  C   -0.216798
     7  H    0.231434
     8  H    0.229629
     9  H    0.279789
    10  H    0.275619
    11  H    0.228154
    12  N    0.488713
    13  O   -0.465724
    14  O   -0.453815
    15  C   -0.174854
    16  C   -0.227894
    17  C   -0.175127
    18  C    0.158463
    19  C   -0.171454
    20  C   -0.218435
    21  H    0.236592
    22  H    0.230761
    23  H    0.271576
    24  H    0.274786
    25  H    0.224604
    26  N    0.488302
    27  O   -0.460535
    28  O   -0.463682
 Sum of Mulliken charges =  -0.00000

 Dipole moment (field-independent basis, Debye):
    X=             -3.6494    Y=              1.5705    Z=             -2.7554  Tot=              4.8350
 Quadrupole moment (field-independent basis, Debye-Ang):
   XX=           -127.7334   YY=           -102.1842   ZZ=           -101.2302
   XY=            -29.7619   XZ=             -0.4063   YZ=              2.2187

 Normal termination of Gaussian 16 at Thu May  6 12:50:07 2021.
