 Gaussian 16, Revision A.03,
 Gaussian 16:  EM64L-G16RevA.03 25-Dec-2016

 -------------
 #p 6-31g* mp2
 -------------

 ------------------------------------------------------
 Input file generated by CHIRIPA (05-May-2021 14:57:22)
 ------------------------------------------------------
 Symbolic Z-matrix:
 Charge =  0 Multiplicity = 1

                         Standard orientation:
 ---------------------------------------------------------------------
 Center     Atomic      Atomic             Coordinates (Angstroms)
 Number     Number       Type             X           Y           Z
 ---------------------------------------------------------------------
      1          6           0        2.420018    1.606308   -0.091147
      2          6           0        2.310953    0.215600    0.011596
      3          6           0        3.455873   -0.586209    0.040022
      4          6           0        4.699558    0.038821   -0.036629
      5          6           0        4.840957    1.421820   -0.139642
      6          6           0        3.682447    2.203926   -0.166306
      7          1           0        1.525338    2.221520   -0.112545
      8          1           0        1.331839   -0.251257    0.070129
      9          1           0        3.400323   -1.665142    0.118990
     10          1           0        5.830732    1.858349   -0.196267
     11          1           0        3.770176    3.283728   -0.246157
     12          7           0        5.918828   -0.799589   -0.007468
     13          8           0        7.002911   -0.224574   -0.076453
     14          8           0        5.767321   -2.015874    0.083820
     15          6           0       -2.088574   -0.880605    0.291644
     16          6           0       -3.067452   -1.831960   -0.013709
     17          6           0       -4.405890   -1.453465   -0.154685
     18          6           0       -4.731601   -0.108980    0.017245
     19          6           0       -3.779259    0.862383    0.321862
     20          6           0       -2.446970    0.461165    0.458162
     21          1           0       -1.051232   -1.183453    0.399341
     22          1           0       -2.792019   -2.874703   -0.143588
     23          1           0       -5.183947   -2.169235   -0.390739
     24          1           0       -4.084396    1.894387    0.445460
     25          1           0       -1.688882    1.202174    0.695339
     26          7           0       -6.145291    0.303744   -0.129523
     27          8           0       -6.406433    1.494530    0.026904
     28          8           0       -6.965431   -0.571366   -0.398209
 ---------------------------------------------------------------------

 SCF Done:  E(RHF) =  -868.336149972     A.U. after   16 cycles
 E2 =    -0.2599788205D+01 EUMP2 =    -0.87093593817749D+03

 The electronic state is 1-A.
 Alpha  occ. eigenvalues --  -20.61368 -20.61358 -20.61326 -20.61318 -15.86427
 Alpha  occ. eigenvalues --  -15.86384 -11.31932 -11.31903 -11.28583 -11.28515
 Alpha  occ. eigenvalues --  -11.28490 -11.28454 -11.28392 -11.28368 -11.27731
 Alpha  occ. eigenvalues --  -11.27658 -11.27529 -11.27529  -1.60438  -1.60397
 Alpha  occ. eigenvalues --   -1.39988  -1.39946  -1.20139  -1.20105  -1.09522
 Alpha  occ. eigenvalues --   -1.09494  -1.05576  -1.05528  -0.96323  -0.96300
 Alpha  occ. eigenvalues --   -0.86988  -0.86927  -0.83175  -0.83110  -0.78178
 Alpha  occ. eigenvalues --   -0.78118  -0.72644  -0.72601  -0.71763  -0.71721
 Alpha  occ. eigenvalues --   -0.71312  -0.71256  -0.65812  -0.65783  -0.65684
 Alpha  occ. eigenvalues --   -0.65478  -0.62940  -0.62859  -0.56234  -0.56008
 Alpha  occ. eigenvalues --   -0.53879  -0.53850  -0.53672  -0.53638  -0.49415
 Alpha  occ. eigenvalues --   -0.49387  -0.49373  -0.49344  -0.45362  -0.45317
 Alpha  occ. eigenvalues --   -0.38139  -0.38118  -0.37169  -0.37117
 Alpha virt. eigenvalues --    0.04387   0.04410   0.10472   0.10520   0.15804
 Alpha virt. eigenvalues --    0.15843   0.16850   0.22238   0.23834   0.25040
 Alpha virt. eigenvalues --    0.27834   0.28588   0.30223   0.31364   0.33051

 Mulliken charges:
               1
     1  C   -0.171843
     2  C   -0.220323
     3  C   -0.171292
     4  C    0.159391
     5  C   -0.169494
     6  C   -0.217941
     7  H    0.223104
     8  H    0.216878
     9  H    0.275951
    10  H    0.278360
    11  H    0.226382
    12  N    0.488074
    13  O   -0.458006
    14  O   -0.459595
    15  C   -0.173847
    16  C   -0.217974
    17  C   -0.169559
    18  C    0.159359
    19  C   -0.169767
    20  C   -0.218913
    21  H    0.222063
    22  H    0.226760
    23  H    0.278426
    24  H    0.276957
    25  H    0.216113
    26  N    0.487923
    27  O   -0.459197
    28  O   -0.457991
 Sum of Mulliken charges =  -0.00000

 Dipole moment (field-independent basis, Debye):
    X=              0.6798    Y=              1.5066    Z=              0.3729  Tot=              1.6944
 Quadrupole moment (field-independent basis, Debye-Ang):
   XX=           -188.9890   YY=            -96.2682   ZZ=           -106.3578
   XY=             24.6912   XZ=             -2.6445   YZ=              0.5249

 Normal termination of Gaussian 16 at Fri May  7 03:16:29 2021.
