 Gaussian 16, Revision A.03,
 Gaussian 16:  EM64L-G16RevA.03 25-Dec-2016

 -------------
 #p 6-31g* mp2
 -------------

 ------------------------------------------------------
 Input file generated by CHIRIPA (05-May-2021 14:57:24)
 ------------------------------------------------------
 Symbolic Z-matrix:
 Charge =  0 Multiplicity = 1

                         Standard orientation:
 ---------------------------------------------------------------------
 Center     Atomic      Atomic             Coordinates (Angstroms)
 Number     Number       Type             X           Y           Z
 ---------------------------------------------------------------------
      1          6           0       -2.552320    1.940154    0.700260
      2          6           0       -2.114091    1.025911   -0.263397
      3          6           0       -2.924404   -0.048054   -0.643583
      4          6           0       -4.172771   -0.178076   -0.036984
      5          6           0       -4.637560    0.716185    0.926115
      6          6           0       -3.810438    1.782651    1.290899
      7          1           0       -1.916321    2.771523    0.989616
      8          1           0       -1.137495    1.145742   -0.723772
      9          1           0       -2.609998   -0.770497   -1.386983
     10          1           0       -5.616075    0.570514    1.367369
     11          1           0       -4.153378    2.491127    2.039564
     12          7           0       -5.039510   -1.311065   -0.431317
     13          8           0       -6.135106   -1.403480    0.118016
     14          8           0       -4.606853   -2.085234   -1.282263
     15          6           0        2.176056    1.550712   -0.733331
     16          6           0        1.926839    0.548549    0.210110
     17          6           0        2.946472   -0.321116    0.608329
     18          6           0        4.209147   -0.159408    0.040181
     19          6           0        4.488708    0.829240   -0.902003
     20          6           0        3.453943    1.687618   -1.285403
     21          1           0        1.378103    2.221905   -1.036920
     22          1           0        0.935388    0.439886    0.640531
     23          1           0        2.781119   -1.105634    1.336758
     24          1           0        5.487284    0.912898   -1.313424
     25          1           0        3.650379    2.465001   -2.018296
     26          7           0        5.296597   -1.074109    0.453914
     27          8           0        6.400364   -0.910821   -0.061522
     28          8           0        5.024583   -1.937019    1.285798
 ---------------------------------------------------------------------

 SCF Done:  E(RHF) =  -868.336432199     A.U. after   16 cycles
 E2 =    -0.2600382036D+01 EUMP2 =    -0.87093681423551D+03

 The electronic state is 1-A.
 Alpha  occ. eigenvalues --  -20.61351 -20.61345 -20.61221 -20.61216 -15.86414
 Alpha  occ. eigenvalues --  -15.86279 -11.31963 -11.31811 -11.28618 -11.28545
 Alpha  occ. eigenvalues --  -11.28423 -11.28393 -11.28373 -11.28297 -11.27752
 Alpha  occ. eigenvalues --  -11.27572 -11.27505 -11.27462  -1.60423  -1.60292
 Alpha  occ. eigenvalues --   -1.39971  -1.39841  -1.20183  -1.20012  -1.09557
 Alpha  occ. eigenvalues --   -1.09406  -1.05623  -1.05426  -0.96345  -0.96208
 Alpha  occ. eigenvalues --   -0.87062  -0.86810  -0.83175  -0.83022  -0.78201
 Alpha  occ. eigenvalues --   -0.78001  -0.72629  -0.72497  -0.71750  -0.71616
 Alpha  occ. eigenvalues --   -0.71307  -0.71193  -0.65919  -0.65831  -0.65649
 Alpha  occ. eigenvalues --   -0.65262  -0.63018  -0.62676  -0.56144  -0.56031
 Alpha  occ. eigenvalues --   -0.53960  -0.53823  -0.53703  -0.53440  -0.49404
 Alpha  occ. eigenvalues --   -0.49369  -0.49268  -0.49239  -0.45335  -0.45209
 Alpha  occ. eigenvalues --   -0.38190  -0.38050  -0.37222  -0.37014
 Alpha virt. eigenvalues --    0.04376   0.04500   0.10250   0.10571   0.15771
 Alpha virt. eigenvalues --    0.15931   0.18125   0.22014   0.24915   0.26822
 Alpha virt. eigenvalues --    0.27341   0.29037   0.29789   0.30887   0.31531

 Mulliken charges:
               1
     1  C   -0.172327
     2  C   -0.226672
     3  C   -0.170762
     4  C    0.159161
     5  C   -0.168939
     6  C   -0.218119
     7  H    0.224275
     8  H    0.219173
     9  H    0.278959
    10  H    0.278765
    11  H    0.226527
    12  N    0.487971
    13  O   -0.458010
    14  O   -0.458326
    15  C   -0.175193
    16  C   -0.223118
    17  C   -0.170060
    18  C    0.159529
    19  C   -0.170135
    20  C   -0.217343
    21  H    0.218161
    22  H    0.223216
    23  H    0.278754
    24  H    0.278004
    25  H    0.225367
    26  N    0.487908
    27  O   -0.458562
    28  O   -0.458205
 Sum of Mulliken charges =  -0.00000

 Dipole moment (field-independent basis, Debye):
    X=             -0.8382    Y=              7.0812    Z=             -0.0156  Tot=              7.1307
 Quadrupole moment (field-independent basis, Debye-Ang):
   XX=           -156.4686   YY=           -106.8841   ZZ=           -101.9301
   XY=             -2.6645   XZ=            -17.3104   YZ=             -0.4799

 Normal termination of Gaussian 16 at Wed May  5 19:28:12 2021.
