 Gaussian 16, Revision A.03,
 Gaussian 16:  EM64L-G16RevA.03 25-Dec-2016

 -------------
 #p 6-31g* mp2
 -------------

 ------------------------------------------------------
 Input file generated by CHIRIPA (05-May-2021 14:53:14)
 ------------------------------------------------------
 Symbolic Z-matrix:
 Charge =  0 Multiplicity = 1

                         Standard orientation:
 ---------------------------------------------------------------------
 Center     Atomic      Atomic             Coordinates (Angstroms)
 Number     Number       Type             X           Y           Z
 ---------------------------------------------------------------------
      1          6           0       -3.090955    0.834354   -0.100189
      2          6           0       -3.777095    2.005801    0.603309
      3          6           0       -2.872555    3.232172    0.728272
      4          1           0       -2.180441    0.565374    0.452585
      5          1           0       -2.766468    1.155171   -1.099779
      6          1           0       -4.101420    1.682465    1.600748
      7          1           0       -4.686183    2.271899    0.048903
      8          1           0       -2.559137    3.582065   -0.260639
      9          1           0       -1.971052    2.989282    1.300023
     10          1           0       -3.382994    4.057640    1.234151
     11          6           0       -3.982541   -0.399034   -0.232698
     12          6           0       -3.296401   -1.570481   -0.936196
     13          6           0       -4.200941   -2.796851   -1.061159
     14          1           0       -4.307028   -0.719850    0.766892
     15          1           0       -4.893055   -0.130053   -0.785472
     16          1           0       -2.387313   -1.836579   -0.381790
     17          1           0       -2.972076   -1.247145   -1.933635
     18          1           0       -5.102444   -2.553962   -1.632910
     19          1           0       -4.514359   -3.146745   -0.072248
     20          1           0       -3.690502   -3.622320   -1.567038
     21          6           0        4.511524    0.877179   -1.357312
     22          6           0        3.161130    1.197281   -1.531926
     23          6           0        2.183770    0.623080   -0.713628
     24          6           0        2.594052   -0.271289    0.273825
     25          6           0        3.931539   -0.610308    0.472532
     26          6           0        4.891748   -0.024006   -0.357403
     27          1           0        5.264099    1.327933   -1.997505
     28          1           0        2.862934    1.896828   -2.307655
     29          1           0        1.131330    0.853161   -0.826982
     30          1           0        4.198141   -1.311067    1.254376
     31          1           0        5.939749   -0.274459   -0.219508
     32          7           0        1.568443   -0.885576    1.146280
     33          8           0        1.955782   -1.670633    2.009004
     34          8           0        0.396652   -0.570367    0.950866
 ---------------------------------------------------------------------

 SCF Done:  E(RHF) =  -669.536460098     A.U. after   15 cycles
 E2 =    -0.2091288928D+01 EUMP2 =    -0.67162774902589D+03

 The electronic state is 1-A.
 Alpha  occ. eigenvalues --  -20.60982 -20.60966 -15.86017 -11.31293 -11.27857
 Alpha  occ. eigenvalues --  -11.27842 -11.27590 -11.26856 -11.26844 -11.20921
 Alpha  occ. eigenvalues --  -11.20652 -11.20586 -11.20516 -11.20398 -11.20319
 Alpha  occ. eigenvalues --   -1.60039  -1.39596  -1.19460  -1.08873  -1.07584
 Alpha  occ. eigenvalues --   -1.04851  -1.02778  -0.95722  -0.95243  -0.86270
 Alpha  occ. eigenvalues --   -0.86253  -0.82560  -0.78834  -0.77656  -0.77340
 Alpha  occ. eigenvalues --   -0.72244  -0.71349  -0.70570  -0.65122  -0.64854
 Alpha  occ. eigenvalues --   -0.64188  -0.62197  -0.60171  -0.58620  -0.56853
 Alpha  occ. eigenvalues --   -0.55359  -0.54528  -0.53186  -0.52942  -0.51974
 Alpha  occ. eigenvalues --   -0.51683  -0.49200  -0.48995  -0.48986  -0.47167
 Alpha  occ. eigenvalues --   -0.45853  -0.45011  -0.44956  -0.44748  -0.43001
 Alpha  occ. eigenvalues --   -0.37440  -0.36451
 Alpha virt. eigenvalues --    0.04901   0.11205   0.16396   0.21164   0.23607
 Alpha virt. eigenvalues --    0.24928   0.26763   0.27352   0.27640   0.28585
 Alpha virt. eigenvalues --    0.29160   0.31085   0.32044   0.32336   0.32531

 Mulliken charges:
               1
     1  C   -0.311154
     2  C   -0.298084
     3  C   -0.475986
     4  H    0.178375
     5  H    0.139097
     6  H    0.153258
     7  H    0.148200
     8  H    0.149147
     9  H    0.158049
    10  H    0.158046
    11  C   -0.296308
    12  C   -0.304342
    13  C   -0.475127
    14  H    0.150758
    15  H    0.144314
    16  H    0.168838
    17  H    0.144769
    18  H    0.151315
    19  H    0.155902
    20  H    0.157826
    21  C   -0.170483
    22  C   -0.218689
    23  C   -0.170779
    24  C    0.157268
    25  C   -0.170758
    26  C   -0.218648
    27  H    0.226029
    28  H    0.224098
    29  H    0.277221
    30  H    0.275725
    31  H    0.223782
    32  N    0.496970
    33  O   -0.458776
    34  O   -0.469854
 Sum of Mulliken charges =  -0.00000

 Dipole moment (field-independent basis, Debye):
    X=              3.8917    Y=              2.0622    Z=             -2.9155  Tot=              5.2819
 Quadrupole moment (field-independent basis, Debye-Ang):
   XX=            -74.7686   YY=            -96.6218   ZZ=            -95.2124
   XY=              2.2628   XZ=             -5.5212   YZ=             -0.6885

 Normal termination of Gaussian 16 at Thu May  6 05:48:51 2021.
