 Gaussian 16, Revision A.03,
 Gaussian 16:  EM64L-G16RevA.03 25-Dec-2016

 -------------
 #p 6-31g* mp2
 -------------

 ------------------------------------------------------
 Input file generated by CHIRIPA (05-May-2021 14:53:13)
 ------------------------------------------------------
 Symbolic Z-matrix:
 Charge =  0 Multiplicity = 1

                         Standard orientation:
 ---------------------------------------------------------------------
 Center     Atomic      Atomic             Coordinates (Angstroms)
 Number     Number       Type             X           Y           Z
 ---------------------------------------------------------------------
      1          6           0        2.859627    0.051361   -0.237089
      2          6           0        2.361258   -1.383592   -0.062382
      3          6           0        3.448355   -2.424059   -0.333386
      4          1           0        3.243504    0.177615   -1.258678
      5          1           0        3.708672    0.222131    0.439191
      6          1           0        1.512524   -1.551176   -0.737795
      7          1           0        1.978346   -1.506391    0.958850
      8          1           0        4.293108   -2.285312    0.349068
      9          1           0        3.824639   -2.330352   -1.357217
     10          1           0        3.070463   -3.442876   -0.202740
     11          6           0        1.784283    1.102939    0.030394
     12          6           0        2.282651    2.537892   -0.144313
     13          6           0        1.195554    3.578358    0.126690
     14          1           0        0.935238    0.932169   -0.645887
     15          1           0        1.400405    0.976685    1.051982
     16          1           0        2.665563    2.660691   -1.165546
     17          1           0        3.131385    2.705476    0.531099
     18          1           0        0.819270    3.484651    1.150521
     19          1           0        0.350801    3.439612   -0.555763
     20          1           0        1.573446    4.597176   -0.003955
     21          6           0       -2.522161    1.957273   -0.174566
     22          6           0       -1.935207    1.522952    1.018486
     23          6           0       -1.538971    0.190937    1.171067
     24          6           0       -1.745567   -0.683712    0.105423
     25          6           0       -2.327691   -0.281295   -1.095612
     26          6           0       -2.716187    1.055354   -1.225953
     27          1           0       -2.826960    2.993814   -0.284455
     28          1           0       -1.783295    2.221179    1.836683
     29          1           0       -1.082211   -0.172044    2.083774
     30          1           0       -2.466178   -1.000670   -1.893572
     31          1           0       -3.171776    1.389850   -2.153636
     32          7           0       -1.330186   -2.096309    0.255181
     33          8           0       -1.523127   -2.847164   -0.698563
     34          8           0       -0.819536   -2.425901    1.323471
 ---------------------------------------------------------------------

 SCF Done:  E(RHF) =  -669.534353806     A.U. after   15 cycles
 E2 =    -0.2096748478D+01 EUMP2 =    -0.67163110228363D+03

 The electronic state is 1-A.
 Alpha  occ. eigenvalues --  -20.60858 -20.60849 -15.85870 -11.31200 -11.27809
 Alpha  occ. eigenvalues --  -11.27753 -11.27529 -11.26821 -11.26754 -11.21755
 Alpha  occ. eigenvalues --  -11.21479 -11.21302 -11.21075 -11.20948 -11.20390
 Alpha  occ. eigenvalues --   -1.59908  -1.39467  -1.19400  -1.08795  -1.08271
 Alpha  occ. eigenvalues --   -1.04799  -1.03333  -0.95834  -0.95621  -0.86856
 Alpha  occ. eigenvalues --   -0.86187  -0.82473  -0.79462  -0.78082  -0.77504
 Alpha  occ. eigenvalues --   -0.72111  -0.71202  -0.70509  -0.65052  -0.64920
 Alpha  occ. eigenvalues --   -0.64799  -0.62148  -0.60742  -0.59233  -0.57401
 Alpha  occ. eigenvalues --   -0.55306  -0.55133  -0.53240  -0.52898  -0.52480
 Alpha  occ. eigenvalues --   -0.52245  -0.49804  -0.48877  -0.48867  -0.47702
 Alpha  occ. eigenvalues --   -0.46506  -0.45724  -0.45443  -0.44621  -0.43571
 Alpha  occ. eigenvalues --   -0.37338  -0.36297
 Alpha virt. eigenvalues --    0.04957   0.11176   0.16312   0.20669   0.23123
 Alpha virt. eigenvalues --    0.24368   0.25665   0.26863   0.27048   0.28796
 Alpha virt. eigenvalues --    0.28936   0.30002   0.31432   0.31801   0.32419

 Mulliken charges:
               1
     1  C   -0.298088
     2  C   -0.304963
     3  C   -0.476071
     4  H    0.147834
     5  H    0.147982
     6  H    0.149697
     7  H    0.163730
     8  H    0.151953
     9  H    0.151708
    10  H    0.168886
    11  C   -0.298999
    12  C   -0.298721
    13  C   -0.475163
    14  H    0.152776
    15  H    0.143720
    16  H    0.152490
    17  H    0.152382
    18  H    0.147192
    19  H    0.153374
    20  H    0.159359
    21  C   -0.171384
    22  C   -0.212970
    23  C   -0.167734
    24  C    0.158527
    25  C   -0.173102
    26  C   -0.219713
    27  H    0.226536
    28  H    0.223819
    29  H    0.274542
    30  H    0.275683
    31  H    0.223642
    32  N    0.490006
    33  O   -0.460411
    34  O   -0.458519
 Sum of Mulliken charges =  -0.00000

 Dipole moment (field-independent basis, Debye):
    X=             -1.5564    Y=              4.8013    Z=             -0.4856  Tot=              5.0706
 Quadrupole moment (field-independent basis, Debye-Ang):
   XX=            -90.4129   YY=           -102.9100   ZZ=            -89.7982
   XY=             -7.1864   XZ=              2.9586   YZ=              1.6476

 Normal termination of Gaussian 16 at Thu May  6 20:17:45 2021.
