 Gaussian 16, Revision A.03,
 Gaussian 16:  EM64L-G16RevA.03 25-Dec-2016

 -------------
 #p 6-31g* mp2
 -------------

 ------------------------------------------------------
 Input file generated by CHIRIPA (05-May-2021 14:53:12)
 ------------------------------------------------------
 Symbolic Z-matrix:
 Charge =  0 Multiplicity = 1

                         Standard orientation:
 ---------------------------------------------------------------------
 Center     Atomic      Atomic             Coordinates (Angstroms)
 Number     Number       Type             X           Y           Z
 ---------------------------------------------------------------------
      1          6           0        2.497903   -0.166264   -0.006336
      2          6           0        3.733398   -1.064419    0.063349
      3          6           0        3.383859   -2.532643    0.308167
      4          1           0        1.931980   -0.258602    0.930761
      5          1           0        1.836908   -0.525267   -0.807334
      6          1           0        4.392521   -0.702997    0.863065
      7          1           0        4.296547   -0.969786   -0.873947
      8          1           0        2.745314   -2.915634   -0.494440
      9          1           0        2.841833   -2.647329    1.252442
     10          1           0        4.281740   -3.156767    0.354417
     11          6           0        2.831087    1.304462   -0.250635
     12          6           0        1.595592    2.202616   -0.320319
     13          6           0        1.945130    3.670840   -0.565138
     14          1           0        3.492082    1.663464    0.550363
     15          1           0        3.397010    1.396799   -1.187732
     16          1           0        1.032443    2.107983    0.616977
     17          1           0        0.936469    1.841194   -1.120036
     18          1           0        2.487157    3.785526   -1.509413
     19          1           0        2.583676    4.053831    0.237469
     20          1           0        1.047250    4.294965   -0.611388
     21          6           0       -1.079188   -2.725165   -0.299721
     22          6           0       -0.593462   -1.918714    0.734797
     23          6           0       -1.141336   -0.653370    0.965638
     24          6           0       -2.178550   -0.224133    0.139059
     25          6           0       -2.684160   -1.004285   -0.899695
     26          6           0       -2.121150   -2.266186   -1.112233
     27          1           0       -0.647707   -3.706777   -0.471935
     28          1           0        0.215654   -2.272569    1.367382
     29          1           0       -0.784425   -0.008452    1.759436
     30          1           0       -3.491623   -0.624205   -1.513667
     31          1           0       -2.500375   -2.890329   -1.916396
     32          7           0       -2.766571    1.113608    0.373753
     33          8           0       -3.679602    1.468683   -0.368496
     34          8           0       -2.303296    1.781724    1.295509
 ---------------------------------------------------------------------

 SCF Done:  E(RHF) =  -669.534442851     A.U. after   15 cycles
 E2 =    -0.2094642838D+01 EUMP2 =    -0.67162908568938D+03

 The electronic state is 1-A.
 Alpha  occ. eigenvalues --  -20.60778 -20.60772 -15.85818 -11.31157 -11.27698
 Alpha  occ. eigenvalues --  -11.27686 -11.27428 -11.26736 -11.26672 -11.22146
 Alpha  occ. eigenvalues --  -11.21957 -11.21754 -11.21513 -11.21444 -11.20796
 Alpha  occ. eigenvalues --   -1.59842  -1.39398  -1.19318  -1.08751  -1.08678
 Alpha  occ. eigenvalues --   -1.04719  -1.03779  -0.96257  -0.95558  -0.87281
 Alpha  occ. eigenvalues --   -0.86117  -0.82408  -0.79885  -0.78515  -0.77406
 Alpha  occ. eigenvalues --   -0.72039  -0.71156  -0.70425  -0.65366  -0.64963
 Alpha  occ. eigenvalues --   -0.64736  -0.62074  -0.61176  -0.59655  -0.57841
 Alpha  occ. eigenvalues --   -0.55578  -0.55212  -0.53177  -0.52862  -0.52841
 Alpha  occ. eigenvalues --   -0.52644  -0.50230  -0.48803  -0.48794  -0.48169
 Alpha  occ. eigenvalues --   -0.46920  -0.46024  -0.45889  -0.44775  -0.44010
 Alpha  occ. eigenvalues --   -0.37289  -0.36198
 Alpha virt. eigenvalues --    0.05051   0.11211   0.16490   0.19701   0.23008
 Alpha virt. eigenvalues --    0.23641   0.24788   0.26447   0.26733   0.28540
 Alpha virt. eigenvalues --    0.29347   0.30358   0.31183   0.31981   0.32112

 Mulliken charges:
               1
     1  C   -0.297320
     2  C   -0.299470
     3  C   -0.477325
     4  H    0.140003
     5  H    0.153702
     6  H    0.153940
     7  H    0.154703
     8  H    0.152159
     9  H    0.146994
    10  H    0.164283
    11  C   -0.298766
    12  C   -0.302504
    13  C   -0.476457
    14  H    0.149531
    15  H    0.149775
    16  H    0.157752
    17  H    0.151091
    18  H    0.152974
    19  H    0.154406
    20  H    0.167844
    21  C   -0.175018
    22  C   -0.214256
    23  C   -0.168509
    24  C    0.158049
    25  C   -0.172328
    26  C   -0.218491
    27  H    0.225908
    28  H    0.227444
    29  H    0.274459
    30  H    0.275139
    31  H    0.223099
    32  N    0.488579
    33  O   -0.460300
    34  O   -0.461090
 Sum of Mulliken charges =  -0.00000

 Dipole moment (field-independent basis, Debye):
    X=              2.0921    Y=             -4.5987    Z=             -0.8722  Tot=              5.1270
 Quadrupole moment (field-independent basis, Debye-Ang):
   XX=           -102.3243   YY=            -94.1840   ZZ=            -91.5379
   XY=             10.3000   XZ=              4.8575   YZ=              0.6120

 Normal termination of Gaussian 16 at Thu May  6 08:51:54 2021.
