 Gaussian 16, Revision A.03,
 Gaussian 16:  EM64L-G16RevA.03 25-Dec-2016

 -------------
 #p 6-31g* mp2
 -------------

 ------------------------------------------------------
 Input file generated by CHIRIPA (05-May-2021 14:53:16)
 ------------------------------------------------------
 Symbolic Z-matrix:
 Charge =  0 Multiplicity = 1

                         Standard orientation:
 ---------------------------------------------------------------------
 Center     Atomic      Atomic             Coordinates (Angstroms)
 Number     Number       Type             X           Y           Z
 ---------------------------------------------------------------------
      1          6           0       -3.105755    1.316541   -0.016376
      2          6           0       -1.719455    1.806126    0.403703
      3          6           0       -1.662548    3.321134    0.601958
      4          1           0       -3.399226    1.820862   -0.947225
      5          1           0       -3.838932    1.615354    0.745568
      6          1           0       -0.988894    1.505276   -0.358127
      7          1           0       -1.429170    1.300439    1.333558
      8          1           0       -2.369491    3.635092    1.376724
      9          1           0       -1.926713    3.841094   -0.324573
     10          1           0       -0.662529    3.649478    0.901979
     11          6           0       -3.178566   -0.195936   -0.218463
     12          6           0       -4.564865   -0.685521   -0.638541
     13          6           0       -4.621773   -2.200529   -0.836797
     14          1           0       -2.445389   -0.494749   -0.980407
     15          1           0       -2.885095   -0.700257    0.712386
     16          1           0       -4.855151   -0.179834   -1.568397
     17          1           0       -5.295427   -0.384671    0.123289
     18          1           0       -4.357607   -2.720489    0.089734
     19          1           0       -3.914830   -2.514487   -1.611563
     20          1           0       -5.621792   -2.528874   -1.136818
     21          6           0        1.053162   -2.269489    1.114467
     22          6           0        0.697235   -0.929517    1.299711
     23          6           0        1.466489    0.093671    0.737677
     24          6           0        2.590319   -0.260649   -0.007141
     25          6           0        2.970847   -1.586356   -0.209597
     26          6           0        2.186834   -2.593061    0.361732
     27          1           0        0.449854   -3.057923    1.554679
     28          1           0       -0.182664   -0.675273    1.883819
     29          1           0        1.213804    1.139272    0.865297
     30          1           0        3.853506   -1.808675   -0.796885
     31          1           0        2.465648   -3.632836    0.216215
     32          7           0        3.412506    0.813829   -0.607061
     33          8           0        4.397933    0.475395   -1.259006
     34          8           0        3.055942    1.974095   -0.413973
 ---------------------------------------------------------------------

 SCF Done:  E(RHF) =  -669.534269699     A.U. after   15 cycles
 E2 =    -0.2093449279D+01 EUMP2 =    -0.67162771897810D+03

 The electronic state is 1-A.
 Alpha  occ. eigenvalues --  -20.60729 -20.60723 -15.85780 -11.31103 -11.27679
 Alpha  occ. eigenvalues --  -11.27620 -11.27412 -11.26691 -11.26636 -11.22277
 Alpha  occ. eigenvalues --  -11.22118 -11.22009 -11.21925 -11.21592 -11.21441
 Alpha  occ. eigenvalues --   -1.59804  -1.39359  -1.19280  -1.09024  -1.08680
 Alpha  occ. eigenvalues --   -1.04694  -1.04068  -0.96497  -0.95522  -0.87507
 Alpha  occ. eigenvalues --   -0.86078  -0.82385  -0.80192  -0.78906  -0.77353
 Alpha  occ. eigenvalues --   -0.71999  -0.71128  -0.70390  -0.65690  -0.64931
 Alpha  occ. eigenvalues --   -0.64665  -0.62097  -0.61461  -0.59827  -0.58117
 Alpha  occ. eigenvalues --   -0.55770  -0.55180  -0.53216  -0.52991  -0.52924
 Alpha  occ. eigenvalues --   -0.52765  -0.50426  -0.48766  -0.48755  -0.48452
 Alpha  occ. eigenvalues --   -0.47198  -0.46375  -0.46282  -0.44770  -0.44327
 Alpha  occ. eigenvalues --   -0.37264  -0.36219
 Alpha virt. eigenvalues --    0.05106   0.11286   0.16572   0.19922   0.22639
 Alpha virt. eigenvalues --    0.23477   0.24622   0.26021   0.26648   0.28610
 Alpha virt. eigenvalues --    0.29402   0.30056   0.31262   0.31483   0.32384

 Mulliken charges:
               1
     1  C   -0.298119
     2  C   -0.307817
     3  C   -0.477611
     4  H    0.154275
     5  H    0.150412
     6  H    0.159693
     7  H    0.139446
     8  H    0.155530
     9  H    0.160740
    10  H    0.165544
    11  C   -0.298454
    12  C   -0.300122
    13  C   -0.475748
    14  H    0.153620
    15  H    0.140537
    16  H    0.154916
    17  H    0.152671
    18  H    0.151844
    19  H    0.156144
    20  H    0.162459
    21  C   -0.171342
    22  C   -0.219068
    23  C   -0.173517
    24  C    0.157241
    25  C   -0.171170
    26  C   -0.218888
    27  H    0.225291
    28  H    0.226053
    29  H    0.280918
    30  H    0.275120
    31  H    0.223002
    32  N    0.488318
    33  O   -0.460621
    34  O   -0.461296
 Sum of Mulliken charges =  -0.00000

 Dipole moment (field-independent basis, Debye):
    X=             -3.0256    Y=             -3.6709    Z=              1.9868  Tot=              5.1554
 Quadrupole moment (field-independent basis, Debye-Ang):
   XX=           -108.1684   YY=            -91.5085   ZZ=            -93.8524
   XY=            -11.9114   XZ=              4.2074   YZ=              0.5815

 Normal termination of Gaussian 16 at Thu May  6 13:54:57 2021.
