 Gaussian 16, Revision A.03,
 Gaussian 16:  EM64L-G16RevA.03 25-Dec-2016

 -------------
 #p 6-31g* mp2
 -------------

 ------------------------------------------------------
 Input file generated by CHIRIPA (05-May-2021 14:53:17)
 ------------------------------------------------------
 Symbolic Z-matrix:
 Charge =  0 Multiplicity = 1

                         Standard orientation:
 ---------------------------------------------------------------------
 Center     Atomic      Atomic             Coordinates (Angstroms)
 Number     Number       Type             X           Y           Z
 ---------------------------------------------------------------------
      1          6           0       -3.735791    0.553772    0.080304
      2          6           0       -3.739614    2.056005   -0.204768
      3          6           0       -2.456026    2.748166    0.254697
      4          1           0       -3.595728    0.391849    1.157852
      5          1           0       -2.871548    0.094952   -0.419658
      6          1           0       -4.604371    2.511636    0.294443
      7          1           0       -3.879876    2.214374   -1.281737
      8          1           0       -1.585065    2.320710   -0.252559
      9          1           0       -2.313676    2.619660    1.332577
     10          1           0       -2.480099    3.821345    0.041235
     11          6           0       -5.012339   -0.152185   -0.373324
     12          6           0       -5.008516   -1.654418   -0.088251
     13          6           0       -6.292104   -2.346579   -0.547717
     14          1           0       -5.876583    0.306635    0.126639
     15          1           0       -5.152402    0.009737   -1.450871
     16          1           0       -4.868254   -1.812788    0.988718
     17          1           0       -4.143759   -2.110049   -0.587462
     18          1           0       -6.434454   -2.218073   -1.625596
     19          1           0       -7.163066   -1.919123   -0.040461
     20          1           0       -6.268031   -3.419759   -0.334254
     21          6           0        1.370137    0.089832    1.568570
     22          6           0        2.490356   -0.597303    2.047604
     23          6           0        3.630097   -0.740127    1.250648
     24          6           0        3.615145   -0.180720   -0.026118
     25          6           0        2.514604    0.509514   -0.531761
     26          6           0        1.385808    0.640078    0.282684
     27          1           0        0.489009    0.196020    2.194458
     28          1           0        2.481013   -1.025665    3.045833
     29          1           0        4.511066   -1.267121    1.596466
     30          1           0        2.553708    0.925628   -1.531131
     31          1           0        0.517269    1.174237   -0.091965
     32          7           0        4.815944   -0.325431   -0.879076
     33          8           0        4.777621    0.176610   -2.000291
     34          8           0        5.772718   -0.938158   -0.410260
 ---------------------------------------------------------------------

 SCF Done:  E(RHF) =  -669.535573401     A.U. after   15 cycles
 E2 =    -0.2090943750D+01 EUMP2 =    -0.67162651715143D+03

 The electronic state is 1-A.
 Alpha  occ. eigenvalues --  -20.60721 -20.60715 -15.85773 -11.31127 -11.27698
 Alpha  occ. eigenvalues --  -11.27689 -11.27425 -11.26710 -11.26673 -11.22497
 Alpha  occ. eigenvalues --  -11.22259 -11.22250 -11.22167 -11.22028 -11.21522
 Alpha  occ. eigenvalues --   -1.59796  -1.39350  -1.19297  -1.09196  -1.08692
 Alpha  occ. eigenvalues --   -1.04701  -1.04296  -0.96765  -0.95529  -0.87785
 Alpha  occ. eigenvalues --   -0.86098  -0.82365  -0.80370  -0.78990  -0.77416
 Alpha  occ. eigenvalues --   -0.71992  -0.71119  -0.70401  -0.65831  -0.64948
 Alpha  occ. eigenvalues --   -0.64723  -0.62100  -0.61655  -0.60131  -0.58359
 Alpha  occ. eigenvalues --   -0.56081  -0.55189  -0.53440  -0.53261  -0.53028
 Alpha  occ. eigenvalues --   -0.52738  -0.50702  -0.48779  -0.48748  -0.48647
 Alpha  occ. eigenvalues --   -0.47390  -0.46535  -0.46436  -0.44758  -0.44536
 Alpha  occ. eigenvalues --   -0.37275  -0.36305
 Alpha virt. eigenvalues --    0.05121   0.11341   0.16618   0.19451   0.22477
 Alpha virt. eigenvalues --    0.23780   0.24846   0.26125   0.27013   0.27866
 Alpha virt. eigenvalues --    0.29347   0.29533   0.31076   0.31435   0.31987

 Mulliken charges:
               1
     1  C   -0.299002
     2  C   -0.299661
     3  C   -0.480850
     4  H    0.147182
     5  H    0.147044
     6  H    0.155799
     7  H    0.155450
     8  H    0.148553
     9  H    0.153823
    10  H    0.167012
    11  C   -0.298706
    12  C   -0.300260
    13  C   -0.476146
    14  H    0.151250
    15  H    0.151833
    16  H    0.151163
    17  H    0.152710
    18  H    0.156524
    19  H    0.155896
    20  H    0.161799
    21  C   -0.173611
    22  C   -0.218586
    23  C   -0.171290
    24  C    0.158947
    25  C   -0.173341
    26  C   -0.225300
    27  H    0.226426
    28  H    0.223126
    29  H    0.275337
    30  H    0.275834
    31  H    0.234293
    32  N    0.488030
    33  O   -0.460588
    34  O   -0.460689
 Sum of Mulliken charges =  -0.00000

 Dipole moment (field-independent basis, Debye):
    X=             -4.4788    Y=              0.5331    Z=              2.9883  Tot=              5.4105
 Quadrupole moment (field-independent basis, Debye-Ang):
   XX=           -124.6087   YY=            -94.3703   ZZ=            -91.8010
   XY=              0.4857   XZ=             12.4785   YZ=             -2.7690

 Normal termination of Gaussian 16 at Wed May  5 23:36:38 2021.
