 Gaussian 16, Revision A.03,
 Gaussian 16:  EM64L-G16RevA.03 25-Dec-2016

 -------------
 #p 6-31g* mp2
 -------------

 ------------------------------------------------------
 Input file generated by CHIRIPA (05-May-2021 14:51:07)
 ------------------------------------------------------
 Symbolic Z-matrix:
 Charge =  0 Multiplicity = 1

                         Standard orientation:
 ---------------------------------------------------------------------
 Center     Atomic      Atomic             Coordinates (Angstroms)
 Number     Number       Type             X           Y           Z
 ---------------------------------------------------------------------
      1          6           0       -3.876670    0.427594    0.354457
      2          6           0       -5.005295    1.091880   -0.434793
      3          6           0       -5.716828    2.187529    0.359605
      4          1           0       -4.286402    0.003204    1.281257
      5          1           0       -3.149399    1.193955    0.656390
      6          1           0       -5.729511    0.324287   -0.736333
      7          1           0       -4.592862    1.514571   -1.359913
      8          1           0       -5.011813    2.973928    0.647930
      9          1           0       -6.154920    1.776880    1.275053
     10          1           0       -6.519925    2.648978   -0.223455
     11          6           0       -3.155815   -0.669852   -0.426380
     12          6           0       -2.027191   -1.334138    0.362870
     13          6           0       -1.315658   -2.429787   -0.431528
     14          1           0       -3.883086   -1.436213   -0.728313
     15          1           0       -2.746083   -0.245462   -1.353180
     16          1           0       -2.439623   -1.756829    1.287990
     17          1           0       -1.302974   -0.566544    0.664410
     18          1           0       -0.877566   -2.019138   -1.346976
     19          1           0       -2.020673   -3.216186   -0.719853
     20          1           0       -0.512560   -2.891235    0.151532
     21          6           0        3.318337   -0.491572    0.446892
     22          6           0        2.804402   -1.652761   -0.404866
     23          6           0        2.412466   -2.871221    0.431515
     24          1           0        4.184031   -0.829880    1.032611
     25          1           0        2.543041   -0.206163    1.171360
     26          1           0        3.579913   -1.934985   -1.128434
     27          1           0        1.939949   -1.311596   -0.988769
     28          1           0        1.621859   -2.611902    1.143060
     29          1           0        3.271140   -3.238833    1.002601
     30          1           0        2.047892   -3.689416   -0.197376
     31          6           0        3.714148    0.733829   -0.374969
     32          6           0        4.228083    1.895019    0.476789
     33          6           0        4.620020    3.113479   -0.359592
     34          1           0        4.489444    0.448421   -1.099437
     35          1           0        2.848455    1.072138   -0.960687
     36          1           0        5.092536    1.553853    1.060692
     37          1           0        3.452573    2.177242    1.200357
     38          1           0        3.761345    3.481092   -0.930678
     39          1           0        5.410626    2.854160   -1.071137
     40          1           0        4.984594    3.931674    0.269300
 ---------------------------------------------------------------------

 SCF Done:  E(RHF) =  -470.732718374     A.U. after   11 cycles
 E2 =    -0.1583069375D+01 EUMP2 =    -0.47231578774927D+03

 The electronic state is 1-A.
 Alpha  occ. eigenvalues --  -11.21615 -11.21613 -11.21612 -11.21589 -11.21415
 Alpha  occ. eigenvalues --  -11.21415 -11.21356 -11.21355 -11.21085 -11.21081
 Alpha  occ. eigenvalues --  -11.21060 -11.20973  -1.08452  -1.08423  -1.03583
 Alpha  occ. eigenvalues --   -1.03485  -0.96068  -0.95901  -0.87090  -0.86914
 Alpha  occ. eigenvalues --   -0.79624  -0.79573  -0.78259  -0.78243  -0.65135
 Alpha  occ. eigenvalues --   -0.65018  -0.61116  -0.60833  -0.59465  -0.59222
 Alpha  occ. eigenvalues --   -0.57609  -0.57597  -0.55380  -0.55165  -0.52837
 Alpha  occ. eigenvalues --   -0.52507  -0.52437  -0.52346  -0.49916  -0.49901
 Alpha  occ. eigenvalues --   -0.47920  -0.47898  -0.46689  -0.46560  -0.45812
 Alpha  occ. eigenvalues --   -0.45775  -0.45742  -0.45678  -0.43858  -0.43684
 Alpha virt. eigenvalues --    0.20830   0.23200   0.23545   0.25376   0.26206
 Alpha virt. eigenvalues --    0.26603   0.26932   0.27301   0.27858   0.29035
 Alpha virt. eigenvalues --    0.30597   0.31067   0.31390   0.32143   0.32454

 Mulliken charges:
               1
     1  C   -0.298229
     2  C   -0.299649
     3  C   -0.475700
     4  H    0.149687
     5  H    0.149212
     6  H    0.152006
     7  H    0.151892
     8  H    0.155115
     9  H    0.155210
    10  H    0.160299
    11  C   -0.298165
    12  C   -0.300079
    13  C   -0.482988
    14  H    0.149772
    15  H    0.149420
    16  H    0.151873
    17  H    0.150725
    18  H    0.154765
    19  H    0.154503
    20  H    0.169933
    21  C   -0.298549
    22  C   -0.301672
    23  C   -0.478070
    24  H    0.149719
    25  H    0.149469
    26  H    0.151954
    27  H    0.154709
    28  H    0.156207
    29  H    0.155463
    30  H    0.161397
    31  C   -0.298244
    32  C   -0.299647
    33  C   -0.475692
    34  H    0.149633
    35  H    0.149239
    36  H    0.152057
    37  H    0.151831
    38  H    0.155034
    39  H    0.155247
    40  H    0.160308
 Sum of Mulliken charges =  -0.00000

 Dipole moment (field-independent basis, Debye):
    X=              0.0191    Y=             -0.0259    Z=              0.0021  Tot=              0.0322
 Quadrupole moment (field-independent basis, Debye-Ang):
   XX=            -83.9406   YY=            -85.6953   ZZ=            -85.0955
   XY=              0.2773   XZ=              0.0691   YZ=             -0.1600

 Normal termination of Gaussian 16 at Wed May  5 18:05:07 2021.
