 Gaussian 16, Revision A.03,
 Gaussian 16:  EM64L-G16RevA.03 25-Dec-2016

 -------------
 #p 6-31g* mp2
 -------------

 ------------------------------------------------------
 Input file generated by CHIRIPA (05-May-2021 14:51:10)
 ------------------------------------------------------
 Symbolic Z-matrix:
 Charge =  0 Multiplicity = 1

                         Standard orientation:
 ---------------------------------------------------------------------
 Center     Atomic      Atomic             Coordinates (Angstroms)
 Number     Number       Type             X           Y           Z
 ---------------------------------------------------------------------
      1          6           0        4.121152   -0.572275   -0.194736
      2          6           0        5.589126   -0.175384   -0.035006
      3          6           0        6.523706   -0.997155   -0.923288
      4          1           0        4.008746   -1.639460    0.040692
      5          1           0        3.828381   -0.451793   -1.246955
      6          1           0        5.878655   -0.295261    1.016858
      7          1           0        5.698017    0.891025   -0.270657
      8          1           0        6.262868   -0.869539   -1.978882
      9          1           0        6.444532   -2.062565   -0.684051
     10          1           0        7.568124   -0.696939   -0.793207
     11          6           0        3.174497    0.240376    0.686836
     12          6           0        1.706523   -0.156516    0.527106
     13          6           0        0.771943    0.665256    1.415388
     14          1           0        3.467268    0.119893    1.739055
     15          1           0        3.286902    1.307561    0.451407
     16          1           0        1.597631   -1.222925    0.762757
     17          1           0        1.416994   -0.036639   -0.524759
     18          1           0        0.851116    1.730666    1.176151
     19          1           0        1.032780    0.537639    2.470982
     20          1           0       -0.272475    0.365039    1.285306
     21          6           0       -3.053142    0.559378   -0.519908
     22          6           0       -3.060258    2.032514   -0.110269
     23          6           0       -1.864291    2.806360   -0.665804
     24          1           0       -2.120344    0.093599   -0.173666
     25          1           0       -3.048353    0.490982   -1.616582
     26          1           0       -3.066429    2.098105    0.985303
     27          1           0       -3.993233    2.494793   -0.457360
     28          1           0       -1.856954    2.770665   -1.760003
     29          1           0       -0.924884    2.371722   -0.309144
     30          1           0       -1.889288    3.857174   -0.360803
     31          6           0       -4.242507   -0.227479    0.027809
     32          6           0       -4.235390   -1.700614   -0.381831
     33          6           0       -5.431358   -2.474460    0.173704
     34          1           0       -4.247296   -0.159082    1.124483
     35          1           0       -5.175304    0.238301   -0.318434
     36          1           0       -3.302416   -2.162895   -0.034740
     37          1           0       -4.229219   -1.766206   -1.477402
     38          1           0       -6.370764   -2.039822   -0.182956
     39          1           0       -5.438696   -2.438765    1.267903
     40          1           0       -5.406361   -3.525274   -0.131296
 ---------------------------------------------------------------------

 SCF Done:  E(RHF) =  -470.732337455     A.U. after   11 cycles
 E2 =    -0.1583648007D+01 EUMP2 =    -0.47231598546142D+03

 The electronic state is 1-A.
 Alpha  occ. eigenvalues --  -11.21666 -11.21618 -11.21593 -11.21550 -11.21438
 Alpha  occ. eigenvalues --  -11.21383 -11.21376 -11.21322 -11.21137 -11.21082
 Alpha  occ. eigenvalues --  -11.21064 -11.20931  -1.08474  -1.08402  -1.03600
 Alpha  occ. eigenvalues --   -1.03473  -0.96050  -0.95927  -0.87069  -0.86949
 Alpha  occ. eigenvalues --   -0.79672  -0.79530  -0.78276  -0.78225  -0.65157
 Alpha  occ. eigenvalues --   -0.65024  -0.61157  -0.60791  -0.59450  -0.59228
 Alpha  occ. eigenvalues --   -0.57652  -0.57549  -0.55542  -0.55035  -0.52748
 Alpha  occ. eigenvalues --   -0.52630  -0.52514  -0.52308  -0.50169  -0.49687
 Alpha  occ. eigenvalues --   -0.47950  -0.47858  -0.46743  -0.46481  -0.45818
 Alpha  occ. eigenvalues --   -0.45745  -0.45737  -0.45666  -0.43788  -0.43746
 Alpha virt. eigenvalues --    0.20793   0.22975   0.23715   0.25080   0.26177
 Alpha virt. eigenvalues --    0.26454   0.27137   0.27406   0.27780   0.29349
 Alpha virt. eigenvalues --    0.30895   0.31443   0.31576   0.31774   0.32180

 Mulliken charges:
               1
     1  C   -0.298361
     2  C   -0.299720
     3  C   -0.475739
     4  H    0.149678
     5  H    0.149791
     6  H    0.151932
     7  H    0.152072
     8  H    0.155276
     9  H    0.155186
    10  H    0.160325
    11  C   -0.298443
    12  C   -0.301283
    13  C   -0.484740
    14  H    0.149705
    15  H    0.150128
    16  H    0.152170
    17  H    0.153409
    18  H    0.157567
    19  H    0.156360
    20  H    0.165447
    21  C   -0.304766
    22  C   -0.298937
    23  C   -0.483576
    24  H    0.154517
    25  H    0.149690
    26  H    0.151892
    27  H    0.151885
    28  H    0.153982
    29  H    0.165146
    30  H    0.159318
    31  C   -0.298054
    32  C   -0.299593
    33  C   -0.475695
    34  H    0.149370
    35  H    0.149801
    36  H    0.151703
    37  H    0.151973
    38  H    0.155201
    39  H    0.155176
    40  H    0.160208
 Sum of Mulliken charges =  -0.00000

 Dipole moment (field-independent basis, Debye):
    X=              0.0445    Y=             -0.0118    Z=              0.0137  Tot=              0.0481
 Quadrupole moment (field-independent basis, Debye-Ang):
   XX=            -85.8332   YY=            -85.0831   ZZ=            -83.9786
   XY=             -0.2796   XZ=              1.2296   YZ=             -0.7438

 Normal termination of Gaussian 16 at Thu May  6 05:22:36 2021.
