 Gaussian 16, Revision A.03,
 Gaussian 16:  EM64L-G16RevA.03 25-Dec-2016

 -------------
 #p 6-31g* mp2
 -------------

 ------------------------------------------------------
 Input file generated by CHIRIPA (05-May-2021 14:53:11)
 ------------------------------------------------------
 Symbolic Z-matrix:
 Charge =  0 Multiplicity = 1

                         Standard orientation:
 ---------------------------------------------------------------------
 Center     Atomic      Atomic             Coordinates (Angstroms)
 Number     Number       Type             X           Y           Z
 ---------------------------------------------------------------------
      1          6           0       -4.601137   -0.500069   -0.200597
      2          6           0       -4.197661   -1.771162    0.547411
      3          6           0       -5.081367   -2.968792    0.197353
      4          1           0       -5.649130   -0.263932    0.029390
      5          1           0       -4.553279   -0.688572   -1.282064
      6          1           0       -4.244932   -1.579901    1.627133
      7          1           0       -3.150449   -2.004194    0.315767
      8          1           0       -5.026704   -3.187821   -0.873926
      9          1           0       -6.127406   -2.761117    0.444891
     10          1           0       -4.775369   -3.866686    0.743257
     11          6           0       -3.726966    0.705899    0.138805
     12          6           0       -4.130442    1.976992   -0.609203
     13          6           0       -3.246736    3.174622   -0.259145
     14          1           0       -3.774824    0.894401    1.220272
     15          1           0       -2.678973    0.469761   -0.091182
     16          1           0       -5.177654    2.210024   -0.377559
     17          1           0       -4.083171    1.785731   -1.688925
     18          1           0       -2.200697    2.966947   -0.506683
     19          1           0       -3.301399    3.393651    0.812134
     20          1           0       -3.552734    4.072516   -0.805049
     21          6           0        0.754317    0.195478    0.237610
     22          6           0        1.595725    0.612785    1.274146
     23          6           0        2.981768    0.464817    1.166722
     24          6           0        3.494745   -0.107073    0.003500
     25          6           0        2.682570   -0.532664   -1.046517
     26          6           0        1.299463   -0.374909   -0.917377
     27          1           0       -0.321254    0.314224    0.329494
     28          1           0        1.175148    1.056087    2.172279
     29          1           0        3.656226    0.779221    1.953917
     30          1           0        3.131223   -0.971060   -1.929657
     31          1           0        0.648432   -0.699904   -1.723964
     32          7           0        4.960531   -0.268900   -0.121720
     33          8           0        5.387644   -0.775699   -1.156789
     34          8           0        5.654549    0.114123    0.817572
 ---------------------------------------------------------------------

 SCF Done:  E(RHF) =  -669.535580914     A.U. after   15 cycles
 E2 =    -0.2091221574D+01 EUMP2 =    -0.67162680248850D+03

 The electronic state is 1-A.
 Alpha  occ. eigenvalues --  -20.60735 -20.60730 -15.85789 -11.31150 -11.27723
 Alpha  occ. eigenvalues --  -11.27715 -11.27429 -11.26736 -11.26719 -11.22604
 Alpha  occ. eigenvalues --  -11.22530 -11.22474 -11.22306 -11.21980 -11.21760
 Alpha  occ. eigenvalues --   -1.59810  -1.39364  -1.19321  -1.09420  -1.08714
 Alpha  occ. eigenvalues --   -1.04726  -1.04418  -0.96873  -0.95552  -0.87882
 Alpha  occ. eigenvalues --   -0.86122  -0.82389  -0.80487  -0.79263  -0.77434
 Alpha  occ. eigenvalues --   -0.72006  -0.71134  -0.70443  -0.66053  -0.64972
 Alpha  occ. eigenvalues --   -0.64729  -0.62075  -0.61810  -0.60238  -0.58489
 Alpha  occ. eigenvalues --   -0.56187  -0.55234  -0.53517  -0.53287  -0.53053
 Alpha  occ. eigenvalues --   -0.52817  -0.50812  -0.48805  -0.48762  -0.48757
 Alpha  occ. eigenvalues --   -0.47526  -0.46777  -0.46699  -0.44771  -0.44705
 Alpha  occ. eigenvalues --   -0.37297  -0.36333
 Alpha virt. eigenvalues --    0.05096   0.11322   0.16561   0.19083   0.22572
 Alpha virt. eigenvalues --    0.23512   0.24706   0.26187   0.27045   0.27443
 Alpha virt. eigenvalues --    0.29786   0.30387   0.31072   0.31105   0.31670

 Mulliken charges:
               1
     1  C   -0.298130
     2  C   -0.299973
     3  C   -0.476188
     4  H    0.153852
     5  H    0.150687
     6  H    0.153191
     7  H    0.147607
     8  H    0.156088
     9  H    0.157312
    10  H    0.162786
    11  C   -0.304468
    12  C   -0.299724
    13  C   -0.476995
    14  H    0.151328
    15  H    0.141609
    16  H    0.156243
    17  H    0.153618
    18  H    0.151789
    19  H    0.155811
    20  H    0.165139
    21  C   -0.179380
    22  C   -0.221202
    23  C   -0.170617
    24  C    0.158244
    25  C   -0.170782
    26  C   -0.222012
    27  H    0.239372
    28  H    0.224430
    29  H    0.275458
    30  H    0.275453
    31  H    0.222536
    32  N    0.487982
    33  O   -0.460584
    34  O   -0.460479
 Sum of Mulliken charges =  -0.00000

 Dipole moment (field-independent basis, Debye):
    X=             -5.4346    Y=              0.5906    Z=              0.4461  Tot=              5.4847
 Quadrupole moment (field-independent basis, Debye-Ang):
   XX=           -130.1587   YY=            -95.2245   ZZ=            -90.1960
   XY=              2.1061   XZ=              1.6445   YZ=              2.1220

 Normal termination of Gaussian 16 at Wed May  5 21:42:05 2021.
