 Gaussian 16, Revision A.03,
 Gaussian 16:  EM64L-G16RevA.03 25-Dec-2016

 -------------
 #p 6-31g* mp2
 -------------

 ------------------------------------------------------
 Input file generated by CHIRIPA (05-May-2021 14:53:14)
 ------------------------------------------------------
 Symbolic Z-matrix:
 Charge =  0 Multiplicity = 1

                         Standard orientation:
 ---------------------------------------------------------------------
 Center     Atomic      Atomic             Coordinates (Angstroms)
 Number     Number       Type             X           Y           Z
 ---------------------------------------------------------------------
      1          6           0        2.024566    1.060244   -0.006673
      2          6           0        1.789573    2.287285    0.874880
      3          6           0        0.406491    2.906131    0.670167
      4          1           0        1.900924    1.344721   -1.060585
      5          1           0        1.250818    0.309994    0.207415
      6          1           0        2.564349    3.034442    0.660182
      7          1           0        1.913977    1.999897    1.926805
      8          1           0       -0.378857    2.179914    0.903486
      9          1           0        0.275210    3.220337   -0.370334
     10          1           0        0.259782    3.781828    1.310082
     11          6           0        3.402858    0.430420    0.186613
     12          6           0        3.637851   -0.796620   -0.694939
     13          6           0        5.020933   -1.415467   -0.490227
     14          1           0        4.176606    1.180671   -0.027474
     15          1           0        3.526500    0.145944    1.240526
     16          1           0        3.513447   -0.509233   -1.746865
     17          1           0        2.863075   -1.543777   -0.480242
     18          1           0        5.152213   -1.729672    0.550274
     19          1           0        5.806281   -0.689249   -0.723546
     20          1           0        5.167642   -2.291164   -1.130142
     21          6           0       -1.320966   -2.757149    0.928370
     22          6           0       -1.294973   -2.572045   -0.457842
     23          6           0       -1.735301   -1.371134   -1.022174
     24          6           0       -2.197344   -0.372033   -0.166836
     25          6           0       -2.235609   -0.526270    1.218096
     26          6           0       -1.790373   -1.735473    1.760448
     27          1           0       -0.977003   -3.693266    1.358219
     28          1           0       -0.930947   -3.363753   -1.106479
     29          1           0       -1.726092   -1.201197   -2.091966
     30          1           0       -2.603984    0.281285    1.839040
     31          1           0       -1.811703   -1.876434    2.837351
     32          7           0       -2.666096    0.903706   -0.752634
     33          8           0       -3.068517    1.768428    0.022575
     34          8           0       -2.622208    1.014752   -1.975901
 ---------------------------------------------------------------------

 SCF Done:  E(RHF) =  -669.535894423     A.U. after   15 cycles
 E2 =    -0.2093340867D+01 EUMP2 =    -0.67162923528970D+03

 The electronic state is 1-A.
 Alpha  occ. eigenvalues --  -20.60863 -20.60857 -15.85882 -11.31279 -11.27849
 Alpha  occ. eigenvalues --  -11.27839 -11.27592 -11.26870 -11.26860 -11.21724
 Alpha  occ. eigenvalues --  -11.21372 -11.21287 -11.21235 -11.21185 -11.20439
 Alpha  occ. eigenvalues --   -1.59915  -1.39473  -1.19455  -1.08843  -1.08334
 Alpha  occ. eigenvalues --   -1.04856  -1.03392  -0.95816  -0.95672  -0.86826
 Alpha  occ. eigenvalues --   -0.86251  -0.82504  -0.79471  -0.78138  -0.77548
 Alpha  occ. eigenvalues --   -0.72114  -0.71237  -0.70554  -0.65108  -0.64971
 Alpha  occ. eigenvalues --   -0.64853  -0.62202  -0.60794  -0.59224  -0.57430
 Alpha  occ. eigenvalues --   -0.55356  -0.55104  -0.53209  -0.52943  -0.52495
 Alpha  occ. eigenvalues --   -0.52231  -0.49779  -0.48877  -0.48866  -0.47786
 Alpha  occ. eigenvalues --   -0.46544  -0.45680  -0.45599  -0.44727  -0.43640
 Alpha  occ. eigenvalues --   -0.37417  -0.36449
 Alpha virt. eigenvalues --    0.04969   0.11096   0.16447   0.21297   0.22874
 Alpha virt. eigenvalues --    0.24284   0.26560   0.27125   0.27373   0.27872
 Alpha virt. eigenvalues --    0.28487   0.30567   0.31552   0.31835   0.32131

 Mulliken charges:
               1
     1  C   -0.301688
     2  C   -0.300020
     3  C   -0.478046
     4  H    0.151894
     5  H    0.149231
     6  H    0.151220
     7  H    0.147516
     8  H    0.154900
     9  H    0.161850
    10  H    0.160658
    11  C   -0.297375
    12  C   -0.299126
    13  C   -0.475430
    14  H    0.150452
    15  H    0.147511
    16  H    0.152742
    17  H    0.147607
    18  H    0.153955
    19  H    0.156705
    20  H    0.158522
    21  C   -0.171233
    22  C   -0.218522
    23  C   -0.170208
    24  C    0.160061
    25  C   -0.173901
    26  C   -0.218594
    27  H    0.226090
    28  H    0.224214
    29  H    0.276193
    30  H    0.276276
    31  H    0.223967
    32  N    0.489429
    33  O   -0.457936
    34  O   -0.458916
 Sum of Mulliken charges =  -0.00000

 Dipole moment (field-independent basis, Debye):
    X=              1.4963    Y=             -4.4511    Z=              1.9931  Tot=              5.1013
 Quadrupole moment (field-independent basis, Debye-Ang):
   XX=           -103.6079   YY=            -91.0934   ZZ=            -90.8056
   XY=              9.6833   XZ=             -6.3175   YZ=              1.1872

 Normal termination of Gaussian 16 at Thu May  6 04:13:08 2021.
