 Gaussian 16, Revision A.03,
 Gaussian 16:  EM64L-G16RevA.03 25-Dec-2016

 -------------
 #p 6-31g* mp2
 -------------

 ------------------------------------------------------
 Input file generated by CHIRIPA (05-May-2021 14:55:19)
 ------------------------------------------------------
 Symbolic Z-matrix:
 Charge =  0 Multiplicity = 1

                         Standard orientation:
 ---------------------------------------------------------------------
 Center     Atomic      Atomic             Coordinates (Angstroms)
 Number     Number       Type             X           Y           Z
 ---------------------------------------------------------------------
      1          6           0       -3.970737    2.174050    0.337664
      2          6           0       -4.057604    1.088592    1.215591
      3          6           0       -3.465785   -0.135849    0.891487
      4          6           0       -2.791823   -0.240121   -0.324322
      5          6           0       -2.687932    0.822994   -1.220024
      6          6           0       -3.287383    2.038027   -0.875203
      7          1           0       -4.433440    3.121572    0.597482
      8          1           0       -4.587669    1.191339    2.158203
      9          1           0       -3.517732   -0.992370    1.552617
     10          1           0       -2.152831    0.690114   -2.152455
     11          1           0       -3.218316    2.879311   -1.558954
     12          7           0       -2.161251   -1.531402   -0.678402
     13          8           0       -1.573151   -1.597553   -1.755620
     14          8           0       -2.267050   -2.452907    0.127993
     15          6           0        4.439859    0.196413    0.480552
     16          6           0        5.245003    0.504231   -0.782372
     17          6           0        6.710171    0.825311   -0.485752
     18          1           0        4.497578    1.055428    1.162979
     19          1           0        4.903016   -0.650951    1.004818
     20          1           0        4.779662    1.349876   -1.304825
     21          1           0        5.185202   -0.355542   -1.461954
     22          1           0        7.195809   -0.018645    0.014744
     23          1           0        6.787966    1.696463    0.172764
     24          1           0        7.267190    1.042236   -1.402558
     25          6           0        2.973259   -0.126518    0.200319
     26          6           0        2.168114   -0.434335    1.463242
     27          6           0        0.702946   -0.755416    1.166623
     28          1           0        2.510102    0.720845   -0.323948
     29          1           0        2.915539   -0.985532   -0.482108
     30          1           0        2.227916    0.425437    2.142824
     31          1           0        2.633454   -1.279981    1.985697
     32          1           0        0.625152   -1.626568    0.508107
     33          1           0        0.217309    0.088540    0.666127
     34          1           0        0.145927   -0.972341    2.083429
 ---------------------------------------------------------------------

 SCF Done:  E(RHF) =  -669.535635799     A.U. after   15 cycles
 E2 =    -0.2092662479D+01 EUMP2 =    -0.67162829827821D+03

 The electronic state is 1-A.
 Alpha  occ. eigenvalues --  -20.60773 -20.60760 -15.85789 -11.31170 -11.27743
 Alpha  occ. eigenvalues --  -11.27732 -11.27491 -11.26772 -11.26760 -11.21306
 Alpha  occ. eigenvalues --  -11.21136 -11.21040 -11.20910 -11.20837 -11.20433
 Alpha  occ. eigenvalues --   -1.59827  -1.39382  -1.19349  -1.08744  -1.08036
 Alpha  occ. eigenvalues --   -1.04754  -1.03133  -0.95587  -0.95575  -0.86612
 Alpha  occ. eigenvalues --   -0.86151  -0.82415  -0.79229  -0.77851  -0.77458
 Alpha  occ. eigenvalues --   -0.72030  -0.71126  -0.70458  -0.65004  -0.64761
 Alpha  occ. eigenvalues --   -0.64668  -0.62102  -0.60532  -0.58951  -0.57186
 Alpha  occ. eigenvalues --   -0.55259  -0.54889  -0.53083  -0.52849  -0.52273
 Alpha  occ. eigenvalues --   -0.51995  -0.49511  -0.48791  -0.48786  -0.47508
 Alpha  occ. eigenvalues --   -0.46238  -0.45384  -0.45308  -0.44792  -0.43366
 Alpha  occ. eigenvalues --   -0.37298  -0.36358
 Alpha virt. eigenvalues --    0.05054   0.11259   0.16527   0.21409   0.23255
 Alpha virt. eigenvalues --    0.24706   0.27030   0.27295   0.27829   0.28024
 Alpha virt. eigenvalues --    0.28508   0.30944   0.31638   0.31995   0.32174

 Mulliken charges:
               1
     1  C   -0.170963
     2  C   -0.218526
     3  C   -0.170936
     4  C    0.160578
     5  C   -0.172759
     6  C   -0.218530
     7  H    0.225461
     8  H    0.223368
     9  H    0.275652
    10  H    0.275730
    11  H    0.223335
    12  N    0.491885
    13  O   -0.460607
    14  O   -0.459711
    15  C   -0.298066
    16  C   -0.299353
    17  C   -0.475473
    18  H    0.147353
    19  H    0.149711
    20  H    0.150351
    21  H    0.153640
    22  H    0.155330
    23  H    0.153875
    24  H    0.159473
    25  C   -0.298265
    26  C   -0.299678
    27  C   -0.485802
    28  H    0.146570
    29  H    0.155386
    30  H    0.147454
    31  H    0.152715
    32  H    0.174884
    33  H    0.147224
    34  H    0.158694
 Sum of Mulliken charges =  -0.00000

 Dipole moment (field-independent basis, Debye):
    X=             -2.3045    Y=              4.4151    Z=              1.1978  Tot=              5.1224
 Quadrupole moment (field-independent basis, Debye-Ang):
   XX=            -83.9986   YY=            -95.6871   ZZ=            -92.1916
   XY=            -12.4360   XZ=             -4.6622   YZ=             -3.7011

 Normal termination of Gaussian 16 at Thu May  6 07:40:19 2021.
