 Gaussian 16, Revision A.03,
 Gaussian 16:  EM64L-G16RevA.03 25-Dec-2016

 -------------
 #p 6-31g* mp2
 -------------

 ------------------------------------------------------
 Input file generated by CHIRIPA (05-May-2021 14:57:26)
 ------------------------------------------------------
 Symbolic Z-matrix:
 Charge =  0 Multiplicity = 1

                         Standard orientation:
 ---------------------------------------------------------------------
 Center     Atomic      Atomic             Coordinates (Angstroms)
 Number     Number       Type             X           Y           Z
 ---------------------------------------------------------------------
      1          6           0        4.778951   -0.108205   -1.243795
      2          6           0        4.803202   -0.775826   -0.014887
      3          6           0        3.707416   -0.709692    0.850807
      4          6           0        2.598816    0.036504    0.453958
      5          6           0        2.544435    0.712725   -0.763851
      6          6           0        3.651632    0.632634   -1.613702
      7          1           0        5.634616   -0.165000   -1.910133
      8          1           0        5.677344   -1.351919    0.275006
      9          1           0        3.699525   -1.216790    1.807995
     10          1           0        1.658841    1.279128   -1.025248
     11          1           0        3.630004    1.152140   -2.567479
     12          7           0        1.432716    0.113904    1.362043
     13          8           0        0.468033    0.777952    0.989132
     14          8           0        1.505491   -0.490942    2.429518
     15          6           0       -2.567025    2.472933   -0.017334
     16          6           0       -1.997698    1.842162   -1.128422
     17          6           0       -2.115544    0.459402   -1.297642
     18          6           0       -2.812657   -0.265117   -0.332036
     19          6           0       -3.390994    0.334366    0.785747
     20          6           0       -3.260633    1.718352    0.934525
     21          1           0       -2.470618    3.547571    0.106181
     22          1           0       -1.458473    2.425655   -1.869243
     23          1           0       -1.684585   -0.054483   -2.148299
     24          1           0       -3.922619   -0.273884    1.507427
     25          1           0       -3.703807    2.205538    1.798407
     26          7           0       -2.944040   -1.729632   -0.500363
     27          8           0       -3.563179   -2.345481    0.364527
     28          8           0       -2.425390   -2.233939   -1.493999
 ---------------------------------------------------------------------

 SCF Done:  E(RHF) =  -868.337217738     A.U. after   16 cycles
 E2 =    -0.2601366423D+01 EUMP2 =    -0.87093858416053D+03

 The electronic state is 1-A.
 Alpha  occ. eigenvalues --  -20.60936 -20.60924 -20.59930 -20.59904 -15.85966
 Alpha  occ. eigenvalues --  -15.84966 -11.31353 -11.30093 -11.27974 -11.27886
 Alpha  occ. eigenvalues --  -11.27650 -11.26965 -11.26903 -11.26767 -11.26658
 Alpha  occ. eigenvalues --  -11.26450 -11.25778 -11.25643  -1.60006  -1.58995
 Alpha  occ. eigenvalues --   -1.39561  -1.38559  -1.19521  -1.18255  -1.08912
 Alpha  occ. eigenvalues --   -1.07719  -1.04933  -1.03690  -0.95750  -0.94600
 Alpha  occ. eigenvalues --   -0.86329  -0.85130  -0.82588  -0.81477  -0.77640
 Alpha  occ. eigenvalues --   -0.76538  -0.72216  -0.71328  -0.71209  -0.70636
 Alpha  occ. eigenvalues --   -0.70293  -0.69477  -0.65181  -0.64942  -0.63984
 Alpha  occ. eigenvalues --   -0.63789  -0.62294  -0.61106  -0.55425  -0.54259
 Alpha  occ. eigenvalues --   -0.53250  -0.53033  -0.51901  -0.51868  -0.48979
 Alpha  occ. eigenvalues --   -0.48925  -0.47967  -0.47940  -0.44959  -0.44018
 Alpha  occ. eigenvalues --   -0.37490  -0.36534  -0.36169  -0.35182
 Alpha virt. eigenvalues --    0.04873   0.06055   0.11118   0.12391   0.16400
 Alpha virt. eigenvalues --    0.17487   0.20977   0.22232   0.26518   0.27609
 Alpha virt. eigenvalues --    0.28801   0.29164   0.30745   0.31565   0.32883

 Mulliken charges:
               1
     1  C   -0.170253
     2  C   -0.218015
     3  C   -0.169785
     4  C    0.159473
     5  C   -0.170530
     6  C   -0.217806
     7  H    0.226322
     8  H    0.224704
     9  H    0.276975
    10  H    0.268771
    11  H    0.221876
    12  N    0.490491
    13  O   -0.464322
    14  O   -0.458513
    15  C   -0.162326
    16  C   -0.211346
    17  C   -0.166046
    18  C    0.163911
    19  C   -0.164058
    20  C   -0.212133
    21  H    0.220619
    22  H    0.211183
    23  H    0.267091
    24  H    0.273479
    25  H    0.220432
    26  N    0.487870
    27  O   -0.461178
    28  O   -0.466886
 Sum of Mulliken charges =  -0.00000

 Dipole moment (field-independent basis, Debye):
    X=              4.6964    Y=              4.8733    Z=             -2.3293  Tot=              7.1576
 Quadrupole moment (field-independent basis, Debye-Ang):
   XX=            -84.4847   YY=           -107.4489   ZZ=           -103.2175
   XY=            -17.1514   XZ=             -9.6732   YZ=             -4.4999

 Normal termination of Gaussian 16 at Wed May  5 22:51:08 2021.
