 Gaussian 16, Revision A.03,
 Gaussian 16:  EM64L-G16RevA.03 25-Dec-2016

 -------------
 #p 6-31g* mp2
 -------------

 ------------------------------------------------------
 Input file generated by CHIRIPA (05-May-2021 14:53:18)
 ------------------------------------------------------
 Symbolic Z-matrix:
 Charge =  0 Multiplicity = 1

                         Standard orientation:
 ---------------------------------------------------------------------
 Center     Atomic      Atomic             Coordinates (Angstroms)
 Number     Number       Type             X           Y           Z
 ---------------------------------------------------------------------
      1          6           0        4.118870    0.718925    0.282930
      2          6           0        2.706063    1.065918   -0.187768
      3          6           0        2.186529    2.371933    0.414065
      4          1           0        4.126078    0.647547    1.379196
      5          1           0        4.798161    1.541225    0.018767
      6          1           0        2.029900    0.242596    0.075975
      7          1           0        2.702176    1.136290   -1.283053
      8          1           0        2.837742    3.208260    0.140056
      9          1           0        2.161646    2.309488    1.506805
     10          1           0        1.175052    2.600791    0.064209
     11          6           0        4.652096   -0.584031   -0.310117
     12          6           0        6.064903   -0.931024    0.160580
     13          6           0        6.584438   -2.237039   -0.441252
     14          1           0        3.972806   -1.406331   -0.045954
     15          1           0        4.644889   -0.512653   -1.406383
     16          1           0        6.068790   -1.001396    1.255865
     17          1           0        6.741067   -0.107702   -0.103163
     18          1           0        6.609320   -2.174594   -1.533993
     19          1           0        5.933224   -3.073365   -0.167243
     20          1           0        7.595914   -2.465897   -0.091396
     21          6           0       -1.878669    1.939078   -0.053008
     22          6           0       -2.702254    1.657251   -1.147907
     23          6           0       -3.563601    0.556324   -1.123677
     24          6           0       -3.575764   -0.245250    0.016771
     25          6           0       -2.767287    0.009421    1.123477
     26          6           0       -1.913754    1.115715    1.077197
     27          1           0       -1.212589    2.796389   -0.080395
     28          1           0       -2.677115    2.294950   -2.026971
     29          1           0       -4.211850    0.315096   -1.957343
     30          1           0       -2.814558   -0.644555    1.985741
     31          1           0       -1.275264    1.332170    1.928974
     32          7           0       -4.483498   -1.413594    0.054095
     33          8           0       -4.475462   -2.104343    1.070676
     34          8           0       -5.185828   -1.616468   -0.933940
 ---------------------------------------------------------------------

 SCF Done:  E(RHF) =  -669.535430047     A.U. after   15 cycles
 E2 =    -0.2091181923D+01 EUMP2 =    -0.67162661197058D+03

 The electronic state is 1-A.
 Alpha  occ. eigenvalues --  -20.60764 -20.60759 -15.85818 -11.31188 -11.27753
 Alpha  occ. eigenvalues --  -11.27750 -11.27482 -11.26770 -11.26760 -11.22315
 Alpha  occ. eigenvalues --  -11.22104 -11.21947 -11.21934 -11.21782 -11.21325
 Alpha  occ. eigenvalues --   -1.59840  -1.39393  -1.19358  -1.08954  -1.08752
 Alpha  occ. eigenvalues --   -1.04760  -1.04093  -0.96567  -0.95587  -0.87588
 Alpha  occ. eigenvalues --   -0.86155  -0.82421  -0.80157  -0.78725  -0.77464
 Alpha  occ. eigenvalues --   -0.72036  -0.71163  -0.70496  -0.65580  -0.65011
 Alpha  occ. eigenvalues --   -0.64765  -0.62109  -0.61481  -0.59997  -0.58170
 Alpha  occ. eigenvalues --   -0.55842  -0.55301  -0.53292  -0.53090  -0.52911
 Alpha  occ. eigenvalues --   -0.52848  -0.50492  -0.48796  -0.48791  -0.48467
 Alpha  occ. eigenvalues --   -0.47172  -0.46278  -0.46177  -0.44798  -0.44343
 Alpha  occ. eigenvalues --   -0.37324  -0.36363
 Alpha virt. eigenvalues --    0.05041   0.11256   0.16449   0.20164   0.22579
 Alpha virt. eigenvalues --    0.24002   0.26065   0.26210   0.26849   0.27271
 Alpha virt. eigenvalues --    0.28597   0.30112   0.30987   0.31569   0.32441

 Mulliken charges:
               1
     1  C   -0.298999
     2  C   -0.299257
     3  C   -0.479070
     4  H    0.149795
     5  H    0.150303
     6  H    0.154414
     7  H    0.153583
     8  H    0.159010
     9  H    0.154432
    10  H    0.150515
    11  C   -0.298838
    12  C   -0.300035
    13  C   -0.476060
    14  H    0.151034
    15  H    0.150488
    16  H    0.152252
    17  H    0.152106
    18  H    0.155674
    19  H    0.156271
    20  H    0.161243
    21  C   -0.171972
    22  C   -0.219096
    23  C   -0.170932
    24  C    0.158693
    25  C   -0.171288
    26  C   -0.219226
    27  H    0.228508
    28  H    0.223567
    29  H    0.275592
    30  H    0.275496
    31  H    0.224604
    32  N    0.488063
    33  O   -0.460493
    34  O   -0.460380
 Sum of Mulliken charges =  -0.00000

 Dipole moment (field-independent basis, Debye):
    X=              3.3362    Y=              4.0582    Z=             -0.1543  Tot=              5.2558
 Quadrupole moment (field-independent basis, Debye-Ang):
   XX=           -117.4088   YY=            -97.9173   ZZ=            -90.1461
   XY=            -15.4421   XZ=              2.0947   YZ=             -1.8934

 Normal termination of Gaussian 16 at Wed May  5 15:46:31 2021.
