 Gaussian 16, Revision A.03,
 Gaussian 16:  EM64L-G16RevA.03 25-Dec-2016

 -------------
 #p 6-31g* mp2
 -------------

 ------------------------------------------------------
 Input file generated by CHIRIPA (05-May-2021 14:51:12)
 ------------------------------------------------------
 Symbolic Z-matrix:
 Charge =  0 Multiplicity = 1

                         Standard orientation:
 ---------------------------------------------------------------------
 Center     Atomic      Atomic             Coordinates (Angstroms)
 Number     Number       Type             X           Y           Z
 ---------------------------------------------------------------------
      1          6           0        2.559221   -0.076879    0.294599
      2          6           0        1.905783   -0.060152    1.676888
      3          6           0        0.389674    0.126870    1.611843
      4          1           0        2.326177    0.862332   -0.225516
      5          1           0        2.114595   -0.884161   -0.303731
      6          1           0        2.352484    0.745975    2.272903
      7          1           0        2.140568   -0.999431    2.193847
      8          1           0       -0.074240   -0.683304    1.040000
      9          1           0        0.138879    1.072019    1.119506
     10          1           0       -0.056960    0.135842    2.610991
     11          6           0        4.074709   -0.263077    0.343124
     12          6           0        4.728146   -0.279804   -1.039166
     13          6           0        6.244255   -0.466825   -0.974120
     14          1           0        4.519334    0.544206    0.941453
     15          1           0        4.307752   -1.202287    0.863238
     16          1           0        4.493361    0.659475   -1.556125
     17          1           0        4.281445   -1.085930   -1.635181
     18          1           0        6.495050   -1.411975   -0.481784
     19          1           0        6.708169    0.343348   -0.402278
     20          1           0        6.690889   -0.475798   -1.973269
     21          6           0       -3.332285    0.885746   -0.052641
     22          6           0       -2.367376    1.823585   -0.778861
     23          6           0       -2.409532    3.251937   -0.234961
     24          1           0       -4.353239    1.282288   -0.138390
     25          1           0       -3.088779    0.878419    1.018829
     26          1           0       -2.611751    1.828074   -1.848850
     27          1           0       -1.348627    1.424662   -0.691535
     28          1           0       -2.144528    3.267689    0.827171
     29          1           0       -3.414829    3.673393   -0.336719
     30          1           0       -1.712129    3.905377   -0.768353
     31          6           0       -3.301645   -0.545790   -0.585081
     32          6           0       -4.266553   -1.483629    0.141138
     33          6           0       -4.224397   -2.911982   -0.402761
     34          1           0       -3.545150   -0.538463   -1.656551
     35          1           0       -2.280691   -0.942334   -0.499332
     36          1           0       -5.285303   -1.084707    0.053813
     37          1           0       -4.022178   -1.488119    1.211127
     38          1           0       -3.219101   -3.333438   -0.301003
     39          1           0       -4.489401   -2.927734   -1.464893
     40          1           0       -4.921800   -3.565423    0.130631
 ---------------------------------------------------------------------

 SCF Done:  E(RHF) =  -470.732925441     A.U. after   11 cycles
 E2 =    -0.1583534413D+01 EUMP2 =    -0.47231645985315D+03

 The electronic state is 1-A.
 Alpha  occ. eigenvalues --  -11.21676 -11.21630 -11.21550 -11.21474 -11.21460
 Alpha  occ. eigenvalues --  -11.21397 -11.21322 -11.21257 -11.21165 -11.21093
 Alpha  occ. eigenvalues --  -11.21045 -11.21029  -1.08489  -1.08351  -1.03598
 Alpha  occ. eigenvalues --   -1.03463  -0.96045  -0.95924  -0.87072  -0.86934
 Alpha  occ. eigenvalues --   -0.79675  -0.79519  -0.78310  -0.78152  -0.65121
 Alpha  occ. eigenvalues --   -0.64999  -0.61118  -0.60778  -0.59415  -0.59287
 Alpha  occ. eigenvalues --   -0.57642  -0.57536  -0.55449  -0.55100  -0.52734
 Alpha  occ. eigenvalues --   -0.52635  -0.52467  -0.52349  -0.50058  -0.49799
 Alpha  occ. eigenvalues --   -0.48074  -0.47800  -0.46771  -0.46446  -0.45956
 Alpha  occ. eigenvalues --   -0.45749  -0.45665  -0.45456  -0.43839  -0.43717
 Alpha virt. eigenvalues --    0.20674   0.22979   0.23515   0.24510   0.25862
 Alpha virt. eigenvalues --    0.26588   0.26972   0.27665   0.27898   0.29503
 Alpha virt. eigenvalues --    0.30591   0.31380   0.31679   0.31927   0.32110

 Mulliken charges:
               1
     1  C   -0.298642
     2  C   -0.299975
     3  C   -0.482735
     4  H    0.149693
     5  H    0.149445
     6  H    0.152318
     7  H    0.152150
     8  H    0.157282
     9  H    0.161092
    10  H    0.160267
    11  C   -0.298281
    12  C   -0.299729
    13  C   -0.475755
    14  H    0.149694
    15  H    0.149791
    16  H    0.152092
    17  H    0.152050
    18  H    0.155216
    19  H    0.155236
    20  H    0.160399
    21  C   -0.298264
    22  C   -0.304164
    23  C   -0.476891
    24  H    0.149091
    25  H    0.151406
    26  H    0.151448
    27  H    0.156817
    28  H    0.155407
    29  H    0.155302
    30  H    0.159469
    31  C   -0.301323
    32  C   -0.299665
    33  C   -0.475521
    34  H    0.149131
    35  H    0.152465
    36  H    0.151794
    37  H    0.152125
    38  H    0.154538
    39  H    0.155108
    40  H    0.160120
 Sum of Mulliken charges =  -0.00000

 Dipole moment (field-independent basis, Debye):
    X=              0.0446    Y=             -0.0042    Z=              0.0211  Tot=              0.0495
 Quadrupole moment (field-independent basis, Debye-Ang):
   XX=            -85.5030   YY=            -84.9555   ZZ=            -84.4492
   XY=              0.0212   XZ=              0.5583   YZ=             -0.4027

 Normal termination of Gaussian 16 at Thu May  6 05:31:16 2021.
