 Gaussian 16, Revision A.03,
 Gaussian 16:  EM64L-G16RevA.03 25-Dec-2016

 -------------
 #p 6-31g* mp2
 -------------

 ------------------------------------------------------
 Input file generated by CHIRIPA (05-May-2021 14:53:17)
 ------------------------------------------------------
 Symbolic Z-matrix:
 Charge =  0 Multiplicity = 1

                         Standard orientation:
 ---------------------------------------------------------------------
 Center     Atomic      Atomic             Coordinates (Angstroms)
 Number     Number       Type             X           Y           Z
 ---------------------------------------------------------------------
      1          6           0       -2.591181    1.286848   -0.550157
      2          6           0       -2.057584    2.316242    0.446641
      3          6           0       -1.400136    3.515503   -0.236973
      4          1           0       -1.765769    0.940552   -1.187118
      5          1           0       -3.316944    1.773699   -1.216219
      6          1           0       -1.334074    1.827269    1.111512
      7          1           0       -2.884325    2.659986    1.081430
      8          1           0       -2.116392    4.029108   -0.886426
      9          1           0       -0.557333    3.191659   -0.856173
     10          1           0       -1.025774    4.238855    0.494106
     11          6           0       -3.251287    0.082084    0.118074
     12          6           0       -3.784883   -0.947310   -0.878724
     13          6           0       -4.442332   -2.146571   -0.195109
     14          1           0       -2.525524   -0.404767    0.784137
     15          1           0       -4.076698    0.428380    0.755036
     16          1           0       -2.958143   -1.291054   -1.513513
     17          1           0       -4.508394   -0.458337   -1.543595
     18          1           0       -5.285135   -1.822727    0.424091
     19          1           0       -3.726076   -2.660176    0.454344
     20          1           0       -4.816693   -2.869922   -0.926188
     21          6           0        4.301794    0.760286   -0.612325
     22          6           0        4.033693   -0.505687   -1.143320
     23          6           0        2.917569   -1.232226   -0.717929
     24          6           0        2.086968   -0.659937    0.244297
     25          6           0        2.327360    0.599109    0.792298
     26          6           0        3.449275    1.307679    0.352089
     27          1           0        5.171075    1.317699   -0.948534
     28          1           0        4.694033   -0.933288   -1.892422
     29          1           0        2.686434   -2.214306   -1.112279
     30          1           0        1.650793    0.999139    1.537718
     31          1           0        3.655015    2.290639    0.766219
     32          7           0        0.902313   -1.419579    0.702482
     33          8           0        0.186009   -0.893254    1.551321
     34          8           0        0.712515   -2.526929    0.204095
 ---------------------------------------------------------------------

 SCF Done:  E(RHF) =  -669.536821256     A.U. after   15 cycles
 E2 =    -0.2092393999D+01 EUMP2 =    -0.67162921525515D+03

 The electronic state is 1-A.
 Alpha  occ. eigenvalues --  -20.61125 -20.61111 -15.86123 -11.31377 -11.27928
 Alpha  occ. eigenvalues --  -11.27925 -11.27651 -11.26920 -11.26909 -11.20979
 Alpha  occ. eigenvalues --  -11.20813 -11.20610 -11.20529 -11.20093 -11.19959
 Alpha  occ. eigenvalues --   -1.60163  -1.39722  -1.19536  -1.08954  -1.07521
 Alpha  occ. eigenvalues --   -1.04920  -1.02719  -0.95807  -0.95178  -0.86324
 Alpha  occ. eigenvalues --   -0.86197  -0.82643  -0.78807  -0.77711  -0.77268
 Alpha  occ. eigenvalues --   -0.72348  -0.71472  -0.70643  -0.65195  -0.64922
 Alpha  occ. eigenvalues --   -0.64130  -0.62269  -0.60111  -0.58593  -0.56779
 Alpha  occ. eigenvalues --   -0.55427  -0.54469  -0.53252  -0.53009  -0.51928
 Alpha  occ. eigenvalues --   -0.51605  -0.49285  -0.49105  -0.48939  -0.47119
 Alpha  occ. eigenvalues --   -0.45832  -0.45350  -0.44858  -0.44394  -0.42931
 Alpha  occ. eigenvalues --   -0.37508  -0.36515
 Alpha virt. eigenvalues --    0.04758   0.11110   0.16247   0.20932   0.23407
 Alpha virt. eigenvalues --    0.24907   0.26673   0.27444   0.27821   0.28725
 Alpha virt. eigenvalues --    0.29092   0.30875   0.31618   0.32275   0.32281

 Mulliken charges:
               1
     1  C   -0.294660
     2  C   -0.304601
     3  C   -0.475909
     4  H    0.144270
     5  H    0.145294
     6  H    0.160089
     7  H    0.151060
     8  H    0.155146
     9  H    0.150737
    10  H    0.154898
    11  C   -0.311578
    12  C   -0.297569
    13  C   -0.477025
    14  H    0.178640
    15  H    0.144128
    16  H    0.152293
    17  H    0.145393
    18  H    0.151034
    19  H    0.165580
    20  H    0.155838
    21  C   -0.170293
    22  C   -0.218566
    23  C   -0.170622
    24  C    0.157693
    25  C   -0.171324
    26  C   -0.218687
    27  H    0.226463
    28  H    0.224169
    29  H    0.275948
    30  H    0.277423
    31  H    0.224700
    32  N    0.488825
    33  O   -0.460683
    34  O   -0.458105
 Sum of Mulliken charges =  -0.00000

 Dipole moment (field-independent basis, Debye):
    X=              4.4305    Y=              2.4537    Z=             -1.4737  Tot=              5.2746
 Quadrupole moment (field-independent basis, Debye-Ang):
   XX=            -77.6930   YY=            -96.9059   ZZ=            -94.3833
   XY=              1.2786   XZ=             -3.6308   YZ=              4.7263

 Normal termination of Gaussian 16 at Thu May  6 09:08:34 2021.
