 Gaussian 16, Revision A.03,
 Gaussian 16:  EM64L-G16RevA.03 25-Dec-2016

 -------------
 #p 6-31g* mp2
 -------------

 ------------------------------------------------------
 Input file generated by CHIRIPA (05-May-2021 14:51:10)
 ------------------------------------------------------
 Symbolic Z-matrix:
 Charge =  0 Multiplicity = 1

                         Standard orientation:
 ---------------------------------------------------------------------
 Center     Atomic      Atomic             Coordinates (Angstroms)
 Number     Number       Type             X           Y           Z
 ---------------------------------------------------------------------
      1          6           0       -3.476436   -0.409044   -0.005865
      2          6           0       -3.432052   -1.727713   -0.778605
      3          6           0       -4.198544   -2.849737   -0.077646
      4          1           0       -3.061520   -0.566212    0.999166
      5          1           0       -4.524176   -0.108034    0.132083
      6          1           0       -2.384661   -2.025437   -0.916259
      7          1           0       -3.846946   -1.567342   -1.781980
      8          1           0       -5.251815   -2.577873    0.046091
      9          1           0       -3.781222   -3.038571    0.916731
     10          1           0       -4.153770   -3.783239   -0.647234
     11          6           0       -2.714640    0.722288   -0.693967
     12          6           0       -2.759024    2.040956    0.078774
     13          6           0       -1.992532    3.162981   -0.622186
     14          1           0       -1.666901    0.421278   -0.831915
     15          1           0       -3.129557    0.879456   -1.698998
     16          1           0       -2.344131    1.880586    1.082148
     17          1           0       -3.806415    2.338681    0.216427
     18          1           0       -2.409854    3.351815   -1.616563
     19          1           0       -0.939261    2.891117   -0.745923
     20          1           0       -2.037306    4.096482   -0.052598
     21          6           0        3.672657    0.123280   -0.064838
     22          6           0        4.769930   -0.903384   -0.347575
     23          6           0        5.917590   -0.328439   -1.178303
     24          1           0        3.281903    0.504821   -1.018086
     25          1           0        4.111297    0.983344    0.459832
     26          1           0        4.329088   -1.761872   -0.870329
     27          1           0        5.157984   -1.282667    0.606456
     28          1           0        6.384089    0.515019   -0.659114
     29          1           0        5.550484    0.033091   -2.144290
     30          1           0        6.690808   -1.079278   -1.368657
     31          6           0        2.518420   -0.436523    0.764670
     32          6           0        1.421147    0.590140    1.047406
     33          6           0        0.273487    0.015196    1.878135
     34          1           0        2.079779   -1.296589    0.239999
     35          1           0        2.909173   -0.818065    1.717918
     36          1           0        1.033092    0.969423    0.093376
     37          1           0        1.861988    1.448628    1.570162
     38          1           0        0.640592   -0.346335    2.844122
     39          1           0       -0.193013   -0.828263    1.358947
     40          1           0       -0.499732    0.766034    2.068489
 ---------------------------------------------------------------------

 SCF Done:  E(RHF) =  -470.732865814     A.U. after   11 cycles
 E2 =    -0.1584230026D+01 EUMP2 =    -0.47231709583948D+03

 The electronic state is 1-A.
 Alpha  occ. eigenvalues --  -11.21699 -11.21636 -11.21596 -11.21564 -11.21466
 Alpha  occ. eigenvalues --  -11.21402 -11.21360 -11.21298 -11.21153 -11.21095
 Alpha  occ. eigenvalues --  -11.21059 -11.21054  -1.08506  -1.08391  -1.03612
 Alpha  occ. eigenvalues --   -1.03496  -0.96050  -0.95951  -0.87075  -0.86964
 Alpha  occ. eigenvalues --   -0.79679  -0.79562  -0.78315  -0.78203  -0.65298
 Alpha  occ. eigenvalues --   -0.64922  -0.61094  -0.60880  -0.59377  -0.59303
 Alpha  occ. eigenvalues --   -0.57636  -0.57568  -0.55434  -0.55131  -0.52781
 Alpha  occ. eigenvalues --   -0.52635  -0.52483  -0.52368  -0.49983  -0.49894
 Alpha  occ. eigenvalues --   -0.48018  -0.47885  -0.46730  -0.46568  -0.45903
 Alpha  occ. eigenvalues --   -0.45799  -0.45720  -0.45574  -0.43801  -0.43751
 Alpha virt. eigenvalues --    0.19374   0.22950   0.23184   0.25106   0.25376
 Alpha virt. eigenvalues --    0.26111   0.26947   0.27581   0.28359   0.29690
 Alpha virt. eigenvalues --    0.30188   0.30514   0.31705   0.32138   0.32497

 Mulliken charges:
               1
     1  C   -0.300459
     2  C   -0.300050
     3  C   -0.475681
     4  H    0.152821
     5  H    0.149325
     6  H    0.151019
     7  H    0.151919
     8  H    0.155265
     9  H    0.155383
    10  H    0.160071
    11  C   -0.300567
    12  C   -0.303322
    13  C   -0.478208
    14  H    0.152374
    15  H    0.149419
    16  H    0.155382
    17  H    0.152040
    18  H    0.155136
    19  H    0.157288
    20  H    0.160133
    21  C   -0.298401
    22  C   -0.299711
    23  C   -0.475764
    24  H    0.149744
    25  H    0.149755
    26  H    0.152009
    27  H    0.152023
    28  H    0.155265
    29  H    0.155312
    30  H    0.160386
    31  C   -0.298366
    32  C   -0.303848
    33  C   -0.481921
    34  H    0.149399
    35  H    0.150074
    36  H    0.154602
    37  H    0.152709
    38  H    0.155649
    39  H    0.156399
    40  H    0.165397
 Sum of Mulliken charges =  -0.00000

 Dipole moment (field-independent basis, Debye):
    X=              0.0293    Y=              0.0013    Z=              0.0229  Tot=              0.0372
 Quadrupole moment (field-independent basis, Debye-Ang):
   XX=            -84.8877   YY=            -85.6007   ZZ=            -84.2614
   XY=             -0.7808   XZ=              1.5481   YZ=              0.6293

 Normal termination of Gaussian 16 at Wed May  5 23:02:50 2021.
