 Gaussian 16, Revision A.03,
 Gaussian 16:  EM64L-G16RevA.03 25-Dec-2016

 -------------
 #p 6-31g* mp2
 -------------

 ------------------------------------------------------
 Input file generated by CHIRIPA (05-May-2021 14:51:12)
 ------------------------------------------------------
 Symbolic Z-matrix:
 Charge =  0 Multiplicity = 1

                         Standard orientation:
 ---------------------------------------------------------------------
 Center     Atomic      Atomic             Coordinates (Angstroms)
 Number     Number       Type             X           Y           Z
 ---------------------------------------------------------------------
      1          6           0       -2.297627   -0.499760    0.148884
      2          6           0       -2.469312   -1.027404    1.573700
      3          6           0       -2.493196   -2.554782    1.639594
      4          1           0       -3.114622   -0.882506   -0.477990
      5          1           0       -1.365655   -0.900523   -0.273267
      6          1           0       -3.399987   -0.624659    1.993530
      7          1           0       -1.651921   -0.643202    2.197299
      8          1           0       -1.560690   -2.971988    1.245926
      9          1           0       -3.318689   -2.953340    1.041000
     10          1           0       -2.616763   -2.910401    2.667273
     11          6           0       -2.271866    1.025464    0.066685
     12          6           0       -2.100181    1.553108   -1.358131
     13          6           0       -2.076298    3.080486   -1.424024
     14          1           0       -3.203839    1.426226    0.488836
     15          1           0       -1.454872    1.408210    0.693559
     16          1           0       -2.917573    1.168906   -1.981730
     17          1           0       -1.169507    1.150363   -1.777961
     18          1           0       -1.250805    3.479043   -0.825431
     19          1           0       -3.008803    3.497692   -1.030357
     20          1           0       -1.952731    3.436105   -2.451704
     21          6           0        1.955111   -0.585853   -0.716425
     22          6           0        2.101494   -2.107524   -0.749138
     23          6           0        1.436888   -2.739171   -1.972705
     24          1           0        0.887733   -0.326150   -0.730693
     25          1           0        2.392019   -0.162684   -1.631540
     26          1           0        1.665677   -2.527592    0.166408
     27          1           0        3.168644   -2.363638   -0.734596
     28          1           0        1.877400   -2.347806   -2.895409
     29          1           0        0.365893   -2.512689   -1.989285
     30          1           0        1.553618   -3.827392   -1.976008
     31          6           0        2.614382    0.060148    0.500856
     32          6           0        2.468000    1.581821    0.533568
     33          6           0        3.132605    2.213468    1.757135
     34          1           0        2.177474   -0.363020    1.415971
     35          1           0        3.681761   -0.199553    0.515124
     36          1           0        1.400849    1.837935    0.519028
     37          1           0        2.903817    2.001887   -0.381977
     38          1           0        4.203600    1.986985    1.773716
     39          1           0        2.692094    1.822102    2.679841
     40          1           0        3.015876    3.301688    1.760439
 ---------------------------------------------------------------------

 SCF Done:  E(RHF) =  -470.733171825     A.U. after   11 cycles
 E2 =    -0.1584841468D+01 EUMP2 =    -0.47231801329309D+03

 The electronic state is 1-A.
 Alpha  occ. eigenvalues --  -11.21679 -11.21670 -11.21668 -11.21622 -11.21469
 Alpha  occ. eigenvalues --  -11.21467 -11.21408 -11.21408 -11.21127 -11.21127
 Alpha  occ. eigenvalues --  -11.21114 -11.21082  -1.08549  -1.08449  -1.03601
 Alpha  occ. eigenvalues --   -1.03567  -0.96048  -0.96017  -0.87057  -0.87038
 Alpha  occ. eigenvalues --   -0.79662  -0.79634  -0.78415  -0.78222  -0.65530
 Alpha  occ. eigenvalues --   -0.64761  -0.61098  -0.60874  -0.59413  -0.59387
 Alpha  occ. eigenvalues --   -0.57650  -0.57635  -0.55418  -0.55231  -0.52732
 Alpha  occ. eigenvalues --   -0.52713  -0.52464  -0.52449  -0.50020  -0.49944
 Alpha  occ. eigenvalues --   -0.48033  -0.47921  -0.46787  -0.46678  -0.46309
 Alpha  occ. eigenvalues --   -0.45809  -0.45760  -0.45184  -0.43848  -0.43829
 Alpha virt. eigenvalues --    0.18557   0.21360   0.23688   0.24533   0.25695
 Alpha virt. eigenvalues --    0.26607   0.27053   0.27527   0.28194   0.30395
 Alpha virt. eigenvalues --    0.30606   0.31538   0.31791   0.32026   0.32323

 Mulliken charges:
               1
     1  C   -0.306460
     2  C   -0.299255
     3  C   -0.476501
     4  H    0.150354
     5  H    0.156025
     6  H    0.152460
     7  H    0.151345
     8  H    0.155441
     9  H    0.155603
    10  H    0.160553
    11  C   -0.300923
    12  C   -0.302980
    13  C   -0.476135
    14  H    0.150310
    15  H    0.151289
    16  H    0.152165
    17  H    0.155095
    18  H    0.155684
    19  H    0.155138
    20  H    0.160554
    21  C   -0.308870
    22  C   -0.299903
    23  C   -0.478225
    24  H    0.159192
    25  H    0.149926
    26  H    0.151728
    27  H    0.152615
    28  H    0.155504
    29  H    0.156992
    30  H    0.160747
    31  C   -0.297617
    32  C   -0.303377
    33  C   -0.475646
    34  H    0.149198
    35  H    0.150247
    36  H    0.153961
    37  H    0.152483
    38  H    0.155563
    39  H    0.155209
    40  H    0.160513
 Sum of Mulliken charges =  -0.00000

 Dipole moment (field-independent basis, Debye):
    X=              0.0023    Y=             -0.0002    Z=             -0.0126  Tot=              0.0128
 Quadrupole moment (field-independent basis, Debye-Ang):
   XX=            -83.0433   YY=            -86.3132   ZZ=            -85.2022
   XY=             -0.2109   XZ=             -0.6987   YZ=             -0.3193

 Normal termination of Gaussian 16 at Wed May  5 16:49:08 2021.
