 Gaussian 16, Revision A.03,
 Gaussian 16:  EM64L-G16RevA.03 25-Dec-2016

 -------------
 #p 6-31g* mp2
 -------------

 ------------------------------------------------------
 Input file generated by CHIRIPA (05-May-2021 14:57:24)
 ------------------------------------------------------
 Symbolic Z-matrix:
 Charge =  0 Multiplicity = 1

                         Standard orientation:
 ---------------------------------------------------------------------
 Center     Atomic      Atomic             Coordinates (Angstroms)
 Number     Number       Type             X           Y           Z
 ---------------------------------------------------------------------
      1          6           0       -3.467794    2.017753   -1.059695
      2          6           0       -4.457949    1.321282   -0.358950
      3          6           0       -4.165378    0.102520    0.260378
      4          6           0       -2.866316   -0.392791    0.158415
      5          6           0       -1.858103    0.277531   -0.532573
      6          6           0       -2.173313    1.494577   -1.144121
      7          1           0       -3.703863    2.963850   -1.537782
      8          1           0       -5.464123    1.725189   -0.291733
      9          1           0       -4.912778   -0.457478    0.809207
     10          1           0       -0.864199   -0.150385   -0.582184
     11          1           0       -1.402339    2.033283   -1.687664
     12          7           0       -2.544601   -1.682132    0.809951
     13          8           0       -1.392443   -2.097156    0.705437
     14          8           0       -3.450690   -2.253279    1.412803
     15          6           0        2.710877    2.224701    1.412816
     16          6           0        1.892813    2.083468    0.287053
     17          6           0        1.999639    0.954912   -0.531176
     18          6           0        2.939492   -0.017354   -0.192553
     19          6           0        3.768797    0.094540    0.922356
     20          6           0        3.644612    1.231538    1.726322
     21          1           0        2.621150    3.104670    2.042897
     22          1           0        1.166779    2.853176    0.041150
     23          1           0        1.378892    0.820143   -1.408632
     24          1           0        4.483237   -0.689552    1.141882
     25          1           0        4.281250    1.338557    2.599984
     26          7           0        3.061773   -1.216573   -1.051226
     27          8           0        3.897642   -2.058949   -0.731285
     28          8           0        2.319431   -1.291439   -2.027936
 ---------------------------------------------------------------------

 SCF Done:  E(RHF) =  -868.336309081     A.U. after   16 cycles
 E2 =    -0.2601408943D+01 EUMP2 =    -0.87093771802454D+03

 The electronic state is 1-A.
 Alpha  occ. eigenvalues --  -20.60829 -20.60809 -20.60760 -20.60734 -15.85879
 Alpha  occ. eigenvalues --  -15.85810 -11.31442 -11.31334 -11.28135 -11.27948
 Alpha  occ. eigenvalues --  -11.27944 -11.27927 -11.27768 -11.27740 -11.27157
 Alpha  occ. eigenvalues --  -11.27093 -11.26997 -11.26974  -1.59878  -1.59823
 Alpha  occ. eigenvalues --   -1.39435  -1.39371  -1.19611  -1.19548  -1.08952
 Alpha  occ. eigenvalues --   -1.08918  -1.05105  -1.04960  -0.95780  -0.95710
 Alpha  occ. eigenvalues --   -0.86466  -0.86362  -0.82654  -0.82529  -0.77727
 Alpha  occ. eigenvalues --   -0.77499  -0.72103  -0.72025  -0.71187  -0.71151
 Alpha  occ. eigenvalues --   -0.70818  -0.70573  -0.65281  -0.65214  -0.65145
 Alpha  occ. eigenvalues --   -0.64951  -0.62680  -0.62091  -0.55561  -0.55452
 Alpha  occ. eigenvalues --   -0.53413  -0.53312  -0.53188  -0.52981  -0.48869
 Alpha  occ. eigenvalues --   -0.48844  -0.48802  -0.48766  -0.44797  -0.44740
 Alpha  occ. eigenvalues --   -0.37551  -0.37540  -0.36811  -0.36440
 Alpha virt. eigenvalues --    0.04812   0.05063   0.10855   0.11063   0.16245
 Alpha virt. eigenvalues --    0.16525   0.18824   0.22152   0.24820   0.27276
 Alpha virt. eigenvalues --    0.28041   0.29074   0.30720   0.31429   0.32480

 Mulliken charges:
               1
     1  C   -0.170433
     2  C   -0.219161
     3  C   -0.169472
     4  C    0.158021
     5  C   -0.171903
     6  C   -0.223197
     7  H    0.225152
     8  H    0.224072
     9  H    0.276746
    10  H    0.281689
    11  H    0.215164
    12  N    0.487588
    13  O   -0.455932
    14  O   -0.460804
    15  C   -0.170545
    16  C   -0.215662
    17  C   -0.178770
    18  C    0.165551
    19  C   -0.168599
    20  C   -0.216530
    21  H    0.226315
    22  H    0.218257
    23  H    0.266719
    24  H    0.278419
    25  H    0.225648
    26  N    0.490426
    27  O   -0.456007
    28  O   -0.462750
 Sum of Mulliken charges =  -0.00000

 Dipole moment (field-independent basis, Debye):
    X=             -1.3952    Y=              8.5419    Z=              0.9184  Tot=              8.7037
 Quadrupole moment (field-independent basis, Debye-Ang):
   XX=            -92.9990   YY=           -109.2234   ZZ=           -105.6473
   XY=             -1.3882   XZ=             16.6014   YZ=             -0.3330

 Normal termination of Gaussian 16 at Fri May  7 06:29:40 2021.
