 Gaussian 16, Revision A.03,
 Gaussian 16:  EM64L-G16RevA.03 25-Dec-2016

 -------------
 #p 6-31g* mp2
 -------------

 ------------------------------------------------------
 Input file generated by CHIRIPA (05-May-2021 14:55:19)
 ------------------------------------------------------
 Symbolic Z-matrix:
 Charge =  0 Multiplicity = 1

                         Standard orientation:
 ---------------------------------------------------------------------
 Center     Atomic      Atomic             Coordinates (Angstroms)
 Number     Number       Type             X           Y           Z
 ---------------------------------------------------------------------
      1          6           0       -0.327220   -1.151470    2.096736
      2          6           0       -0.972457   -1.977721    1.170723
      3          6           0       -1.819059   -1.431978    0.201198
      4          6           0       -1.998501   -0.049635    0.186483
      5          6           0       -1.369784    0.799910    1.095482
      6          6           0       -0.527590    0.232268    2.056232
      7          1           0        0.328728   -1.583922    2.846478
      8          1           0       -0.818715   -3.052692    1.199808
      9          1           0       -2.331065   -2.048400   -0.527700
     10          1           0       -1.542720    1.867897    1.041500
     11          1           0       -0.027799    0.876381    2.774127
     12          7           0       -2.892427    0.539710   -0.835265
     13          8           0       -3.033901    1.760593   -0.827133
     14          8           0       -3.434686   -0.230404   -1.624896
     15          6           0        2.215623   -0.411728   -0.901737
     16          6           0        2.606867   -1.751167   -0.276583
     17          6           0        2.292829   -2.941163   -1.183821
     18          1           0        1.142262   -0.423086   -1.135644
     19          1           0        2.742809   -0.293676   -1.858571
     20          1           0        2.080161   -1.866035    0.679452
     21          1           0        3.679383   -1.736547   -0.043960
     22          1           0        2.830013   -2.853681   -2.133760
     23          1           0        1.221706   -2.983905   -1.406236
     24          1           0        2.580537   -3.888533   -0.717373
     25          6           0        2.523374    0.787448   -0.006754
     26          6           0        2.132130    2.126887   -0.631907
     27          6           0        2.446168    3.316884    0.275332
     28          1           0        1.996187    0.669397    0.950082
     29          1           0        3.596735    0.798807    0.227154
     30          1           0        1.059615    2.112268   -0.864529
     31          1           0        2.658835    2.241756   -1.587941
     32          1           0        3.517292    3.359626    0.497747
     33          1           0        1.908984    3.229401    1.225269
     34          1           0        2.158459    4.264253   -0.191117
 ---------------------------------------------------------------------

 SCF Done:  E(RHF) =  -669.533832113     A.U. after   15 cycles
 E2 =    -0.2097397810D+01 EUMP2 =    -0.67163122992236D+03

 The electronic state is 1-A.
 Alpha  occ. eigenvalues --  -20.60915 -20.60910 -15.85971 -11.31405 -11.27962
 Alpha  occ. eigenvalues --  -11.27959 -11.27689 -11.26986 -11.26975 -11.21907
 Alpha  occ. eigenvalues --  -11.21758 -11.21551 -11.21491 -11.21469 -11.21394
 Alpha  occ. eigenvalues --   -1.59990  -1.39541  -1.19591  -1.09001  -1.08621
 Alpha  occ. eigenvalues --   -1.05000  -1.03808  -0.96266  -0.95790  -0.87288
 Alpha  occ. eigenvalues --   -0.86385  -0.82614  -0.79874  -0.78481  -0.77645
 Alpha  occ. eigenvalues --   -0.72185  -0.71318  -0.70678  -0.65425  -0.65226
 Alpha  occ. eigenvalues --   -0.64933  -0.62357  -0.61219  -0.59633  -0.57878
 Alpha  occ. eigenvalues --   -0.55615  -0.55479  -0.53241  -0.53068  -0.52970
 Alpha  occ. eigenvalues --   -0.52690  -0.50235  -0.48951  -0.48937  -0.48208
 Alpha  occ. eigenvalues --   -0.46921  -0.46040  -0.45942  -0.44930  -0.44030
 Alpha  occ. eigenvalues --   -0.37407  -0.36501
 Alpha virt. eigenvalues --    0.04822   0.10894   0.16177   0.20034   0.22987
 Alpha virt. eigenvalues --    0.23261   0.26273   0.26419   0.27113   0.27899
 Alpha virt. eigenvalues --    0.29221   0.29817   0.31400   0.31562   0.32004

 Mulliken charges:
               1
     1  C   -0.170357
     2  C   -0.214504
     3  C   -0.173228
     4  C    0.158978
     5  C   -0.170340
     6  C   -0.219556
     7  H    0.227637
     8  H    0.225993
     9  H    0.276741
    10  H    0.277095
    11  H    0.225648
    12  N    0.487933
    13  O   -0.459840
    14  O   -0.459558
    15  C   -0.299437
    16  C   -0.299648
    17  C   -0.476902
    18  H    0.154144
    19  H    0.150922
    20  H    0.146015
    21  H    0.150876
    22  H    0.158825
    23  H    0.152967
    24  H    0.156781
    25  C   -0.299777
    26  C   -0.302571
    27  C   -0.474309
    28  H    0.147102
    29  H    0.147378
    30  H    0.155039
    31  H    0.154638
    32  H    0.155836
    33  H    0.145265
    34  H    0.164213
 Sum of Mulliken charges =  -0.00000

 Dipole moment (field-independent basis, Debye):
    X=              2.9891    Y=             -2.0562    Z=              3.5785  Tot=              5.0959
 Quadrupole moment (field-independent basis, Debye-Ang):
   XX=           -107.4081   YY=            -91.5494   ZZ=            -93.2941
   XY=              5.0625   XZ=             -6.9664   YZ=              0.5678

 Normal termination of Gaussian 16 at Wed May  5 15:52:00 2021.
