 Gaussian 16, Revision A.03,
 Gaussian 16:  EM64L-G16RevA.03 25-Dec-2016

 -------------
 #p 6-31g* mp2
 -------------

 ------------------------------------------------------
 Input file generated by CHIRIPA (05-May-2021 14:51:11)
 ------------------------------------------------------
 Symbolic Z-matrix:
 Charge =  0 Multiplicity = 1

                         Standard orientation:
 ---------------------------------------------------------------------
 Center     Atomic      Atomic             Coordinates (Angstroms)
 Number     Number       Type             X           Y           Z
 ---------------------------------------------------------------------
      1          6           0        3.017147   -0.226732   -0.062856
      2          6           0        2.521851   -1.520004    0.585307
      3          6           0        1.040953   -1.787403    0.314691
      4          1           0        2.417179    0.615263    0.308665
      5          1           0        2.845118   -0.278833   -1.146870
      6          1           0        2.696028   -1.466049    1.667604
      7          1           0        3.123194   -2.358993    0.212345
      8          1           0        0.854311   -1.867799   -0.761089
      9          1           0        0.424717   -0.969782    0.702439
     10          1           0        0.707919   -2.716757    0.787184
     11          6           0        4.495766    0.054335    0.198705
     12          6           0        4.991062    1.347607   -0.449458
     13          6           0        6.471960    1.615006   -0.178842
     14          1           0        4.667795    0.106435    1.282719
     15          1           0        5.095734   -0.787660   -0.172817
     16          1           0        4.389719    2.186596   -0.076496
     17          1           0        4.816885    1.293652   -1.531756
     18          1           0        7.088196    0.797384   -0.566591
     19          1           0        6.658603    1.695402    0.896937
     20          1           0        6.804994    2.544360   -0.651335
     21          6           0       -4.335168    0.582481   -0.115138
     22          6           0       -3.936095    2.014958    0.240858
     23          6           0       -5.104553    2.996118    0.141729
     24          1           0       -4.744804    0.565280   -1.134376
     25          1           0       -5.145166    0.258174    0.552787
     26          1           0       -3.126146    2.335979   -0.426632
     27          1           0       -3.527184    2.028720    1.259298
     28          1           0       -5.912373    2.702951    0.820022
     29          1           0       -5.509056    3.011956   -0.875488
     30          1           0       -4.797005    4.014133    0.400418
     31          6           0       -3.177745   -0.410084   -0.020711
     32          6           0       -3.576818   -1.842562   -0.376707
     33          6           0       -2.408360   -2.823721   -0.277577
     34          1           0       -2.367747   -0.085776   -0.688635
     35          1           0       -2.768109   -0.392882    0.998528
     36          1           0       -3.985729   -1.856322   -1.395147
     37          1           0       -4.386768   -2.163581    0.290784
     38          1           0       -2.003858   -2.839559    0.739639
     39          1           0       -1.600540   -2.530553   -0.955870
     40          1           0       -2.715909   -3.841735   -0.536266
 ---------------------------------------------------------------------

 SCF Done:  E(RHF) =  -470.732641247     A.U. after   11 cycles
 E2 =    -0.1583019559D+01 EUMP2 =    -0.47231566080590D+03

 The electronic state is 1-A.
 Alpha  occ. eigenvalues --  -11.21587 -11.21584 -11.21530 -11.21516 -11.21378
 Alpha  occ. eigenvalues --  -11.21363 -11.21319 -11.21300 -11.21061 -11.21058
 Alpha  occ. eigenvalues --  -11.20975 -11.20886  -1.08406  -1.08374  -1.03527
 Alpha  occ. eigenvalues --   -1.03436  -0.96015  -0.95849  -0.87082  -0.86820
 Alpha  occ. eigenvalues --   -0.79705  -0.79401  -0.78254  -0.78142  -0.65044
 Alpha  occ. eigenvalues --   -0.65002  -0.60952  -0.60817  -0.59354  -0.59267
 Alpha  occ. eigenvalues --   -0.57557  -0.57530  -0.55342  -0.55104  -0.52877
 Alpha  occ. eigenvalues --   -0.52614  -0.52381  -0.52094  -0.50013  -0.49729
 Alpha  occ. eigenvalues --   -0.48002  -0.47717  -0.46676  -0.46473  -0.45862
 Alpha  occ. eigenvalues --   -0.45709  -0.45642  -0.45567  -0.43729  -0.43706
 Alpha virt. eigenvalues --    0.22095   0.23034   0.23576   0.24800   0.26066
 Alpha virt. eigenvalues --    0.26534   0.26791   0.27389   0.27824   0.29454
 Alpha virt. eigenvalues --    0.29664   0.30489   0.31579   0.32043   0.32447

 Mulliken charges:
               1
     1  C   -0.298382
     2  C   -0.301408
     3  C   -0.475185
     4  H    0.149578
     5  H    0.149070
     6  H    0.151383
     7  H    0.151600
     8  H    0.153908
     9  H    0.157081
    10  H    0.162242
    11  C   -0.298153
    12  C   -0.299590
    13  C   -0.475677
    14  H    0.149471
    15  H    0.149592
    16  H    0.151891
    17  H    0.151788
    18  H    0.155154
    19  H    0.155164
    20  H    0.160174
    21  C   -0.298206
    22  C   -0.299615
    23  C   -0.475653
    24  H    0.149582
    25  H    0.149432
    26  H    0.151871
    27  H    0.151606
    28  H    0.155161
    29  H    0.155188
    30  H    0.160108
    31  C   -0.298869
    32  C   -0.299966
    33  C   -0.478003
    34  H    0.150331
    35  H    0.149403
    36  H    0.151228
    37  H    0.151187
    38  H    0.156428
    39  H    0.160650
    40  H    0.158434
 Sum of Mulliken charges =  -0.00000

 Dipole moment (field-independent basis, Debye):
    X=              0.0049    Y=             -0.0153    Z=              0.0002  Tot=              0.0160
 Quadrupole moment (field-independent basis, Debye-Ang):
   XX=            -86.6352   YY=            -85.3294   ZZ=            -83.0945
   XY=              0.1339   XZ=             -0.5845   YZ=              0.2458

 Normal termination of Gaussian 16 at Wed May  5 15:14:33 2021.
