 Gaussian 16, Revision A.03,
 Gaussian 16:  EM64L-G16RevA.03 25-Dec-2016

 -------------
 #p 6-31g* mp2
 -------------

 ------------------------------------------------------
 Input file generated by CHIRIPA (05-May-2021 14:57:24)
 ------------------------------------------------------
 Symbolic Z-matrix:
 Charge =  0 Multiplicity = 1

                         Standard orientation:
 ---------------------------------------------------------------------
 Center     Atomic      Atomic             Coordinates (Angstroms)
 Number     Number       Type             X           Y           Z
 ---------------------------------------------------------------------
      1          6           0        3.223506   -1.938610   -0.216218
      2          6           0        2.357764   -1.480413   -1.214751
      3          6           0        1.931937   -0.148868   -1.229136
      4          6           0        2.393546    0.700969   -0.225152
      5          6           0        3.256488    0.274420    0.783153
      6          6           0        3.669319   -1.061278    0.777794
      7          1           0        3.549251   -2.974600   -0.212712
      8          1           0        2.009928   -2.159515   -1.987974
      9          1           0        1.262045    0.232294   -1.990306
     10          1           0        3.586237    0.975037    1.540661
     11          1           0        4.341701   -1.414349    1.554511
     12          7           0        1.949621    2.112814   -0.229930
     13          8           0        2.370645    2.841550    0.665793
     14          8           0        1.189055    2.463949   -1.129307
     15          6           0       -0.523396   -2.004950    0.701958
     16          6           0       -0.923574   -1.064799    1.657204
     17          6           0       -1.998959   -0.208261    1.403354
     18          6           0       -2.654583   -0.319720    0.178192
     19          6           0       -2.279659   -1.246083   -0.793700
     20          6           0       -1.201520   -2.092437   -0.518293
     21          1           0        0.313058   -2.666374    0.907528
     22          1           0       -0.398784   -0.994608    2.605737
     23          1           0       -2.329748    0.528691    2.125088
     24          1           0       -2.822294   -1.292375   -1.730088
     25          1           0       -0.892937   -2.821615   -1.262014
     26          7           0       -3.794502    0.581668   -0.101958
     27          8           0       -4.355647    0.463485   -1.189058
     28          8           0       -4.105241    1.389292    0.770866
 ---------------------------------------------------------------------

 SCF Done:  E(RHF) =  -868.335328671     A.U. after   16 cycles
 E2 =    -0.2604235290D+01 EUMP2 =    -0.87093956396183D+03

 The electronic state is 1-A.
 Alpha  occ. eigenvalues --  -20.61201 -20.61183 -20.60602 -20.60588 -15.86256
 Alpha  occ. eigenvalues --  -15.85664 -11.31839 -11.31165 -11.28457 -11.28408
 Alpha  occ. eigenvalues --  -11.28279 -11.27848 -11.27779 -11.27586 -11.27546
 Alpha  occ. eigenvalues --  -11.27530 -11.26903 -11.26783  -1.60265  -1.59668
 Alpha  occ. eigenvalues --   -1.39813  -1.39220  -1.20069  -1.19391  -1.09438
 Alpha  occ. eigenvalues --   -1.08759  -1.05499  -1.04837  -0.96215  -0.95564
 Alpha  occ. eigenvalues --   -0.86894  -0.86230  -0.83039  -0.82406  -0.78037
 Alpha  occ. eigenvalues --   -0.77418  -0.72469  -0.71884  -0.71595  -0.71178
 Alpha  occ. eigenvalues --   -0.70986  -0.70526  -0.65713  -0.65535  -0.65050
 Alpha  occ. eigenvalues --   -0.64862  -0.62831  -0.62181  -0.56020  -0.55442
 Alpha  occ. eigenvalues --   -0.54156  -0.53596  -0.52939  -0.52750  -0.49247
 Alpha  occ. eigenvalues --   -0.49210  -0.48654  -0.48624  -0.45169  -0.44598
 Alpha  occ. eigenvalues --   -0.38180  -0.37939  -0.36714  -0.36103
 Alpha virt. eigenvalues --    0.04445   0.05168   0.10442   0.11172   0.15913
 Alpha virt. eigenvalues --    0.16561   0.19894   0.21738   0.25505   0.27327
 Alpha virt. eigenvalues --    0.27827   0.28571   0.29633   0.31388   0.31940

 Mulliken charges:
               1
     1  C   -0.179477
     2  C   -0.221018
     3  C   -0.161434
     4  C    0.160566
     5  C   -0.173063
     6  C   -0.220783
     7  H    0.225041
     8  H    0.220273
     9  H    0.278644
    10  H    0.277333
    11  H    0.224624
    12  N    0.487685
    13  O   -0.459686
    14  O   -0.455704
    15  C   -0.161009
    16  C   -0.222617
    17  C   -0.168040
    18  C    0.160458
    19  C   -0.171416
    20  C   -0.224054
    21  H    0.221777
    22  H    0.222919
    23  H    0.278669
    24  H    0.275274
    25  H    0.214868
    26  N    0.489008
    27  O   -0.461036
    28  O   -0.457799
 Sum of Mulliken charges =  -0.00000

 Dipole moment (field-independent basis, Debye):
    X=              5.5445    Y=             -7.8304    Z=              1.0258  Tot=              9.6493
 Quadrupole moment (field-independent basis, Debye-Ang):
   XX=           -118.3966   YY=           -110.3775   ZZ=            -97.4124
   XY=             -2.8725   XZ=              0.7982   YZ=              3.1635

 Normal termination of Gaussian 16 at Thu May  6 03:28:53 2021.
