 Gaussian 16, Revision A.03,
 Gaussian 16:  EM64L-G16RevA.03 25-Dec-2016

 -------------
 #p 6-31g* mp2
 -------------

 ------------------------------------------------------
 Input file generated by CHIRIPA (05-May-2021 14:57:23)
 ------------------------------------------------------
 Symbolic Z-matrix:
 Charge =  0 Multiplicity = 1

                         Standard orientation:
 ---------------------------------------------------------------------
 Center     Atomic      Atomic             Coordinates (Angstroms)
 Number     Number       Type             X           Y           Z
 ---------------------------------------------------------------------
      1          6           0       -2.149840    2.560297   -0.629151
      2          6           0       -1.187607    1.556149   -0.778545
      3          6           0       -1.531733    0.211932   -0.607649
      4          6           0       -2.853316   -0.093728   -0.286273
      5          6           0       -3.834728    0.883982   -0.130698
      6          6           0       -3.468005    2.221605   -0.306274
      7          1           0       -1.873737    3.601956   -0.763725
      8          1           0       -0.163139    1.816242   -1.029267
      9          1           0       -0.806850   -0.585516   -0.717366
     10          1           0       -4.847917    0.593731    0.119541
     11          1           0       -4.217388    2.999336   -0.189630
     12          7           0       -3.229588   -1.513300   -0.102876
     13          8           0       -4.400701   -1.756433    0.179997
     14          8           0       -2.346272   -2.355948   -0.245476
     15          6           0        4.304007   -0.315002   -1.695241
     16          6           0        3.382853   -1.331445   -1.421667
     17          6           0        2.539716   -1.245161   -0.309811
     18          6           0        2.645059   -0.123339    0.510987
     19          6           0        3.552596    0.905802    0.264949
     20          6           0        4.385794    0.798414   -0.852546
     21          1           0        4.955116   -0.390228   -2.561148
     22          1           0        3.317130   -2.197294   -2.074377
     23          1           0        1.817562   -2.017553   -0.074608
     24          1           0        3.594864    1.756744    0.933926
     25          1           0        5.100229    1.589315   -1.062554
     26          7           0        1.757728   -0.020823    1.691044
     27          8           0        1.870163    0.977786    2.398700
     28          8           0        0.966605   -0.941021    1.885973
 ---------------------------------------------------------------------

 SCF Done:  E(RHF) =  -868.337991200     A.U. after   16 cycles
 E2 =    -0.2601124293D+01 EUMP2 =    -0.87093911549297D+03

 The electronic state is 1-A.
 Alpha  occ. eigenvalues --  -20.61206 -20.61174 -20.60232 -20.60218 -15.86227
 Alpha  occ. eigenvalues --  -15.85284 -11.31729 -11.30628 -11.28287 -11.28213
 Alpha  occ. eigenvalues --  -11.27980 -11.27304 -11.27245 -11.27238 -11.27235
 Alpha  occ. eigenvalues --  -11.27011 -11.26269 -11.26248  -1.60264  -1.59293
 Alpha  occ. eigenvalues --   -1.39810  -1.38851  -1.19885  -1.18820  -1.09249
 Alpha  occ. eigenvalues --   -1.08222  -1.05274  -1.04246  -0.96059  -0.95061
 Alpha  occ. eigenvalues --   -0.86662  -0.85644  -0.82868  -0.81913  -0.77917
 Alpha  occ. eigenvalues --   -0.76950  -0.72425  -0.71637  -0.71503  -0.70935
 Alpha  occ. eigenvalues --   -0.70598  -0.69954  -0.65506  -0.65241  -0.64496
 Alpha  occ. eigenvalues --   -0.64278  -0.62595  -0.61605  -0.55738  -0.54772
 Alpha  occ. eigenvalues --   -0.53626  -0.53332  -0.52539  -0.52366  -0.49211
 Alpha  occ. eigenvalues --   -0.49185  -0.48268  -0.48261  -0.45173  -0.44258
 Alpha  occ. eigenvalues --   -0.37872  -0.36897  -0.36791  -0.35822
 Alpha virt. eigenvalues --    0.04560   0.05613   0.10637   0.11837   0.16073
 Alpha virt. eigenvalues --    0.17084   0.20845   0.21757   0.26321   0.27253
 Alpha virt. eigenvalues --    0.27882   0.28782   0.30528   0.30955   0.32024

 Mulliken charges:
               1
     1  C   -0.168606
     2  C   -0.220281
     3  C   -0.163151
     4  C    0.159279
     5  C   -0.169784
     6  C   -0.218647
     7  H    0.223541
     8  H    0.218957
     9  H    0.272167
    10  H    0.274605
    11  H    0.221791
    12  N    0.489153
    13  O   -0.462078
    14  O   -0.461170
    15  C   -0.171436
    16  C   -0.218634
    17  C   -0.180936
    18  C    0.154657
    19  C   -0.175018
    20  C   -0.218706
    21  H    0.227733
    22  H    0.228224
    23  H    0.284843
    24  H    0.275803
    25  H    0.224622
    26  N    0.486971
    27  O   -0.460224
    28  O   -0.453676
 Sum of Mulliken charges =  -0.00000

 Dipole moment (field-independent basis, Debye):
    X=              4.5802    Y=              4.4982    Z=             -4.7105  Tot=              7.9625
 Quadrupole moment (field-independent basis, Debye-Ang):
   XX=            -90.8885   YY=           -102.1238   ZZ=           -109.6434
   XY=            -15.4802   XZ=             -8.9681   YZ=              0.5224

 Normal termination of Gaussian 16 at Fri May  7 09:29:25 2021.
