 Gaussian 16, Revision A.03,
 Gaussian 16:  EM64L-G16RevA.03 25-Dec-2016

 -------------
 #p 6-31g* mp2
 -------------

 ------------------------------------------------------
 Input file generated by CHIRIPA (05-May-2021 14:53:18)
 ------------------------------------------------------
 Symbolic Z-matrix:
 Charge =  0 Multiplicity = 1

                         Standard orientation:
 ---------------------------------------------------------------------
 Center     Atomic      Atomic             Coordinates (Angstroms)
 Number     Number       Type             X           Y           Z
 ---------------------------------------------------------------------
      1          6           0        1.820546    1.045841    0.047392
      2          6           0        1.831228    2.553375   -0.207979
      3          6           0        0.531642    3.234910    0.221414
      4          1           0        0.974102    0.595511   -0.488967
      5          1           0        1.645701    0.863369    1.116750
      6          1           0        2.007379    2.732977   -1.276309
      7          1           0        2.677858    3.000141    0.328895
      8          1           0        0.353319    3.085145    1.291168
      9          1           0       -0.320969    2.816462   -0.323157
     10          1           0        0.560934    4.312092    0.029897
     11          6           0        3.112924    0.350390   -0.376675
     12          6           0        3.102242   -1.157143   -0.121304
     13          6           0        4.401828   -1.838678   -0.550697
     14          1           0        3.287769    0.532862   -1.446034
     15          1           0        3.959368    0.800720    0.159684
     16          1           0        2.255612   -1.603910   -0.658178
     17          1           0        2.926091   -1.336746    0.947026
     18          1           0        5.254439   -1.420231   -0.006126
     19          1           0        4.580150   -1.688913   -1.620451
     20          1           0        4.372536   -2.915861   -0.359180
     21          6           0       -1.009658   -0.854125    2.458615
     22          6           0       -2.102679   -0.008333    2.243071
     23          6           0       -2.619349    0.170259    0.956329
     24          6           0       -2.015835   -0.515557   -0.096629
     25          6           0       -0.925777   -1.365088    0.086018
     26          6           0       -0.425724   -1.528615    1.381299
     27          1           0       -0.614750   -0.987008    3.461503
     28          1           0       -2.558178    0.516761    3.077841
     29          1           0       -3.464601    0.819000    0.761133
     30          1           0       -0.492888   -1.875075   -0.766002
     31          1           0        0.423228   -2.186102    1.545724
     32          7           0       -2.554015   -0.334465   -1.463365
     33          8           0       -2.004441   -0.950026   -2.374237
     34          8           0       -3.515223    0.419609   -1.597860
 ---------------------------------------------------------------------

 SCF Done:  E(RHF) =  -669.533550058     A.U. after   15 cycles
 E2 =    -0.2095957934D+01 EUMP2 =    -0.67162950799242D+03

 The electronic state is 1-A.
 Alpha  occ. eigenvalues --  -20.60813 -20.60807 -15.85864 -11.31192 -11.27764
 Alpha  occ. eigenvalues --  -11.27717 -11.27485 -11.26780 -11.26697 -11.22262
 Alpha  occ. eigenvalues --  -11.21689 -11.21646 -11.21539 -11.21418 -11.21108
 Alpha  occ. eigenvalues --   -1.59890  -1.39444  -1.19372  -1.08783  -1.08698
 Alpha  occ. eigenvalues --   -1.04765  -1.03822  -0.96233  -0.95612  -0.87260
 Alpha  occ. eigenvalues --   -0.86168  -0.82447  -0.79946  -0.78546  -0.77461
 Alpha  occ. eigenvalues --   -0.72080  -0.71219  -0.70487  -0.65386  -0.65011
 Alpha  occ. eigenvalues --   -0.64733  -0.62127  -0.61221  -0.59624  -0.57876
 Alpha  occ. eigenvalues --   -0.55511  -0.55271  -0.53328  -0.52958  -0.52829
 Alpha  occ. eigenvalues --   -0.52558  -0.50186  -0.48840  -0.48838  -0.48224
 Alpha  occ. eigenvalues --   -0.46981  -0.45981  -0.45956  -0.44844  -0.44046
 Alpha  occ. eigenvalues --   -0.37307  -0.36203
 Alpha virt. eigenvalues --    0.05007   0.11130   0.16433   0.20304   0.22875
 Alpha virt. eigenvalues --    0.23832   0.25195   0.25885   0.27630   0.28234
 Alpha virt. eigenvalues --    0.29143   0.29907   0.30989   0.31637   0.32180

 Mulliken charges:
               1
     1  C   -0.300665
     2  C   -0.300088
     3  C   -0.475240
     4  H    0.155827
     5  H    0.145722
     6  H    0.154772
     7  H    0.149928
     8  H    0.150916
     9  H    0.157532
    10  H    0.161025
    11  C   -0.297833
    12  C   -0.301884
    13  C   -0.475448
    14  H    0.153646
    15  H    0.149603
    16  H    0.147351
    17  H    0.144584
    18  H    0.156753
    19  H    0.159590
    20  H    0.158760
    21  C   -0.172883
    22  C   -0.217444
    23  C   -0.170913
    24  C    0.161736
    25  C   -0.178210
    26  C   -0.210205
    27  H    0.225231
    28  H    0.223512
    29  H    0.275735
    30  H    0.275656
    31  H    0.226793
    32  N    0.487591
    33  O   -0.461275
    34  O   -0.460176
 Sum of Mulliken charges =  -0.00000

 Dipole moment (field-independent basis, Debye):
    X=              1.8982    Y=             -0.6174    Z=              4.7709  Tot=              5.1716
 Quadrupole moment (field-independent basis, Debye-Ang):
   XX=           -100.9523   YY=            -93.1624   ZZ=            -94.7864
   XY=             -1.5906   XZ=            -11.0770   YZ=             -1.2885

 Normal termination of Gaussian 16 at Thu May  6 17:22:16 2021.
