 Gaussian 16, Revision A.03,
 Gaussian 16:  EM64L-G16RevA.03 25-Dec-2016

 -------------
 #p 6-31g* mp2
 -------------

 ------------------------------------------------------
 Input file generated by CHIRIPA (05-May-2021 14:57:23)
 ------------------------------------------------------
 Symbolic Z-matrix:
 Charge =  0 Multiplicity = 1

                         Standard orientation:
 ---------------------------------------------------------------------
 Center     Atomic      Atomic             Coordinates (Angstroms)
 Number     Number       Type             X           Y           Z
 ---------------------------------------------------------------------
      1          6           0        4.209003   -1.645547    0.442830
      2          6           0        4.347624   -0.512250    1.250879
      3          6           0        3.617540    0.648270    0.977531
      4          6           0        2.754043    0.640535   -0.116819
      5          6           0        2.594101   -0.472649   -0.940548
      6          6           0        3.334227   -1.622171   -0.648381
      7          1           0        4.780050   -2.542795    0.662483
      8          1           0        5.026241   -0.527535    2.098989
      9          1           0        3.705592    1.539703    1.586639
     10          1           0        1.909763   -0.427176   -1.779017
     11          1           0        3.224553   -2.500830   -1.277647
     12          7           0        1.975821    1.863304   -0.416162
     13          8           0        1.221715    1.830962   -1.386170
     14          8           0        2.134693    2.830900    0.324889
     15          6           0       -5.070580    0.727422    0.533114
     16          6           0       -4.668797    0.493669   -0.786148
     17          6           0       -3.458341   -0.151742   -1.055939
     18          6           0       -2.670749   -0.551774    0.022469
     19          6           0       -3.043611   -0.333244    1.347802
     20          6           0       -4.258137    0.313948    1.594008
     21          1           0       -6.012472    1.229485    0.733533
     22          1           0       -5.297729    0.813676   -1.612033
     23          1           0       -3.123078   -0.345378   -2.067631
     24          1           0       -2.395351   -0.663860    2.150217
     25          1           0       -4.567628    0.494155    2.619574
     26          7           0       -1.387139   -1.235985   -0.250663
     27          8           0       -0.711261   -1.578606    0.717034
     28          8           0       -1.081229   -1.416693   -1.427269
 ---------------------------------------------------------------------

 SCF Done:  E(RHF) =  -868.340005727     A.U. after   16 cycles
 E2 =    -0.2599285059D+01 EUMP2 =    -0.87093929078543D+03

 The electronic state is 1-A.
 Alpha  occ. eigenvalues --  -20.60812 -20.60799 -20.59907 -20.59898 -15.85825
 Alpha  occ. eigenvalues --  -15.84945 -11.30951 -11.29983 -11.27522 -11.27487
 Alpha  occ. eigenvalues --  -11.27235 -11.26650 -11.26495 -11.26468 -11.26424
 Alpha  occ. eigenvalues --  -11.26336 -11.25624 -11.25446  -1.59862  -1.58988
 Alpha  occ. eigenvalues --   -1.39422  -1.38548  -1.19109  -1.18159  -1.08556
 Alpha  occ. eigenvalues --   -1.07643  -1.04487  -1.03517  -0.95433  -0.94517
 Alpha  occ. eigenvalues --   -0.85900  -0.84957  -0.82279  -0.81361  -0.77344
 Alpha  occ. eigenvalues --   -0.76423  -0.72072  -0.71214  -0.71127  -0.70290
 Alpha  occ. eigenvalues --   -0.70241  -0.69317  -0.64779  -0.64508  -0.63839
 Alpha  occ. eigenvalues --   -0.63560  -0.61845  -0.60874  -0.55022  -0.54111
 Alpha  occ. eigenvalues --   -0.52813  -0.52592  -0.51863  -0.51639  -0.48827
 Alpha  occ. eigenvalues --   -0.48802  -0.47941  -0.47912  -0.44876  -0.44025
 Alpha  occ. eigenvalues --   -0.37079  -0.36160  -0.36068  -0.35057
 Alpha virt. eigenvalues --    0.05169   0.06097   0.11589   0.12561   0.16706
 Alpha virt. eigenvalues --    0.17625   0.21677   0.22580   0.27595   0.28455
 Alpha virt. eigenvalues --    0.28602   0.29486   0.31230   0.32057   0.32775

 Mulliken charges:
               1
     1  C   -0.169705
     2  C   -0.219337
     3  C   -0.171608
     4  C    0.155633
     5  C   -0.159766
     6  C   -0.214920
     7  H    0.221599
     8  H    0.218053
     9  H    0.270260
    10  H    0.284758
    11  H    0.224136
    12  N    0.487433
    13  O   -0.462472
    14  O   -0.466406
    15  C   -0.169621
    16  C   -0.218194
    17  C   -0.166736
    18  C    0.160601
    19  C   -0.169763
    20  C   -0.218194
    21  H    0.225427
    22  H    0.223665
    23  H    0.276177
    24  H    0.274028
    25  H    0.222829
    26  N    0.490156
    27  O   -0.463224
    28  O   -0.464809
 Sum of Mulliken charges =  -0.00000

 Dipole moment (field-independent basis, Debye):
    X=             -2.0578    Y=             -2.0363    Z=              1.8643  Tot=              3.4433
 Quadrupole moment (field-independent basis, Debye-Ang):
   XX=            -66.3711   YY=           -113.6877   ZZ=            -97.4639
   XY=            -13.9731   XZ=              2.4368   YZ=              2.4290

 Normal termination of Gaussian 16 at Thu May  6 17:57:07 2021.
