 Gaussian 16, Revision A.03,
 Gaussian 16:  EM64L-G16RevA.03 25-Dec-2016

 -------------
 #p 6-31g* mp2
 -------------

 ------------------------------------------------------
 Input file generated by CHIRIPA (05-May-2021 14:51:13)
 ------------------------------------------------------
 Symbolic Z-matrix:
 Charge =  0 Multiplicity = 1

                         Standard orientation:
 ---------------------------------------------------------------------
 Center     Atomic      Atomic             Coordinates (Angstroms)
 Number     Number       Type             X           Y           Z
 ---------------------------------------------------------------------
      1          6           0       -4.182761   -0.500239    0.001430
      2          6           0       -5.010584    0.730906   -0.368672
      3          6           0       -6.476037    0.395800   -0.647861
      4          1           0       -4.243687   -1.233872   -0.814055
      5          1           0       -4.625405   -0.978712    0.886035
      6          1           0       -4.565706    1.207702   -1.251488
      7          1           0       -4.947525    1.461773    0.447706
      8          1           0       -6.941549   -0.059455    0.232276
      9          1           0       -6.557561   -0.314969   -1.476573
     10          1           0       -7.049425    1.290300   -0.910454
     11          6           0       -2.715614   -0.181358    0.283427
     12          6           0       -1.887792   -1.412503    0.653529
     13          6           0       -0.422339   -1.077397    0.932718
     14          1           0       -2.272971    0.297115   -0.601178
     15          1           0       -2.654689    0.552275    1.098912
     16          1           0       -1.950850   -2.143370   -0.162849
     17          1           0       -2.332669   -1.889300    1.536345
     18          1           0       -0.340815   -0.366628    1.761430
     19          1           0        0.043173   -0.622142    0.052581
     20          1           0        0.151049   -1.971897    1.195311
     21          6           0        3.460331    1.057647   -0.405936
     22          6           0        2.814444    2.064056    0.546931
     23          6           0        2.844448    3.493775    0.005823
     24          1           0        4.499976    1.357491   -0.596133
     25          1           0        2.942078    1.095201   -1.374129
     26          1           0        3.332873    2.023628    1.513478
     27          1           0        1.776273    1.761675    0.735034
     28          1           0        2.310195    3.556071   -0.947746
     29          1           0        3.875639    3.819512   -0.164878
     30          1           0        2.377593    4.196703    0.702817
     31          6           0        3.438045   -0.376050    0.121079
     32          6           0        4.083931   -1.382459   -0.831788
     33          6           0        4.053928   -2.812178   -0.290680
     34          1           0        3.956297   -0.413603    1.089273
     35          1           0        2.398399   -0.675894    0.311277
     36          1           0        5.122103   -1.080078   -1.019890
     37          1           0        3.565503   -1.342031   -1.798335
     38          1           0        3.022736   -3.137915   -0.119979
     39          1           0        4.588180   -2.874473    0.662889
     40          1           0        4.520783   -3.515106   -0.987674
 ---------------------------------------------------------------------

 SCF Done:  E(RHF) =  -470.732852927     A.U. after   11 cycles
 E2 =    -0.1583302431D+01 EUMP2 =    -0.47231615535805D+03

 The electronic state is 1-A.
 Alpha  occ. eigenvalues --  -11.21682 -11.21640 -11.21515 -11.21513 -11.21467
 Alpha  occ. eigenvalues --  -11.21404 -11.21296 -11.21197 -11.21166 -11.21101
 Alpha  occ. eigenvalues --  -11.21019 -11.21016  -1.08496  -1.08330  -1.03603
 Alpha  occ. eigenvalues --   -1.03450  -0.96070  -0.95892  -0.87095  -0.86910
 Alpha  occ. eigenvalues --   -0.79696  -0.79507  -0.78328  -0.78102  -0.65153
 Alpha  occ. eigenvalues --   -0.64956  -0.61011  -0.60847  -0.59438  -0.59252
 Alpha  occ. eigenvalues --   -0.57674  -0.57504  -0.55424  -0.55131  -0.52798
 Alpha  occ. eigenvalues --   -0.52611  -0.52486  -0.52298  -0.50061  -0.49796
 Alpha  occ. eigenvalues --   -0.48023  -0.47825  -0.46753  -0.46518  -0.45969
 Alpha  occ. eigenvalues --   -0.45779  -0.45657  -0.45368  -0.43810  -0.43688
 Alpha virt. eigenvalues --    0.21210   0.22999   0.23954   0.24522   0.25636
 Alpha virt. eigenvalues --    0.26539   0.27140   0.27195   0.27845   0.29710
 Alpha virt. eigenvalues --    0.30202   0.31322   0.31869   0.31943   0.32318

 Mulliken charges:
               1
     1  C   -0.298346
     2  C   -0.299689
     3  C   -0.475751
     4  H    0.149753
     5  H    0.149736
     6  H    0.151961
     7  H    0.152067
     8  H    0.155264
     9  H    0.155229
    10  H    0.160411
    11  C   -0.298650
    12  C   -0.300286
    13  C   -0.479620
    14  H    0.149448
    15  H    0.149847
    16  H    0.152192
    17  H    0.152414
    18  H    0.157278
    19  H    0.156232
    20  H    0.161503
    21  C   -0.297493
    22  C   -0.302179
    23  C   -0.475479
    24  H    0.149236
    25  H    0.148062
    26  H    0.151617
    27  H    0.154601
    28  H    0.154761
    29  H    0.155002
    30  H    0.159900
    31  C   -0.310360
    32  C   -0.298711
    33  C   -0.476090
    34  H    0.148455
    35  H    0.165314
    36  H    0.151472
    37  H    0.150888
    38  H    0.155054
    39  H    0.155076
    40  H    0.159879
 Sum of Mulliken charges =  -0.00000

 Dipole moment (field-independent basis, Debye):
    X=             -0.0778    Y=             -0.0203    Z=              0.0320  Tot=              0.0865
 Quadrupole moment (field-independent basis, Debye-Ang):
   XX=            -85.3336   YY=            -86.0300   ZZ=            -83.7098
   XY=              0.0663   XZ=             -0.0265   YZ=              0.4602

 Normal termination of Gaussian 16 at Thu May  6 02:22:32 2021.
