 Gaussian 16, Revision A.03,
 Gaussian 16:  EM64L-G16RevA.03 25-Dec-2016

 -------------
 #p 6-31g* mp2
 -------------

 ------------------------------------------------------
 Input file generated by CHIRIPA (05-May-2021 14:57:26)
 ------------------------------------------------------
 Symbolic Z-matrix:
 Charge =  0 Multiplicity = 1

                         Standard orientation:
 ---------------------------------------------------------------------
 Center     Atomic      Atomic             Coordinates (Angstroms)
 Number     Number       Type             X           Y           Z
 ---------------------------------------------------------------------
      1          6           0       -4.918019   -1.853357    0.183480
      2          6           0       -4.455954   -1.081187    1.254354
      3          6           0       -3.616789    0.014226    1.029807
      4          6           0       -3.257923    0.310337   -0.284280
      5          6           0       -3.701807   -0.439820   -1.372178
      6          6           0       -4.540137   -1.530777   -1.124063
      7          1           0       -5.569578   -2.702570    0.367068
      8          1           0       -4.747792   -1.329369    2.270858
      9          1           0       -3.244529    0.628933    1.840347
     10          1           0       -3.393709   -0.167780   -2.374420
     11          1           0       -4.897458   -2.128681   -1.957656
     12          7           0       -2.369979    1.467643   -0.534473
     13          8           0       -2.068321    1.707715   -1.701523
     14          8           0       -1.992479    2.112755    0.441213
     15          6           0        1.447306    0.850247    1.506227
     16          6           0        1.703140   -0.523886    1.559423
     17          6           0        2.784617   -1.072213    0.863513
     18          6           0        3.593459   -0.213360    0.120925
     19          6           0        3.364515    1.159807    0.048208
     20          6           0        2.277348    1.686233    0.752119
     21          1           0        0.604979    1.267694    2.049934
     22          1           0        1.060197   -1.175523    2.144264
     23          1           0        3.005571   -2.132417    0.887299
     24          1           0        4.023119    1.784113   -0.543316
     25          1           0        2.081064    2.753781    0.708983
     26          7           0        4.741383   -0.782257   -0.620039
     27          8           0        5.439040   -0.004264   -1.267061
     28          8           0        4.921731   -1.995379   -0.539753
 ---------------------------------------------------------------------

 SCF Done:  E(RHF) =  -868.339396975     A.U. after   16 cycles
 E2 =    -0.2598845851D+01 EUMP2 =    -0.87093824282617D+03

 The electronic state is 1-A.
 Alpha  occ. eigenvalues --  -20.61658 -20.61586 -20.60240 -20.60226 -15.86658
 Alpha  occ. eigenvalues --  -15.85285 -11.31874 -11.30498 -11.28466 -11.28378
 Alpha  occ. eigenvalues --  -11.28111 -11.27419 -11.27359 -11.27118 -11.27012
 Alpha  occ. eigenvalues --  -11.26653 -11.26087 -11.25901  -1.60681  -1.59315
 Alpha  occ. eigenvalues --   -1.40245  -1.38873  -1.20026  -1.18650  -1.09443
 Alpha  occ. eigenvalues --   -1.08047  -1.05408  -1.04038  -0.96307  -0.94911
 Alpha  occ. eigenvalues --   -0.86811  -0.85428  -0.83149  -0.81758  -0.78219
 Alpha  occ. eigenvalues --   -0.76849  -0.72894  -0.71991  -0.71507  -0.71127
 Alpha  occ. eigenvalues --   -0.70637  -0.69682  -0.65681  -0.65403  -0.64293
 Alpha  occ. eigenvalues --   -0.64030  -0.62760  -0.61398  -0.55898  -0.54451
 Alpha  occ. eigenvalues --   -0.53741  -0.53494  -0.52368  -0.52121  -0.49657
 Alpha  occ. eigenvalues --   -0.49617  -0.48270  -0.48250  -0.45676  -0.44314
 Alpha  occ. eigenvalues --   -0.37987  -0.37008  -0.36574  -0.35649
 Alpha virt. eigenvalues --    0.04285   0.05698   0.10646   0.12017   0.15797
 Alpha virt. eigenvalues --    0.17244   0.20743   0.22224   0.26643   0.27469
 Alpha virt. eigenvalues --    0.28037   0.29082   0.30500   0.31446   0.32703

 Mulliken charges:
               1
     1  C   -0.170242
     2  C   -0.218614
     3  C   -0.173131
     4  C    0.159095
     5  C   -0.169962
     6  C   -0.218216
     7  H    0.227992
     8  H    0.224198
     9  H    0.271109
    10  H    0.277970
    11  H    0.226441
    12  N    0.490061
    13  O   -0.454353
    14  O   -0.470527
    15  C   -0.169826
    16  C   -0.221463
    17  C   -0.171995
    18  C    0.157484
    19  C   -0.171313
    20  C   -0.215855
    21  H    0.234593
    22  H    0.217099
    23  H    0.271788
    24  H    0.274650
    25  H    0.229612
    26  N    0.488273
    27  O   -0.461166
    28  O   -0.463701
 Sum of Mulliken charges =  -0.00000

 Dipole moment (field-independent basis, Debye):
    X=             -7.4969    Y=             -1.9526    Z=              3.3502  Tot=              8.4404
 Quadrupole moment (field-independent basis, Debye-Ang):
   XX=           -114.7471   YY=           -104.4869   ZZ=            -99.9244
   XY=             22.8227   XZ=              6.9666   YZ=              0.5086

 Normal termination of Gaussian 16 at Fri May  7 03:32:10 2021.
