 Gaussian 16, Revision A.03,
 Gaussian 16:  EM64L-G16RevA.03 25-Dec-2016

 -------------
 #p 6-31g* mp2
 -------------

 ------------------------------------------------------
 Input file generated by CHIRIPA (05-May-2021 14:51:08)
 ------------------------------------------------------
 Symbolic Z-matrix:
 Charge =  0 Multiplicity = 1

                         Standard orientation:
 ---------------------------------------------------------------------
 Center     Atomic      Atomic             Coordinates (Angstroms)
 Number     Number       Type             X           Y           Z
 ---------------------------------------------------------------------
      1          6           0       -5.617975    0.079082    0.214444
      2          6           0       -6.300516   -1.223139   -0.205488
      3          6           0       -7.765174   -1.289465    0.228299
      4          1           0       -5.683727    0.184641    1.305993
      5          1           0       -6.167446    0.928056   -0.215346
      6          1           0       -5.749113   -2.069460    0.223827
      7          1           0       -6.232964   -1.325705   -1.296146
      8          1           0       -8.334912   -0.464434   -0.211387
      9          1           0       -7.848313   -1.212415    1.317222
     10          1           0       -8.233677   -2.228619   -0.082112
     11          6           0       -4.153317    0.160276   -0.212068
     12          6           0       -3.470776    1.462497    0.207864
     13          6           0       -2.006118    1.528823   -0.225923
     14          1           0       -3.603846   -0.688698    0.217722
     15          1           0       -4.087565    0.054717   -1.303617
     16          1           0       -3.538328    1.565062    1.298522
     17          1           0       -4.022179    2.308818   -0.221451
     18          1           0       -1.922979    1.451773   -1.314845
     19          1           0       -1.436380    0.703792    0.213763
     20          1           0       -1.537615    2.467977    0.084488
     21          6           0        5.474568   -0.597659   -0.091401
     22          6           0        6.824782    0.032006    0.252737
     23          6           0        7.993203   -0.936596    0.067274
     24          1           0        5.320213   -1.485280    0.537286
     25          1           0        5.497257   -0.951402   -1.131472
     26          1           0        6.799083    0.385699    1.291417
     27          1           0        6.975854    0.918342   -0.376709
     28          1           0        8.047280   -1.280745   -0.970627
     29          1           0        7.869503   -1.816414    0.706977
     30          1           0        8.948710   -0.465871    0.318835
     31          6           0        4.296724    0.358301    0.089025
     32          6           0        2.946510   -0.271363   -0.255113
     33          6           0        1.778089    0.697238   -0.069650
     34          1           0        4.274035    0.712044    1.129095
     35          1           0        4.451078    1.245922   -0.539661
     36          1           0        2.795437   -1.157700    0.374334
     37          1           0        2.972209   -0.625057   -1.293793
     38          1           0        1.901788    1.577056   -0.709352
     39          1           0        1.724012    1.041387    0.968251
     40          1           0        0.822582    0.226513   -0.321211
 ---------------------------------------------------------------------

 SCF Done:  E(RHF) =  -470.732941574     A.U. after   11 cycles
 E2 =    -0.1582266620D+01 EUMP2 =    -0.47231520819348D+03

 The electronic state is 1-A.
 Alpha  occ. eigenvalues --  -11.21591 -11.21578 -11.21552 -11.21536 -11.21386
 Alpha  occ. eigenvalues --  -11.21367 -11.21327 -11.21306 -11.21063 -11.21053
 Alpha  occ. eigenvalues --  -11.20984 -11.20942  -1.08408  -1.08387  -1.03517
 Alpha  occ. eigenvalues --   -1.03464  -0.96003  -0.95877  -0.87068  -0.86847
 Alpha  occ. eigenvalues --   -0.79649  -0.79462  -0.78228  -0.78195  -0.65041
 Alpha  occ. eigenvalues --   -0.65018  -0.60925  -0.60866  -0.59331  -0.59311
 Alpha  occ. eigenvalues --   -0.57662  -0.57449  -0.55281  -0.55182  -0.52905
 Alpha  occ. eigenvalues --   -0.52582  -0.52363  -0.52146  -0.49926  -0.49816
 Alpha  occ. eigenvalues --   -0.47960  -0.47772  -0.46622  -0.46554  -0.45764
 Alpha  occ. eigenvalues --   -0.45743  -0.45692  -0.45669  -0.43804  -0.43629
 Alpha virt. eigenvalues --    0.22609   0.22980   0.23671   0.24729   0.26480
 Alpha virt. eigenvalues --    0.26689   0.26836   0.27464   0.27648   0.29004
 Alpha virt. eigenvalues --    0.30448   0.31402   0.31531   0.31690   0.32191

 Mulliken charges:
               1
     1  C   -0.298202
     2  C   -0.299625
     3  C   -0.475690
     4  H    0.149613
     5  H    0.149531
     6  H    0.151855
     7  H    0.151894
     8  H    0.155176
     9  H    0.155158
    10  H    0.160200
    11  C   -0.298297
    12  C   -0.300247
    13  C   -0.476748
    14  H    0.149188
    15  H    0.149493
    16  H    0.151718
    17  H    0.151565
    18  H    0.154514
    19  H    0.157786
    20  H    0.161137
    21  C   -0.298159
    22  C   -0.299575
    23  C   -0.475668
    24  H    0.149488
    25  H    0.149439
    26  H    0.151848
    27  H    0.151897
    28  H    0.155144
    29  H    0.155113
    30  H    0.160163
    31  C   -0.298453
    32  C   -0.299874
    33  C   -0.478477
    34  H    0.149308
    35  H    0.149543
    36  H    0.151267
    37  H    0.151622
    38  H    0.155006
    39  H    0.154241
    40  H    0.166110
 Sum of Mulliken charges =  -0.00000

 Dipole moment (field-independent basis, Debye):
    X=             -0.0120    Y=              0.0119    Z=             -0.0037  Tot=              0.0173
 Quadrupole moment (field-independent basis, Debye-Ang):
   XX=            -87.0260   YY=            -84.8956   ZZ=            -83.1082
   XY=              0.2663   XZ=              0.4774   YZ=             -0.7094

 Normal termination of Gaussian 16 at Wed May  5 22:54:43 2021.
