 Gaussian 16, Revision A.03,
 Gaussian 16:  EM64L-G16RevA.03 25-Dec-2016

 -------------
 #p 6-31g* mp2
 -------------

 ------------------------------------------------------
 Input file generated by CHIRIPA (05-May-2021 14:51:13)
 ------------------------------------------------------
 Symbolic Z-matrix:
 Charge =  0 Multiplicity = 1

                         Standard orientation:
 ---------------------------------------------------------------------
 Center     Atomic      Atomic             Coordinates (Angstroms)
 Number     Number       Type             X           Y           Z
 ---------------------------------------------------------------------
      1          6           0       -3.630763   -0.636016    0.261071
      2          6           0       -2.588397   -1.473622   -0.480462
      3          6           0       -2.423040   -2.872798    0.113473
      4          1           0       -3.342611   -0.555480    1.318156
      5          1           0       -4.595804   -1.161008    0.239283
      6          1           0       -1.625935   -0.946555   -0.458474
      7          1           0       -2.878963   -1.552013   -1.535943
      8          1           0       -3.369960   -3.421092    0.077172
      9          1           0       -2.109812   -2.812194    1.160763
     10          1           0       -1.673155   -3.454352   -0.431805
     11          6           0       -3.807409    0.765330   -0.320954
     12          6           0       -4.849776    1.602937    0.420579
     13          6           0       -5.015133    3.002113   -0.173356
     14          1           0       -2.842369    1.290323   -0.299166
     15          1           0       -4.095561    0.684795   -1.378038
     16          1           0       -4.559210    1.681328    1.476061
     17          1           0       -5.812238    1.075870    0.398591
     18          1           0       -5.328361    2.941509   -1.220646
     19          1           0       -4.068213    3.550407   -0.137054
     20          1           0       -5.765017    3.583666    0.371922
     21          6           0        4.119614    0.507434    0.339330
     22          6           0        5.353360    0.894592   -0.476736
     23          6           0        6.144297    2.040492    0.155028
     24          1           0        3.469872    1.386471    0.449210
     25          1           0        4.433733    0.222269    1.352940
     26          1           0        5.037146    1.177616   -1.488923
     27          1           0        6.000148    0.014483   -0.584850
     28          1           0        6.487810    1.764819    1.157328
     29          1           0        5.519336    2.934561    0.248117
     30          1           0        7.021978    2.301009   -0.444694
     31          6           0        3.318558   -0.636749   -0.279447
     32          6           0        2.084813   -1.023907    0.536619
     33          6           0        1.293876   -2.169807   -0.095145
     34          1           0        3.004439   -0.351584   -1.293057
     35          1           0        3.968301   -1.515787   -0.389327
     36          1           0        1.438025   -0.143797    0.644733
     37          1           0        2.401026   -1.306931    1.548806
     38          1           0        1.918837   -3.063876   -0.188235
     39          1           0        0.950364   -1.894135   -1.097445
     40          1           0        0.416195   -2.430324    0.504577
 ---------------------------------------------------------------------

 SCF Done:  E(RHF) =  -470.732549761     A.U. after   11 cycles
 E2 =    -0.1583207943D+01 EUMP2 =    -0.47231575770381D+03

 The electronic state is 1-A.
 Alpha  occ. eigenvalues --  -11.21605 -11.21604 -11.21600 -11.21548 -11.21405
 Alpha  occ. eigenvalues --  -11.21395 -11.21346 -11.21333 -11.21075 -11.21074
 Alpha  occ. eigenvalues --  -11.21027 -11.20977  -1.08443  -1.08405  -1.03584
 Alpha  occ. eigenvalues --   -1.03461  -0.96073  -0.95875  -0.87078  -0.86903
 Alpha  occ. eigenvalues --   -0.79597  -0.79575  -0.78247  -0.78227  -0.65119
 Alpha  occ. eigenvalues --   -0.65011  -0.61105  -0.60836  -0.59573  -0.59107
 Alpha  occ. eigenvalues --   -0.57673  -0.57477  -0.55344  -0.55180  -0.52880
 Alpha  occ. eigenvalues --   -0.52497  -0.52384  -0.52261  -0.49949  -0.49873
 Alpha  occ. eigenvalues --   -0.47906  -0.47885  -0.46678  -0.46556  -0.45796
 Alpha  occ. eigenvalues --   -0.45764  -0.45716  -0.45675  -0.43862  -0.43651
 Alpha virt. eigenvalues --    0.21334   0.23133   0.23545   0.25054   0.26321
 Alpha virt. eigenvalues --    0.26778   0.27039   0.27337   0.27621   0.29093
 Alpha virt. eigenvalues --    0.30149   0.31153   0.31570   0.32138   0.32295

 Mulliken charges:
               1
     1  C   -0.297985
     2  C   -0.303503
     3  C   -0.479575
     4  H    0.149382
     5  H    0.149458
     6  H    0.156936
     7  H    0.151620
     8  H    0.155863
     9  H    0.153533
    10  H    0.164224
    11  C   -0.298166
    12  C   -0.299628
    13  C   -0.475685
    14  H    0.149038
    15  H    0.149609
    16  H    0.151935
    17  H    0.151993
    18  H    0.155160
    19  H    0.155039
    20  H    0.160270
    21  C   -0.298208
    22  C   -0.299632
    23  C   -0.475694
    24  H    0.149412
    25  H    0.149484
    26  H    0.151945
    27  H    0.151971
    28  H    0.155168
    29  H    0.155130
    30  H    0.160276
    31  C   -0.298452
    32  C   -0.300823
    33  C   -0.482414
    34  H    0.149557
    35  H    0.149782
    36  H    0.151204
    37  H    0.151862
    38  H    0.154574
    39  H    0.155231
    40  H    0.170108
 Sum of Mulliken charges =  -0.00000

 Dipole moment (field-independent basis, Debye):
    X=             -0.0029    Y=             -0.0260    Z=             -0.0054  Tot=              0.0267
 Quadrupole moment (field-independent basis, Debye-Ang):
   XX=            -84.5936   YY=            -85.9159   ZZ=            -84.3372
   XY=             -0.4317   XZ=              0.4896   YZ=             -0.0752

 Normal termination of Gaussian 16 at Thu May  6 03:57:15 2021.
