 Gaussian 16, Revision A.03,
 Gaussian 16:  EM64L-G16RevA.03 25-Dec-2016

 -------------
 #p 6-31g* mp2
 -------------

 ------------------------------------------------------
 Input file generated by CHIRIPA (05-May-2021 14:57:21)
 ------------------------------------------------------
 Symbolic Z-matrix:
 Charge =  0 Multiplicity = 1

                         Standard orientation:
 ---------------------------------------------------------------------
 Center     Atomic      Atomic             Coordinates (Angstroms)
 Number     Number       Type             X           Y           Z
 ---------------------------------------------------------------------
      1          6           0        3.440204    0.291096   -2.386567
      2          6           0        2.525087   -0.649824   -1.903089
      3          6           0        2.344211   -0.822624   -0.527599
      4          6           0        3.098458   -0.034079    0.339925
      5          6           0        4.017957    0.911707   -0.110962
      6          6           0        4.182410    1.067490   -1.490540
      7          1           0        3.574334    0.418722   -3.456668
      8          1           0        1.947314   -1.254169   -2.596624
      9          1           0        1.642593   -1.543709   -0.126119
     10          1           0        4.579518    1.499524    0.604956
     11          1           0        4.893819    1.798990   -1.863165
     12          7           0        2.915666   -0.208007    1.798259
     13          8           0        3.592308    0.499048    2.541807
     14          8           0        2.099212   -1.048094    2.170138
     15          6           0       -3.843106    2.410689    0.165067
     16          6           0       -2.529583    2.107680   -0.208250
     17          6           0       -2.122626    0.778563   -0.357857
     18          6           0       -3.059506   -0.227119   -0.125159
     19          6           0       -4.375302    0.042726    0.247879
     20          6           0       -4.760155    1.379063    0.391541
     21          1           0       -4.150655    3.445982    0.278975
     22          1           0       -1.815245    2.906804   -0.384786
     23          1           0       -1.112006    0.515705   -0.645903
     24          1           0       -5.064779   -0.775468    0.416982
     25          1           0       -5.780911    1.611419    0.681565
     26          7           0       -2.640379   -1.638018   -0.280393
     27          8           0       -3.484861   -2.505799   -0.069581
     28          8           0       -1.475321   -1.849383   -0.609938
 ---------------------------------------------------------------------

 SCF Done:  E(RHF) =  -868.339469173     A.U. after   16 cycles
 E2 =    -0.2599204999D+01 EUMP2 =    -0.87093867417165D+03

 The electronic state is 1-A.
 Alpha  occ. eigenvalues --  -20.61036 -20.60985 -20.60512 -20.60481 -15.86062
 Alpha  occ. eigenvalues --  -15.85550 -11.31266 -11.30914 -11.27832 -11.27813
 Alpha  occ. eigenvalues --  -11.27552 -11.27546 -11.27329 -11.27266 -11.26814
 Alpha  occ. eigenvalues --  -11.26801 -11.26575 -11.26424  -1.60067  -1.59583
 Alpha  occ. eigenvalues --   -1.39633  -1.39129  -1.19426  -1.19104  -1.08850
 Alpha  occ. eigenvalues --   -1.08508  -1.04813  -1.04474  -0.95715  -0.95327
 Alpha  occ. eigenvalues --   -0.86221  -0.85875  -0.82564  -0.82135  -0.77631
 Alpha  occ. eigenvalues --   -0.77166  -0.72306  -0.71760  -0.71366  -0.70918
 Alpha  occ. eigenvalues --   -0.70547  -0.70178  -0.65093  -0.64823  -0.64735
 Alpha  occ. eigenvalues --   -0.64448  -0.62173  -0.61765  -0.55326  -0.55001
 Alpha  occ. eigenvalues --   -0.53141  -0.52952  -0.52817  -0.52526  -0.49048
 Alpha  occ. eigenvalues --   -0.49014  -0.48536  -0.48507  -0.45069  -0.44534
 Alpha  occ. eigenvalues --   -0.37396  -0.37130  -0.36404  -0.36100
 Alpha virt. eigenvalues --    0.04905   0.05294   0.11241   0.11534   0.16418
 Alpha virt. eigenvalues --    0.16755   0.21226   0.21852   0.26980   0.27542
 Alpha virt. eigenvalues --    0.28185   0.28918   0.30907   0.31348   0.32168

 Mulliken charges:
               1
     1  C   -0.172339
     2  C   -0.224330
     3  C   -0.179220
     4  C    0.155273
     5  C   -0.172617
     6  C   -0.219873
     7  H    0.224463
     8  H    0.230943
     9  H    0.294967
    10  H    0.273898
    11  H    0.221515
    12  N    0.487123
    13  O   -0.463726
    14  O   -0.455694
    15  C   -0.170008
    16  C   -0.218343
    17  C   -0.169419
    18  C    0.159389
    19  C   -0.170163
    20  C   -0.218443
    21  H    0.226131
    22  H    0.223663
    23  H    0.272334
    24  H    0.275974
    25  H    0.224027
    26  N    0.492090
    27  O   -0.456702
    28  O   -0.470912
 Sum of Mulliken charges =  -0.00000

 Dipole moment (field-independent basis, Debye):
    X=             -1.0645    Y=              5.4461    Z=             -4.5552  Tot=              7.1793
 Quadrupole moment (field-independent basis, Debye-Ang):
   XX=            -85.8000   YY=           -104.9036   ZZ=           -109.5600
   XY=             -9.1812   XZ=            -18.2301   YZ=             -0.0475

 Normal termination of Gaussian 16 at Thu May  6 08:02:50 2021.
