 Gaussian 16, Revision A.03,
 Gaussian 16:  EM64L-G16RevA.03 25-Dec-2016

 -------------
 #p 6-31g* mp2
 -------------

 ------------------------------------------------------
 Input file generated by CHIRIPA (05-May-2021 14:53:17)
 ------------------------------------------------------
 Symbolic Z-matrix:
 Charge =  0 Multiplicity = 1

                         Standard orientation:
 ---------------------------------------------------------------------
 Center     Atomic      Atomic             Coordinates (Angstroms)
 Number     Number       Type             X           Y           Z
 ---------------------------------------------------------------------
      1          6           0       -2.968738    0.454881   -0.005064
      2          6           0       -2.845729    1.966893   -0.196567
      3          6           0       -1.392903    2.442236   -0.230317
      4          1           0       -2.465740    0.167810    0.928493
      5          1           0       -2.433815   -0.055377   -0.818015
      6          1           0       -3.381894    2.474144    0.615738
      7          1           0       -3.349243    2.250423   -1.129679
      8          1           0       -0.849685    1.962831   -1.051101
      9          1           0       -0.882521    2.187823    0.704234
     10          1           0       -1.328208    3.526077   -0.368029
     11          6           0       -4.415085   -0.035555    0.030742
     12          6           0       -4.538094   -1.547567    0.222245
     13          6           0       -5.990920   -2.022910    0.255996
     14          1           0       -4.950008    0.474703    0.843693
     15          1           0       -4.918082    0.251516   -0.902815
     16          1           0       -4.034579   -1.831097    1.155358
     17          1           0       -4.001929   -2.054818   -0.590060
     18          1           0       -6.501301   -1.768497   -0.678555
     19          1           0       -6.534137   -1.543504    1.076780
     20          1           0       -6.055614   -3.106751    0.393708
     21          6           0        2.240052    2.268093    0.181696
     22          6           0        2.793413    1.601847    1.280072
     23          6           0        3.154097    0.254455    1.185250
     24          6           0        2.946590   -0.398906   -0.028566
     25          6           0        2.397432    0.237377   -1.140709
     26          6           0        2.044172    1.584936   -1.023064
     27          1           0        1.962748    3.314845    0.264221
     28          1           0        2.946678    2.129873    2.216952
     29          1           0        3.584405   -0.285608    2.019866
     30          1           0        2.256684   -0.315576   -2.061497
     31          1           0        1.614626    2.099807   -1.877724
     32          7           0        3.324499   -1.825418   -0.141030
     33          8           0        3.131526   -2.378580   -1.221498
     34          8           0        3.806523   -2.363344    0.853417
 ---------------------------------------------------------------------

 SCF Done:  E(RHF) =  -669.534529089     A.U. after   15 cycles
 E2 =    -0.2092433286D+01 EUMP2 =    -0.67162696237517D+03

 The electronic state is 1-A.
 Alpha  occ. eigenvalues --  -20.60742 -20.60737 -15.85797 -11.31154 -11.27730
 Alpha  occ. eigenvalues --  -11.27715 -11.27443 -11.26743 -11.26709 -11.22038
 Alpha  occ. eigenvalues --  -11.21695 -11.21693 -11.21670 -11.21561 -11.21133
 Alpha  occ. eigenvalues --   -1.59818  -1.39372  -1.19332  -1.08746  -1.08678
 Alpha  occ. eigenvalues --   -1.04742  -1.03827  -0.96306  -0.95553  -0.87340
 Alpha  occ. eigenvalues --   -0.86126  -0.82395  -0.79907  -0.78482  -0.77444
 Alpha  occ. eigenvalues --   -0.72015  -0.71141  -0.70428  -0.65336  -0.64983
 Alpha  occ. eigenvalues --   -0.64751  -0.62106  -0.61216  -0.59686  -0.57908
 Alpha  occ. eigenvalues --   -0.55624  -0.55194  -0.53386  -0.52980  -0.52841
 Alpha  occ. eigenvalues --   -0.52441  -0.50235  -0.48773  -0.48770  -0.48196
 Alpha  occ. eigenvalues --   -0.46919  -0.46032  -0.45940  -0.44780  -0.44084
 Alpha  occ. eigenvalues --   -0.37234  -0.36306
 Alpha virt. eigenvalues --    0.05072   0.11256   0.16482   0.20912   0.22673
 Alpha virt. eigenvalues --    0.24094   0.26131   0.26717   0.27243   0.27709
 Alpha virt. eigenvalues --    0.28819   0.30008   0.31167   0.31839   0.32330

 Mulliken charges:
               1
     1  C   -0.298212
     2  C   -0.300167
     3  C   -0.477731
     4  H    0.151060
     5  H    0.150214
     6  H    0.152399
     7  H    0.151980
     8  H    0.153181
     9  H    0.157542
    10  H    0.153685
    11  C   -0.298591
    12  C   -0.300133
    13  C   -0.475945
    14  H    0.149361
    15  H    0.149515
    16  H    0.153058
    17  H    0.153611
    18  H    0.155006
    19  H    0.154817
    20  H    0.161792
    21  C   -0.166541
    22  C   -0.220745
    23  C   -0.170838
    24  C    0.158686
    25  C   -0.172909
    26  C   -0.215032
    27  H    0.226818
    28  H    0.223207
    29  H    0.275390
    30  H    0.275104
    31  H    0.223577
    32  N    0.488127
    33  O   -0.460649
    34  O   -0.460633
 Sum of Mulliken charges =  -0.00000

 Dipole moment (field-independent basis, Debye):
    X=             -1.3699    Y=              4.9848    Z=              0.4212  Tot=              5.1867
 Quadrupole moment (field-independent basis, Debye-Ang):
   XX=           -103.8523   YY=            -99.8699   ZZ=            -89.3213
   XY=             15.2872   XZ=              2.9215   YZ=             -0.0481

 Normal termination of Gaussian 16 at Wed May  5 20:24:15 2021.
