 Gaussian 16, Revision A.03,
 Gaussian 16:  EM64L-G16RevA.03 25-Dec-2016

 -------------
 #p 6-31g* mp2
 -------------

 ------------------------------------------------------
 Input file generated by CHIRIPA (05-May-2021 14:55:24)
 ------------------------------------------------------
 Symbolic Z-matrix:
 Charge =  0 Multiplicity = 1

                         Standard orientation:
 ---------------------------------------------------------------------
 Center     Atomic      Atomic             Coordinates (Angstroms)
 Number     Number       Type             X           Y           Z
 ---------------------------------------------------------------------
      1          6           0        1.607665    1.351464    0.346360
      2          6           0        2.476224    1.607885   -0.719649
      3          6           0        3.624451    0.831550   -0.902478
      4          6           0        3.874513   -0.197818    0.003702
      5          6           0        3.028426   -0.478020    1.075576
      6          6           0        1.886047    0.311164    1.238996
      7          1           0        0.717966    1.959531    0.480847
      8          1           0        2.262553    2.415138   -1.414438
      9          1           0        4.313873    1.008246   -1.719113
     10          1           0        3.268027   -1.289659    1.751781
     11          1           0        1.213296    0.109738    2.067777
     12          7           0        5.086994   -1.026490   -0.179577
     13          8           0        5.284839   -1.927515    0.632611
     14          8           0        5.816534   -0.759288   -1.131949
     15          6           0       -3.956556    0.237660   -0.045093
     16          6           0       -3.649473    1.708350    0.239082
     17          6           0       -2.150825    2.011340    0.232343
     18          1           0       -3.451313   -0.387215    0.704044
     19          1           0       -3.530388   -0.036954   -1.019959
     20          1           0       -4.077288    1.980476    1.212497
     21          1           0       -4.155663    2.329807   -0.510705
     22          1           0       -1.712846    1.767386   -0.740931
     23          1           0       -1.634025    1.416070    0.992062
     24          1           0       -1.953983    3.068206    0.437640
     25          6           0       -5.450628   -0.080879   -0.041714
     26          6           0       -5.757711   -1.551569   -0.325888
     27          6           0       -7.256359   -1.854559   -0.319149
     28          1           0       -5.876796    0.193734    0.933152
     29          1           0       -5.955871    0.543996   -0.790850
     30          1           0       -5.251522   -2.173026    0.423899
     31          1           0       -5.329896   -1.823696   -1.299304
     32          1           0       -7.773159   -1.259290   -1.078869
     33          1           0       -7.694338   -1.610606    0.654125
     34          1           0       -7.453202   -2.911426   -0.524446
 ---------------------------------------------------------------------

 SCF Done:  E(RHF) =  -669.535346674     A.U. after   15 cycles
 E2 =    -0.2091135948D+01 EUMP2 =    -0.67162648262163D+03

 The electronic state is 1-A.
 Alpha  occ. eigenvalues --  -20.60689 -20.60684 -15.85744 -11.31081 -11.27664
 Alpha  occ. eigenvalues --  -11.27659 -11.27298 -11.26653 -11.26638 -11.22563
 Alpha  occ. eigenvalues --  -11.22426 -11.22136 -11.22073 -11.21953 -11.21456
 Alpha  occ. eigenvalues --   -1.59766  -1.39320  -1.19253  -1.09147  -1.08641
 Alpha  occ. eigenvalues --   -1.04659  -1.04298  -0.96790  -0.95479  -0.87824
 Alpha  occ. eigenvalues --   -0.86053  -0.82326  -0.80389  -0.78907  -0.77381
 Alpha  occ. eigenvalues --   -0.71961  -0.71090  -0.70340  -0.65772  -0.64901
 Alpha  occ. eigenvalues --   -0.64669  -0.62016  -0.61689  -0.60173  -0.58367
 Alpha  occ. eigenvalues --   -0.56082  -0.55231  -0.53437  -0.53180  -0.52934
 Alpha  occ. eigenvalues --   -0.52749  -0.50725  -0.48734  -0.48718  -0.48650
 Alpha  occ. eigenvalues --   -0.47384  -0.46460  -0.46350  -0.44732  -0.44529
 Alpha  occ. eigenvalues --   -0.37205  -0.36273
 Alpha virt. eigenvalues --    0.05154   0.11366   0.16625   0.20587   0.22249
 Alpha virt. eigenvalues --    0.23735   0.25543   0.26182   0.26784   0.27216
 Alpha virt. eigenvalues --    0.29064   0.29722   0.30557   0.31363   0.31981

 Mulliken charges:
               1
     1  C   -0.176008
     2  C   -0.221824
     3  C   -0.170648
     4  C    0.157893
     5  C   -0.170716
     6  C   -0.222233
     7  H    0.241479
     8  H    0.223075
     9  H    0.275098
    10  H    0.275095
    11  H    0.222277
    12  N    0.488093
    13  O   -0.460845
    14  O   -0.460809
    15  C   -0.298953
    16  C   -0.299999
    17  C   -0.483521
    18  H    0.149188
    19  H    0.151382
    20  H    0.154608
    21  H    0.155519
    22  H    0.157857
    23  H    0.148962
    24  H    0.160373
    25  C   -0.299022
    26  C   -0.300154
    27  C   -0.476116
    28  H    0.150300
    29  H    0.150852
    30  H    0.152382
    31  H    0.153043
    32  H    0.155811
    33  H    0.155606
    34  H    0.161956
 Sum of Mulliken charges =  -0.00000

 Dipole moment (field-independent basis, Debye):
    X=             -4.5517    Y=              2.9198    Z=              0.6078  Tot=              5.4418
 Quadrupole moment (field-independent basis, Debye-Ang):
   XX=           -128.6740   YY=            -95.1019   ZZ=            -90.7974
   XY=             12.6030   XZ=              1.4521   YZ=             -2.9032

 Normal termination of Gaussian 16 at Thu May  6 16:01:06 2021.
