 Gaussian 16, Revision A.03,
 Gaussian 16:  EM64L-G16RevA.03 25-Dec-2016

 -------------
 #p 6-31g* mp2
 -------------

 ------------------------------------------------------
 Input file generated by CHIRIPA (05-May-2021 14:51:09)
 ------------------------------------------------------
 Symbolic Z-matrix:
 Charge =  0 Multiplicity = 1

                         Standard orientation:
 ---------------------------------------------------------------------
 Center     Atomic      Atomic             Coordinates (Angstroms)
 Number     Number       Type             X           Y           Z
 ---------------------------------------------------------------------
      1          6           0        2.926182    0.490555   -0.660782
      2          6           0        3.501775   -0.873597   -0.278988
      3          6           0        4.326166   -1.502804   -1.402497
      4          1           0        2.301784    0.379896   -1.557903
      5          1           0        3.749675    1.164671   -0.934315
      6          1           0        2.677541   -1.544524   -0.004925
      7          1           0        4.124721   -0.759712    0.617441
      8          1           0        5.167467   -0.856001   -1.671682
      9          1           0        3.712064   -1.645272   -2.297584
     10          1           0        4.728080   -2.477329   -1.108172
     11          6           0        2.099552    1.132286    0.452139
     12          6           0        1.523958    2.496438    0.070345
     13          6           0        0.699567    3.125645    1.193854
     14          1           0        1.276058    0.458170    0.725673
     15          1           0        2.723950    1.242945    1.349260
     16          1           0        0.901012    2.382553   -0.826084
     17          1           0        2.348193    3.167365   -0.203718
     18          1           0        1.313670    3.268113    2.088942
     19          1           0       -0.141733    2.478842    1.463040
     20          1           0        0.297654    4.100169    0.899529
     21          6           0       -2.167699   -1.096418    0.723246
     22          6           0       -0.884825   -1.864149    0.402609
     23          6           0       -0.205792   -2.428239    1.651012
     24          1           0       -1.933587   -0.277254    1.416864
     25          1           0       -2.863719   -1.763311    1.250697
     26          1           0       -0.191976   -1.196403   -0.125305
     27          1           0       -1.121985   -2.681462   -0.290477
     28          1           0       -0.876213   -3.115725    2.176846
     29          1           0        0.059081   -1.622227    2.342957
     30          1           0        0.709220   -2.973204    1.398771
     31          6           0       -2.858034   -0.526423   -0.514603
     32          6           0       -4.140909    0.241307   -0.193966
     33          6           0       -4.819941    0.805398   -1.442370
     34          1           0       -2.162014    0.140470   -1.042055
     35          1           0       -3.092147   -1.345587   -1.208222
     36          1           0       -3.903748    1.058621    0.499120
     37          1           0       -4.833758   -0.426438    0.333948
     38          1           0       -5.084814   -0.000614   -2.134315
     39          1           0       -4.149521    1.492883   -1.968204
     40          1           0       -5.734954    1.350364   -1.190129
 ---------------------------------------------------------------------

 SCF Done:  E(RHF) =  -470.733066704     A.U. after   11 cycles
 E2 =    -0.1584366695D+01 EUMP2 =    -0.47231743339860D+03

 The electronic state is 1-A.
 Alpha  occ. eigenvalues --  -11.21665 -11.21650 -11.21640 -11.21591 -11.21476
 Alpha  occ. eigenvalues --  -11.21418 -11.21414 -11.21357 -11.21138 -11.21127
 Alpha  occ. eigenvalues --  -11.21099 -11.21068  -1.08524  -1.08430  -1.03590
 Alpha  occ. eigenvalues --   -1.03555  -0.96046  -0.95997  -0.87052  -0.87019
 Alpha  occ. eigenvalues --   -0.79662  -0.79608  -0.78341  -0.78243  -0.65438
 Alpha  occ. eigenvalues --   -0.64835  -0.61000  -0.60950  -0.59448  -0.59325
 Alpha  occ. eigenvalues --   -0.57654  -0.57606  -0.55442  -0.55183  -0.52739
 Alpha  occ. eigenvalues --   -0.52688  -0.52497  -0.52388  -0.49981  -0.49947
 Alpha  occ. eigenvalues --   -0.48030  -0.47884  -0.46752  -0.46628  -0.46018
 Alpha  occ. eigenvalues --   -0.45797  -0.45776  -0.45440  -0.43840  -0.43806
 Alpha virt. eigenvalues --    0.19029   0.22202   0.23638   0.24347   0.26049
 Alpha virt. eigenvalues --    0.26138   0.26854   0.27848   0.28562   0.29744
 Alpha virt. eigenvalues --    0.30240   0.31504   0.31716   0.31877   0.32512

 Mulliken charges:
               1
     1  C   -0.298140
     2  C   -0.304922
     3  C   -0.475598
     4  H    0.149282
     5  H    0.149845
     6  H    0.157343
     7  H    0.152024
     8  H    0.155152
     9  H    0.155253
    10  H    0.160161
    11  C   -0.306622
    12  C   -0.299409
    13  C   -0.476445
    14  H    0.157835
    15  H    0.149948
    16  H    0.151249
    17  H    0.152416
    18  H    0.155618
    19  H    0.154647
    20  H    0.160567
    21  C   -0.299712
    22  C   -0.305864
    23  C   -0.478280
    24  H    0.150035
    25  H    0.150337
    26  H    0.155778
    27  H    0.152868
    28  H    0.155743
    29  H    0.156629
    30  H    0.161765
    31  C   -0.298274
    32  C   -0.299755
    33  C   -0.475756
    34  H    0.149116
    35  H    0.149916
    36  H    0.152196
    37  H    0.152104
    38  H    0.155194
    39  H    0.155263
    40  H    0.160493
 Sum of Mulliken charges =  -0.00000

 Dipole moment (field-independent basis, Debye):
    X=             -0.0101    Y=             -0.0177    Z=              0.0144  Tot=              0.0250
 Quadrupole moment (field-independent basis, Debye-Ang):
   XX=            -84.4830   YY=            -84.3480   ZZ=            -85.8010
   XY=              1.5313   XZ=              0.3427   YZ=              0.1894

 Normal termination of Gaussian 16 at Wed May  5 19:44:14 2021.
