 Gaussian 16, Revision A.03,
 Gaussian 16:  EM64L-G16RevA.03 25-Dec-2016

 -------------
 #p 6-31g* mp2
 -------------

 ------------------------------------------------------
 Input file generated by CHIRIPA (05-May-2021 14:53:15)
 ------------------------------------------------------
 Symbolic Z-matrix:
 Charge =  0 Multiplicity = 1

                         Standard orientation:
 ---------------------------------------------------------------------
 Center     Atomic      Atomic             Coordinates (Angstroms)
 Number     Number       Type             X           Y           Z
 ---------------------------------------------------------------------
      1          6           0       -3.953194    0.905935   -0.343838
      2          6           0       -2.860624    1.705244    0.367063
      3          6           0       -2.933245    3.202644    0.066538
      4          1           0       -3.871298    1.068313   -1.427292
      5          1           0       -4.936223    1.293972   -0.043046
      6          1           0       -1.879978    1.314909    0.066083
      7          1           0       -2.945011    1.540792    1.448936
      8          1           0       -3.897702    3.612768    0.383117
      9          1           0       -2.826618    3.385601   -1.007593
     10          1           0       -2.143160    3.754914    0.584827
     11          6           0       -3.893746   -0.592652   -0.053266
     12          6           0       -4.986316   -1.391962   -0.764167
     13          6           0       -4.913695   -2.889361   -0.463642
     14          1           0       -2.910717   -0.980689   -0.354058
     15          1           0       -3.975642   -0.755031    1.030188
     16          1           0       -4.901929   -1.227509   -1.846040
     17          1           0       -5.966962   -1.001626   -0.463187
     18          1           0       -5.020322   -3.072319    0.610489
     19          1           0       -3.949238   -3.299485   -0.780221
     20          1           0       -5.703780   -3.441631   -0.981931
     21          6           0        5.190232   -0.269683   -1.197104
     22          6           0        4.278086    0.763265   -1.436958
     23          6           0        3.097447    0.854716   -0.693806
     24          6           0        2.859772   -0.108135    0.285847
     25          6           0        3.749005   -1.149103    0.548409
     26          6           0        4.923251   -1.220893   -0.206933
     27          1           0        6.104898   -0.333087   -1.779138
     28          1           0        4.482807    1.503387   -2.205303
     29          1           0        2.374034    1.643962   -0.858677
     30          1           0        3.517325   -1.872142    1.321039
     31          1           0        5.629827   -2.024186   -0.018477
     32          7           0        1.613266   -0.021727    1.079041
     33          8           0        1.427179   -0.882454    1.936454
     34          8           0        0.845944    0.905090    0.828314
 ---------------------------------------------------------------------

 SCF Done:  E(RHF) =  -669.535957278     A.U. after   15 cycles
 E2 =    -0.2090887766D+01 EUMP2 =    -0.67162684504369D+03

 The electronic state is 1-A.
 Alpha  occ. eigenvalues --  -20.60945 -20.60937 -15.85980 -11.31305 -11.27869
 Alpha  occ. eigenvalues --  -11.27865 -11.27606 -11.26877 -11.26867 -11.20850
 Alpha  occ. eigenvalues --  -11.20423 -11.20397 -11.20309 -11.20090 -11.19968
 Alpha  occ. eigenvalues --   -1.60006  -1.39562  -1.19474  -1.08877  -1.07402
 Alpha  occ. eigenvalues --   -1.04871  -1.02516  -0.95718  -0.95023  -0.86271
 Alpha  occ. eigenvalues --   -0.86047  -0.82553  -0.78579  -0.77607  -0.77148
 Alpha  occ. eigenvalues --   -0.72199  -0.71323  -0.70582  -0.65130  -0.64873
 Alpha  occ. eigenvalues --   -0.64044  -0.62218  -0.59921  -0.58389  -0.56593
 Alpha  occ. eigenvalues --   -0.55374  -0.54338  -0.53203  -0.52962  -0.51733
 Alpha  occ. eigenvalues --   -0.51437  -0.49042  -0.48958  -0.48926  -0.46886
 Alpha  occ. eigenvalues --   -0.45631  -0.45045  -0.44709  -0.44475  -0.42776
 Alpha  occ. eigenvalues --   -0.37453  -0.36473
 Alpha virt. eigenvalues --    0.04902   0.11182   0.16382   0.21308   0.23825
 Alpha virt. eigenvalues --    0.25254   0.27235   0.27646   0.28120   0.28675
 Alpha virt. eigenvalues --    0.28924   0.30872   0.32246   0.32439   0.32864

 Mulliken charges:
               1
     1  C   -0.298246
     2  C   -0.305046
     3  C   -0.475410
     4  H    0.144163
     5  H    0.144934
     6  H    0.173887
     7  H    0.153479
     8  H    0.149872
     9  H    0.148523
    10  H    0.161766
    11  C   -0.297040
    12  C   -0.298902
    13  C   -0.474877
    14  H    0.151621
    15  H    0.151627
    16  H    0.148930
    17  H    0.150012
    18  H    0.155679
    19  H    0.154433
    20  H    0.156978
    21  C   -0.170619
    22  C   -0.218533
    23  C   -0.170932
    24  C    0.157660
    25  C   -0.170659
    26  C   -0.218569
    27  H    0.226037
    28  H    0.223884
    29  H    0.275681
    30  H    0.275928
    31  H    0.223868
    32  N    0.490829
    33  O   -0.458685
    34  O   -0.462271
 Sum of Mulliken charges =  -0.00000

 Dipole moment (field-independent basis, Debye):
    X=              4.7262    Y=             -0.3556    Z=             -2.6842  Tot=              5.4469
 Quadrupole moment (field-independent basis, Debye-Ang):
   XX=            -70.7191   YY=            -93.3992   ZZ=            -95.0774
   XY=             -2.6657   XZ=             -7.0981   YZ=             -1.9909

 Normal termination of Gaussian 16 at Thu May  6 18:50:50 2021.
