 Gaussian 16, Revision A.03,
 Gaussian 16:  EM64L-G16RevA.03 25-Dec-2016

 -------------
 #p 6-31g* mp2
 -------------

 ------------------------------------------------------
 Input file generated by CHIRIPA (05-May-2021 14:55:22)
 ------------------------------------------------------
 Symbolic Z-matrix:
 Charge =  0 Multiplicity = 1

                         Standard orientation:
 ---------------------------------------------------------------------
 Center     Atomic      Atomic             Coordinates (Angstroms)
 Number     Number       Type             X           Y           Z
 ---------------------------------------------------------------------
      1          6           0        0.773597    0.156724   -0.788412
      2          6           0        1.555123    1.274725   -0.478872
      3          6           0        2.892633    1.123463   -0.101069
      4          6           0        3.418668   -0.166191   -0.043016
      5          6           0        2.665663   -1.299697   -0.345403
      6          6           0        1.330380   -1.124659   -0.720808
      7          1           0       -0.264547    0.283463   -1.080967
      8          1           0        1.125372    2.271064   -0.530513
      9          1           0        3.520295    1.971674    0.143873
     10          1           0        3.122031   -2.280248   -0.284860
     11          1           0        0.725810   -1.994727   -0.960644
     12          7           0        4.833451   -0.338910    0.355678
     13          8           0        5.273274   -1.485776    0.399170
     14          8           0        5.475747    0.675848    0.617132
     15          6           0       -4.198233   -0.494398   -0.205825
     16          6           0       -4.873108   -1.527727    0.696815
     17          6           0       -5.108094   -2.864297   -0.007568
     18          1           0       -4.818556   -0.335923   -1.098589
     19          1           0       -3.238982   -0.897309   -0.559229
     20          1           0       -5.830161   -1.122433    1.049524
     21          1           0       -4.251200   -1.683618    1.587626
     22          1           0       -4.159343   -3.293971   -0.344989
     23          1           0       -5.747275   -2.729597   -0.886148
     24          1           0       -5.591479   -3.588209    0.655870
     25          6           0       -3.956634    0.846973    0.484162
     26          6           0       -3.281759    1.880302   -0.418477
     27          6           0       -3.046773    3.216872    0.285905
     28          1           0       -4.915886    1.249884    0.837566
     29          1           0       -3.336311    0.688498    1.376927
     30          1           0       -3.903667    2.036193   -1.309288
     31          1           0       -2.324707    1.475008   -0.771186
     32          1           0       -2.407592    3.082172    1.164486
     33          1           0       -3.995524    3.646547    0.623326
     34          1           0       -2.563388    3.940784   -0.377532
 ---------------------------------------------------------------------

 SCF Done:  E(RHF) =  -669.535475774     A.U. after   15 cycles
 E2 =    -0.2091294063D+01 EUMP2 =    -0.67162676983671D+03

 The electronic state is 1-A.
 Alpha  occ. eigenvalues --  -20.60754 -20.60749 -15.85808 -11.31175 -11.27746
 Alpha  occ. eigenvalues --  -11.27741 -11.27469 -11.26762 -11.26748 -11.22780
 Alpha  occ. eigenvalues --  -11.22380 -11.22337 -11.22293 -11.22063 -11.21750
 Alpha  occ. eigenvalues --   -1.59829  -1.39383  -1.19348  -1.09380  -1.08741
 Alpha  occ. eigenvalues --   -1.04751  -1.04442  -0.96866  -0.95578  -0.87882
 Alpha  occ. eigenvalues --   -0.86148  -0.82413  -0.80520  -0.79188  -0.77455
 Alpha  occ. eigenvalues --   -0.72025  -0.71153  -0.70483  -0.66017  -0.64999
 Alpha  occ. eigenvalues --   -0.64751  -0.62103  -0.61841  -0.60248  -0.58480
 Alpha  occ. eigenvalues --   -0.56148  -0.55280  -0.53555  -0.53282  -0.53080
 Alpha  occ. eigenvalues --   -0.52841  -0.50808  -0.48833  -0.48781  -0.48772
 Alpha  occ. eigenvalues --   -0.47559  -0.46720  -0.46636  -0.44788  -0.44698
 Alpha  occ. eigenvalues --   -0.37326  -0.36357
 Alpha virt. eigenvalues --    0.05074   0.11291   0.16526   0.18586   0.22717
 Alpha virt. eigenvalues --    0.23432   0.24656   0.26192   0.26583   0.27718
 Alpha virt. eigenvalues --    0.29509   0.30355   0.30933   0.31019   0.32224

 Mulliken charges:
               1
     1  C   -0.177646
     2  C   -0.221536
     3  C   -0.170858
     4  C    0.158315
     5  C   -0.170712
     6  C   -0.220081
     7  H    0.235950
     8  H    0.223943
     9  H    0.275638
    10  H    0.275503
    11  H    0.223581
    12  N    0.488005
    13  O   -0.460458
    14  O   -0.460444
    15  C   -0.297307
    16  C   -0.300626
    17  C   -0.475725
    18  H    0.152115
    19  H    0.140728
    20  H    0.154729
    21  H    0.153511
    22  H    0.152928
    23  H    0.156494
    24  H    0.163306
    25  C   -0.299303
    26  C   -0.303291
    27  C   -0.477253
    28  H    0.154004
    29  H    0.151912
    30  H    0.156348
    31  H    0.141361
    32  H    0.156604
    33  H    0.160513
    34  H    0.159754
 Sum of Mulliken charges =  -0.00000

 Dipole moment (field-independent basis, Debye):
    X=             -5.2355    Y=              0.6415    Z=             -1.3254  Tot=              5.4386
 Quadrupole moment (field-independent basis, Debye-Ang):
   XX=           -127.5128   YY=            -90.6645   ZZ=            -95.4888
   XY=              2.7898   XZ=             -4.5943   YZ=              0.3466

 Normal termination of Gaussian 16 at Thu May  6 12:32:05 2021.
