 Gaussian 16, Revision A.03,
 Gaussian 16:  EM64L-G16RevA.03 25-Dec-2016

 -------------
 #p 6-31g* mp2
 -------------

 ------------------------------------------------------
 Input file generated by CHIRIPA (05-May-2021 14:53:17)
 ------------------------------------------------------
 Symbolic Z-matrix:
 Charge =  0 Multiplicity = 1

                         Standard orientation:
 ---------------------------------------------------------------------
 Center     Atomic      Atomic             Coordinates (Angstroms)
 Number     Number       Type             X           Y           Z
 ---------------------------------------------------------------------
      1          6           0       -2.481216    1.474276   -0.236421
      2          6           0       -0.989679    1.806622   -0.289783
      3          6           0       -0.723341    3.298496   -0.492681
      4          1           0       -2.958754    1.810207   -1.167041
      5          1           0       -2.948042    2.045138    0.578186
      6          1           0       -0.525541    1.234253   -1.103162
      7          1           0       -0.515601    1.469687    0.640992
      8          1           0       -1.160020    3.882349    0.324037
      9          1           0       -1.170016    3.645577   -1.430027
     10          1           0        0.349187    3.513692   -0.527841
     11          6           0       -2.763547   -0.013355   -0.034004
     12          6           0       -4.255084   -0.345701    0.019357
     13          6           0       -4.521422   -1.837576    0.222256
     14          1           0       -2.296721   -0.584218   -0.848611
     15          1           0       -2.286009   -0.349287    0.896615
     16          1           0       -4.729162   -0.008767   -0.911417
     17          1           0       -4.719222    0.226668    0.832736
     18          1           0       -4.074747   -2.184657    1.159601
     19          1           0       -4.084742   -2.421429   -0.594462
     20          1           0       -5.593949   -2.052772    0.257416
     21          6           0        1.418903   -2.973142   -0.338633
     22          6           0        1.164358   -2.402703    0.912897
     23          6           0        1.509084   -1.072482    1.170240
     24          6           0        2.109625   -0.338410    0.148585
     25          6           0        2.376164   -0.878378   -1.108667
     26          6           0        2.022929   -2.210503   -1.343648
     27          1           0        1.147806   -4.007229   -0.529857
     28          1           0        0.695379   -2.992595    1.695286
     29          1           0        1.323430   -0.605832    2.130024
     30          1           0        2.844896   -0.265237   -1.868775
     31          1           0        2.221809   -2.650890   -2.316557
     32          7           0        2.479076    1.070843    0.409186
     33          8           0        3.007112    1.696364   -0.507622
     34          8           0        2.233618    1.523210    1.525318
 ---------------------------------------------------------------------

 SCF Done:  E(RHF) =  -669.536078356     A.U. after   15 cycles
 E2 =    -0.2094252153D+01 EUMP2 =    -0.67163033050890D+03

 The electronic state is 1-A.
 Alpha  occ. eigenvalues --  -20.60940 -20.60921 -15.85928 -11.31222 -11.27790
 Alpha  occ. eigenvalues --  -11.27784 -11.27524 -11.26811 -11.26801 -11.21650
 Alpha  occ. eigenvalues --  -11.21343 -11.21279 -11.21125 -11.21062 -11.20196
 Alpha  occ. eigenvalues --   -1.59974  -1.39535  -1.19397  -1.08808  -1.08251
 Alpha  occ. eigenvalues --   -1.04797  -1.03281  -0.95717  -0.95654  -0.86730
 Alpha  occ. eigenvalues --   -0.86199  -0.82497  -0.79401  -0.78088  -0.77545
 Alpha  occ. eigenvalues --   -0.72167  -0.71275  -0.70514  -0.65065  -0.64888
 Alpha  occ. eigenvalues --   -0.64801  -0.62151  -0.60680  -0.59113  -0.57293
 Alpha  occ. eigenvalues --   -0.55303  -0.55021  -0.53149  -0.52893  -0.52351
 Alpha  occ. eigenvalues --   -0.52140  -0.49684  -0.48939  -0.48921  -0.47699
 Alpha  occ. eigenvalues --   -0.46480  -0.45715  -0.45544  -0.44697  -0.43506
 Alpha  occ. eigenvalues --   -0.37327  -0.36378
 Alpha virt. eigenvalues --    0.04934   0.11168   0.16423   0.21274   0.23003
 Alpha virt. eigenvalues --    0.24562   0.26416   0.27158   0.27625   0.28186
 Alpha virt. eigenvalues --    0.28504   0.30636   0.31410   0.31828   0.32597

 Mulliken charges:
               1
     1  C   -0.297405
     2  C   -0.310163
     3  C   -0.478659
     4  H    0.148749
     5  H    0.150234
     6  H    0.147285
     7  H    0.156930
     8  H    0.154371
     9  H    0.149962
    10  H    0.178134
    11  C   -0.296627
    12  C   -0.299436
    13  C   -0.474833
    14  H    0.147780
    15  H    0.145076
    16  H    0.152519
    17  H    0.152838
    18  H    0.151985
    19  H    0.152730
    20  H    0.160721
    21  C   -0.170679
    22  C   -0.217507
    23  C   -0.171762
    24  C    0.162826
    25  C   -0.172222
    26  C   -0.218622
    27  H    0.225857
    28  H    0.223699
    29  H    0.274882
    30  H    0.275550
    31  H    0.223515
    32  N    0.491081
    33  O   -0.459666
    34  O   -0.459142
 Sum of Mulliken charges =  -0.00000

 Dipole moment (field-independent basis, Debye):
    X=             -1.1283    Y=             -4.8934    Z=             -0.8907  Tot=              5.1002
 Quadrupole moment (field-independent basis, Debye-Ang):
   XX=           -100.7360   YY=            -92.7999   ZZ=            -89.8436
   XY=            -10.2356   XZ=             -4.0665   YZ=             -0.4349

 Normal termination of Gaussian 16 at Thu May  6 04:24:09 2021.
