 Gaussian 16, Revision A.03,
 Gaussian 16:  EM64L-G16RevA.03 25-Dec-2016

 -------------
 #p 6-31g* mp2
 -------------

 ------------------------------------------------------
 Input file generated by CHIRIPA (05-May-2021 14:55:25)
 ------------------------------------------------------
 Symbolic Z-matrix:
 Charge =  0 Multiplicity = 1

                         Standard orientation:
 ---------------------------------------------------------------------
 Center     Atomic      Atomic             Coordinates (Angstroms)
 Number     Number       Type             X           Y           Z
 ---------------------------------------------------------------------
      1          6           0       -1.617516    1.603600    1.864565
      2          6           0       -1.660381    0.263438    2.262871
      3          6           0       -1.959364   -0.742566    1.339230
      4          6           0       -2.211387   -0.371052    0.019475
      5          6           0       -2.176239    0.955317   -0.408075
      6          6           0       -1.875128    1.944662    0.532711
      7          1           0       -1.384432    2.378617    2.588731
      8          1           0       -1.460745   -0.004367    3.296540
      9          1           0       -1.999219   -1.787900    1.620490
     10          1           0       -2.379770    1.191379   -1.445508
     11          1           0       -1.842538    2.984629    0.220541
     12          7           0       -2.529033   -1.427245   -0.967417
     13          8           0       -2.747245   -1.073853   -2.124195
     14          8           0       -2.553778   -2.588481   -0.565479
     15          6           0        2.181336    0.745980   -0.209511
     16          6           0        2.438547    2.025191   -1.006660
     17          6           0        1.264685    3.003255   -0.949805
     18          1           0        1.276001    0.257228   -0.594785
     19          1           0        1.973020    1.009794    0.836625
     20          1           0        2.647680    1.758950   -2.050688
     21          1           0        3.343483    2.510855   -0.619570
     22          1           0        1.058255    3.297619    0.084282
     23          1           0        0.358499    2.541442   -1.354967
     24          1           0        1.469892    3.910657   -1.526322
     25          6           0        3.345792   -0.241714   -0.256734
     26          6           0        3.088582   -1.520925    0.540414
     27          6           0        4.262444   -2.498990    0.483560
     28          1           0        3.554110   -0.505529   -1.302870
     29          1           0        4.251127    0.247038    0.128539
     30          1           0        2.183646   -2.006590    0.153325
     31          1           0        2.879449   -1.254685    1.584443
     32          1           0        5.168631   -2.037177    0.888721
     33          1           0        4.468874   -2.793353   -0.550528
     34          1           0        4.057236   -3.406392    1.060076
 ---------------------------------------------------------------------

 SCF Done:  E(RHF) =  -669.534851968     A.U. after   15 cycles
 E2 =    -0.2093743897D+01 EUMP2 =    -0.67162859586521D+03

 The electronic state is 1-A.
 Alpha  occ. eigenvalues --  -20.60813 -20.60807 -15.85865 -11.31235 -11.27760
 Alpha  occ. eigenvalues --  -11.27756 -11.27492 -11.26803 -11.26763 -11.21879
 Alpha  occ. eigenvalues --  -11.21656 -11.21543 -11.21524 -11.21444 -11.21077
 Alpha  occ. eigenvalues --   -1.59889  -1.39442  -1.19385  -1.08785  -1.08574
 Alpha  occ. eigenvalues --   -1.04790  -1.03714  -0.96182  -0.95620  -0.87218
 Alpha  occ. eigenvalues --   -0.86175  -0.82453  -0.79797  -0.78376  -0.77497
 Alpha  occ. eigenvalues --   -0.72081  -0.71214  -0.70487  -0.65215  -0.65032
 Alpha  occ. eigenvalues --   -0.64787  -0.62145  -0.61117  -0.59554  -0.57788
 Alpha  occ. eigenvalues --   -0.55477  -0.55281  -0.53206  -0.52969  -0.52837
 Alpha  occ. eigenvalues --   -0.52515  -0.50135  -0.48841  -0.48837  -0.48084
 Alpha  occ. eigenvalues --   -0.46818  -0.45891  -0.45833  -0.44846  -0.43955
 Alpha  occ. eigenvalues --   -0.37334  -0.36294
 Alpha virt. eigenvalues --    0.04990   0.11219   0.16431   0.20926   0.22729
 Alpha virt. eigenvalues --    0.24140   0.26104   0.26339   0.27272   0.27946
 Alpha virt. eigenvalues --    0.28706   0.30711   0.30938   0.31623   0.32029

 Mulliken charges:
               1
     1  C   -0.172746
     2  C   -0.217209
     3  C   -0.171341
     4  C    0.159001
     5  C   -0.174432
     6  C   -0.210718
     7  H    0.225331
     8  H    0.223500
     9  H    0.275594
    10  H    0.275252
    11  H    0.226152
    12  N    0.487600
    13  O   -0.460535
    14  O   -0.460238
    15  C   -0.298582
    16  C   -0.299805
    17  C   -0.475265
    18  H    0.153128
    19  H    0.145994
    20  H    0.154944
    21  H    0.151644
    22  H    0.147714
    23  H    0.153889
    24  H    0.159756
    25  C   -0.298775
    26  C   -0.299890
    27  C   -0.475731
    28  H    0.151815
    29  H    0.148380
    30  H    0.155608
    31  H    0.148009
    32  H    0.154003
    33  H    0.157239
    34  H    0.160715
 Sum of Mulliken charges =  -0.00000

 Dipole moment (field-independent basis, Debye):
    X=              1.0970    Y=              3.6641    Z=              3.4664  Tot=              5.1618
 Quadrupole moment (field-independent basis, Debye-Ang):
   XX=           -100.9656   YY=            -96.1013   ZZ=            -91.6902
   XY=             -8.4920   XZ=             -7.2706   YZ=             -3.5546

 Normal termination of Gaussian 16 at Thu May  6 20:57:22 2021.
