 Gaussian 16, Revision A.03,
 Gaussian 16:  EM64L-G16RevA.03 25-Dec-2016

 -------------
 #p 6-31g* mp2
 -------------

 ------------------------------------------------------
 Input file generated by CHIRIPA (05-May-2021 14:53:15)
 ------------------------------------------------------
 Symbolic Z-matrix:
 Charge =  0 Multiplicity = 1

                         Standard orientation:
 ---------------------------------------------------------------------
 Center     Atomic      Atomic             Coordinates (Angstroms)
 Number     Number       Type             X           Y           Z
 ---------------------------------------------------------------------
      1          6           0       -3.968372    0.371966   -0.204424
      2          6           0       -5.490310    0.432408   -0.338723
      3          6           0       -5.982945    1.773707   -0.882803
      4          1           0       -3.632450    1.182922    0.456221
      5          1           0       -3.512841    0.559917   -1.186545
      6          1           0       -5.942864    0.243029    0.643085
      7          1           0       -5.822666   -0.378903   -0.998973
      8          1           0       -5.558763    1.966799   -1.873452
      9          1           0       -5.679645    2.592264   -0.222065
     10          1           0       -7.073665    1.795077   -0.970738
     11          6           0       -3.460623   -0.962729    0.338261
     12          6           0       -1.938685   -1.023171    0.472560
     13          6           0       -1.446050   -2.364469    1.016640
     14          1           0       -3.916154   -1.150680    1.320382
     15          1           0       -3.796544   -1.773685   -0.322385
     16          1           0       -1.606329   -0.211860    1.132810
     17          1           0       -1.486130   -0.833792   -0.509248
     18          1           0       -1.749350   -3.183027    0.355902
     19          1           0       -1.870231   -2.557561    2.007289
     20          1           0       -0.355330   -2.385840    1.104574
     21          6           0        2.921690    2.629129    0.730912
     22          6           0        3.531486    2.282937   -0.479385
     23          6           0        3.526646    0.957203   -0.923180
     24          6           0        2.900043   -0.001098   -0.127996
     25          6           0        2.283907    0.312464    1.082519
     26          6           0        2.300941    1.644524    1.506634
     27          1           0        2.930186    3.661449    1.068019
     28          1           0        4.014321    3.045496   -1.083885
     29          1           0        3.991160    0.661522   -1.856035
     30          1           0        1.810522   -0.469802    1.663367
     31          1           0        1.826571    1.910482    2.446997
     32          7           0        2.888464   -1.407942   -0.587405
     33          8           0        2.329731   -2.233540    0.131512
     34          8           0        3.438340   -1.658389   -1.657709
 ---------------------------------------------------------------------

 SCF Done:  E(RHF) =  -669.536178517     A.U. after   15 cycles
 E2 =    -0.2091474887D+01 EUMP2 =    -0.67162765340346D+03

 The electronic state is 1-A.
 Alpha  occ. eigenvalues --  -20.60910 -20.60903 -15.85940 -11.31251 -11.27818
 Alpha  occ. eigenvalues --  -11.27814 -11.27553 -11.26825 -11.26815 -11.21543
 Alpha  occ. eigenvalues --  -11.21339 -11.21297 -11.21168 -11.21067 -11.20405
 Alpha  occ. eigenvalues --   -1.59968  -1.39526  -1.19421  -1.08827  -1.08267
 Alpha  occ. eigenvalues --   -1.04817  -1.03313  -0.95751  -0.95656  -0.86747
 Alpha  occ. eigenvalues --   -0.86219  -0.82507  -0.79388  -0.78088  -0.77562
 Alpha  occ. eigenvalues --   -0.72169  -0.71281  -0.70532  -0.65080  -0.64905
 Alpha  occ. eigenvalues --   -0.64823  -0.62174  -0.60718  -0.59105  -0.57344
 Alpha  occ. eigenvalues --   -0.55324  -0.55031  -0.53145  -0.52917  -0.52385
 Alpha  occ. eigenvalues --   -0.52156  -0.49688  -0.48922  -0.48914  -0.47688
 Alpha  occ. eigenvalues --   -0.46445  -0.45624  -0.45557  -0.44931  -0.43527
 Alpha  occ. eigenvalues --   -0.37397  -0.36412
 Alpha virt. eigenvalues --    0.04934   0.11209   0.16419   0.20942   0.22990
 Alpha virt. eigenvalues --    0.24132   0.26559   0.26865   0.27643   0.27722
 Alpha virt. eigenvalues --    0.28966   0.30420   0.31609   0.31642   0.31981

 Mulliken charges:
               1
     1  C   -0.297605
     2  C   -0.299491
     3  C   -0.475469
     4  H    0.146337
     5  H    0.149697
     6  H    0.151464
     7  H    0.152953
     8  H    0.155136
     9  H    0.153558
    10  H    0.160190
    11  C   -0.297644
    12  C   -0.298911
    13  C   -0.486910
    14  H    0.148235
    15  H    0.151490
    16  H    0.142096
    17  H    0.153332
    18  H    0.158100
    19  H    0.149118
    20  H    0.180279
    21  C   -0.170414
    22  C   -0.218559
    23  C   -0.170821
    24  C    0.157816
    25  C   -0.170034
    26  C   -0.219052
    27  H    0.225876
    28  H    0.223673
    29  H    0.275646
    30  H    0.277500
    31  H    0.223816
    32  N    0.490026
    33  O   -0.462362
    34  O   -0.459066
 Sum of Mulliken charges =  -0.00000

 Dipole moment (field-independent basis, Debye):
    X=              0.1951    Y=              4.8933    Z=              1.5515  Tot=              5.1371
 Quadrupole moment (field-independent basis, Debye-Ang):
   XX=            -94.3852   YY=            -95.4777   ZZ=            -91.3837
   XY=             15.8828   XZ=              2.1689   YZ=             -1.0446

 Normal termination of Gaussian 16 at Wed May  5 20:15:56 2021.
