 Gaussian 16, Revision A.03,
 Gaussian 16:  EM64L-G16RevA.03 25-Dec-2016

 -------------
 #p 6-31g* mp2
 -------------

 ------------------------------------------------------
 Input file generated by CHIRIPA (05-May-2021 14:53:15)
 ------------------------------------------------------
 Symbolic Z-matrix:
 Charge =  0 Multiplicity = 1

                         Standard orientation:
 ---------------------------------------------------------------------
 Center     Atomic      Atomic             Coordinates (Angstroms)
 Number     Number       Type             X           Y           Z
 ---------------------------------------------------------------------
      1          6           0       -3.825619   -0.451251   -0.357821
      2          6           0       -4.587955   -1.502941    0.448887
      3          6           0       -4.483899   -2.902785   -0.157253
      4          1           0       -4.211459   -0.436624   -1.386343
      5          1           0       -2.768990   -0.745329   -0.424519
      6          1           0       -5.642562   -1.206260    0.515218
      7          1           0       -4.200385   -1.514933    1.475659
      8          1           0       -3.438426   -3.223663   -0.208483
      9          1           0       -4.888797   -2.913236   -1.174381
     10          1           0       -5.036063   -3.638904    0.435286
     11          6           0       -3.920192    0.953263    0.235581
     12          6           0       -3.157856    2.004953   -0.571127
     13          6           0       -3.261912    3.404796    0.035013
     14          1           0       -4.976820    1.247341    0.302279
     15          1           0       -3.534351    0.938635    1.264103
     16          1           0       -3.545425    2.016944   -1.597899
     17          1           0       -2.103248    1.708271   -0.637458
     18          1           0       -2.857013    3.415248    1.052141
     19          1           0       -4.307384    3.725675    0.086243
     20          1           0       -2.709747    4.140915   -0.557526
     21          6           0        0.544947   -0.575175    0.308624
     22          6           0        1.334440   -0.309406    1.432275
     23          6           0        2.709994   -0.097774    1.299580
     24          6           0        3.265538   -0.159451    0.022530
     25          6           0        2.505523   -0.422153   -1.116178
     26          6           0        1.131974   -0.630603   -0.959780
     27          1           0       -0.522838   -0.738340    0.420911
     28          1           0        0.881259   -0.265765    2.418565
     29          1           0        3.344642    0.109818    2.152543
     30          1           0        2.985856   -0.459370   -2.086391
     31          1           0        0.521303   -0.836808   -1.834197
     32          7           0        4.720714    0.062910   -0.130495
     33          8           0        5.186020    0.003264   -1.266528
     34          8           0        5.368423    0.292632    0.888495
 ---------------------------------------------------------------------

 SCF Done:  E(RHF) =  -669.535537600     A.U. after   15 cycles
 E2 =    -0.2091588184D+01 EUMP2 =    -0.67162712578362D+03

 The electronic state is 1-A.
 Alpha  occ. eigenvalues --  -20.60767 -20.60762 -15.85821 -11.31197 -11.27763
 Alpha  occ. eigenvalues --  -11.27758 -11.27493 -11.26786 -11.26775 -11.22592
 Alpha  occ. eigenvalues --  -11.22533 -11.22445 -11.22332 -11.21942 -11.21729
 Alpha  occ. eigenvalues --   -1.59842  -1.39396  -1.19368  -1.09424  -1.08762
 Alpha  occ. eigenvalues --   -1.04771  -1.04404  -0.96856  -0.95597  -0.87863
 Alpha  occ. eigenvalues --   -0.86168  -0.82430  -0.80473  -0.79250  -0.77471
 Alpha  occ. eigenvalues --   -0.72039  -0.71165  -0.70510  -0.66071  -0.65020
 Alpha  occ. eigenvalues --   -0.64767  -0.62117  -0.61803  -0.60217  -0.58466
 Alpha  occ. eigenvalues --   -0.56205  -0.55247  -0.53498  -0.53265  -0.53099
 Alpha  occ. eigenvalues --   -0.52862  -0.50800  -0.48803  -0.48793  -0.48776
 Alpha  occ. eigenvalues --   -0.47525  -0.46757  -0.46711  -0.44799  -0.44695
 Alpha  occ. eigenvalues --   -0.37344  -0.36374
 Alpha virt. eigenvalues --    0.05040   0.11260   0.16452   0.18550   0.22864
 Alpha virt. eigenvalues --    0.23477   0.24989   0.26118   0.27044   0.27512
 Alpha virt. eigenvalues --    0.30083   0.30381   0.30961   0.31281   0.32055

 Mulliken charges:
               1
     1  C   -0.302117
     2  C   -0.300230
     3  C   -0.475797
     4  H    0.154561
     5  H    0.138420
     6  H    0.156512
     7  H    0.150626
     8  H    0.151884
     9  H    0.157568
    10  H    0.164039
    11  C   -0.298954
    12  C   -0.301594
    13  C   -0.475787
    14  H    0.154281
    15  H    0.147326
    16  H    0.154055
    17  H    0.148888
    18  H    0.155286
    19  H    0.157096
    20  H    0.163636
    21  C   -0.177215
    22  C   -0.220158
    23  C   -0.170669
    24  C    0.158489
    25  C   -0.170853
    26  C   -0.221459
    27  H    0.235736
    28  H    0.223833
    29  H    0.275597
    30  H    0.275772
    31  H    0.223939
    32  N    0.487989
    33  O   -0.460337
    34  O   -0.460363
 Sum of Mulliken charges =  -0.00000

 Dipole moment (field-independent basis, Debye):
    X=             -5.3349    Y=             -0.7311    Z=              0.5191  Tot=              5.4097
 Quadrupole moment (field-independent basis, Debye-Ang):
   XX=           -127.0830   YY=            -95.9950   ZZ=            -89.5974
   XY=             -1.8994   XZ=              2.6704   YZ=              0.2003

 Normal termination of Gaussian 16 at Thu May  6 05:54:29 2021.
