 Gaussian 16, Revision A.03,
 Gaussian 16:  EM64L-G16RevA.03 25-Dec-2016

 -------------
 #p 6-31g* mp2
 -------------

 ------------------------------------------------------
 Input file generated by CHIRIPA (05-May-2021 14:51:12)
 ------------------------------------------------------
 Symbolic Z-matrix:
 Charge =  0 Multiplicity = 1

                         Standard orientation:
 ---------------------------------------------------------------------
 Center     Atomic      Atomic             Coordinates (Angstroms)
 Number     Number       Type             X           Y           Z
 ---------------------------------------------------------------------
      1          6           0        4.327679   -0.711782    0.147283
      2          6           0        5.741683   -0.793453   -0.428832
      3          6           0        6.297602   -2.217792   -0.431436
      4          1           0        4.332899   -1.106751    1.172425
      5          1           0        3.663411   -1.364577   -0.435814
      6          1           0        6.402797   -0.139635    0.154319
      7          1           0        5.733133   -0.398066   -1.452654
      8          1           0        5.661585   -2.878475   -1.029418
      9          1           0        6.335054   -2.618575    0.586686
     10          1           0        7.309338   -2.253112   -0.847370
     11          6           0        3.758253    0.705749    0.156610
     12          6           0        2.344249    0.787421    0.732725
     13          6           0        1.788330    2.211760    0.735329
     14          1           0        4.422521    1.358544    0.739707
     15          1           0        3.753032    1.100719   -0.868532
     16          1           0        2.352799    0.392034    1.756547
     17          1           0        1.683135    0.133602    0.149574
     18          1           0        1.750878    2.612542   -0.282793
     19          1           0        2.424346    2.872442    1.333311
     20          1           0        0.776594    2.247080    1.151263
     21          6           0       -4.744559   -0.297981   -0.176458
     22          6           0       -4.800228   -1.746567    0.309841
     23          6           0       -6.210447   -2.334827    0.254831
     24          1           0       -5.422567    0.313529    0.434529
     25          1           0       -5.123071   -0.249653   -1.206889
     26          1           0       -4.420429   -1.792360    1.338564
     27          1           0       -4.121864   -2.354664   -0.302250
     28          1           0       -6.595019   -2.318353   -0.770077
     29          1           0       -6.895280   -1.752854    0.880061
     30          1           0       -6.227226   -3.370995    0.606871
     31          6           0       -3.341374    0.304014   -0.127435
     32          6           0       -3.285704    1.752599   -0.613733
     33          6           0       -1.875485    2.340859   -0.558724
     34          1           0       -2.962861    0.255685    0.902996
     35          1           0       -2.663365   -0.307497   -0.738421
     36          1           0       -3.964069    2.360696   -0.001642
     37          1           0       -3.665504    1.798392   -1.642456
     38          1           0       -1.190652    1.758887   -1.183954
     39          1           0       -1.490914    2.324386    0.466184
     40          1           0       -1.858705    3.377028   -0.910763
 ---------------------------------------------------------------------

 SCF Done:  E(RHF) =  -470.732914105     A.U. after   11 cycles
 E2 =    -0.1582504674D+01 EUMP2 =    -0.47231541877899D+03

 The electronic state is 1-A.
 Alpha  occ. eigenvalues --  -11.21602 -11.21584 -11.21580 -11.21536 -11.21406
 Alpha  occ. eigenvalues --  -11.21368 -11.21347 -11.21307 -11.21072 -11.21055
 Alpha  occ. eigenvalues --  -11.21036 -11.20931  -1.08429  -1.08386  -1.03539
 Alpha  occ. eigenvalues --   -1.03465  -0.96019  -0.95883  -0.87069  -0.86868
 Alpha  occ. eigenvalues --   -0.79639  -0.79492  -0.78242  -0.78201  -0.65061
 Alpha  occ. eigenvalues --   -0.65019  -0.60939  -0.60875  -0.59379  -0.59296
 Alpha  occ. eigenvalues --   -0.57708  -0.57424  -0.55275  -0.55211  -0.52851
 Alpha  occ. eigenvalues --   -0.52637  -0.52396  -0.52149  -0.49908  -0.49862
 Alpha  occ. eigenvalues --   -0.47963  -0.47775  -0.46615  -0.46575  -0.45779
 Alpha  occ. eigenvalues --   -0.45744  -0.45705  -0.45669  -0.43790  -0.43688
 Alpha virt. eigenvalues --    0.21985   0.23024   0.23518   0.24920   0.26118
 Alpha virt. eigenvalues --    0.26583   0.27117   0.27472   0.27716   0.29112
 Alpha virt. eigenvalues --    0.29490   0.31352   0.31759   0.32027   0.32172

 Mulliken charges:
               1
     1  C   -0.298171
     2  C   -0.299605
     3  C   -0.475667
     4  H    0.149563
     5  H    0.149321
     6  H    0.151903
     7  H    0.151858
     8  H    0.155093
     9  H    0.155146
    10  H    0.160170
    11  C   -0.298358
    12  C   -0.299932
    13  C   -0.478003
    14  H    0.149453
    15  H    0.149465
    16  H    0.151348
    17  H    0.151901
    18  H    0.155623
    19  H    0.153718
    20  H    0.164733
    21  C   -0.298241
    22  C   -0.299639
    23  C   -0.475707
    24  H    0.149669
    25  H    0.149522
    26  H    0.151962
    27  H    0.151886
    28  H    0.155166
    29  H    0.155188
    30  H    0.160260
    31  C   -0.298108
    32  C   -0.300260
    33  C   -0.476794
    34  H    0.149290
    35  H    0.149369
    36  H    0.151807
    37  H    0.151678
    38  H    0.155632
    39  H    0.157417
    40  H    0.160345
 Sum of Mulliken charges =  -0.00000

 Dipole moment (field-independent basis, Debye):
    X=             -0.0200    Y=              0.0167    Z=             -0.0021  Tot=              0.0261
 Quadrupole moment (field-independent basis, Debye-Ang):
   XX=            -85.9939   YY=            -85.9213   ZZ=            -82.9842
   XY=             -0.0341   XZ=              0.2274   YZ=              0.3990

 Normal termination of Gaussian 16 at Wed May  5 15:17:38 2021.
