 Gaussian 16, Revision A.03,
 Gaussian 16:  EM64L-G16RevA.03 25-Dec-2016

 -------------
 #p 6-31g* mp2
 -------------

 ------------------------------------------------------
 Input file generated by CHIRIPA (05-May-2021 14:53:18)
 ------------------------------------------------------
 Symbolic Z-matrix:
 Charge =  0 Multiplicity = 1

                         Standard orientation:
 ---------------------------------------------------------------------
 Center     Atomic      Atomic             Coordinates (Angstroms)
 Number     Number       Type             X           Y           Z
 ---------------------------------------------------------------------
      1          6           0       -3.313492    0.868906   -0.442042
      2          6           0       -1.934177    1.526486   -0.386694
      3          6           0       -1.972122    3.011230   -0.749859
      4          1           0       -3.730401    0.990477   -1.451176
      5          1           0       -3.991701    1.397457    0.242108
      6          1           0       -1.258401    0.995986   -1.069712
      7          1           0       -1.520421    1.403168    0.622372
      8          1           0       -2.624209    3.559469   -0.062241
      9          1           0       -2.360701    3.149973   -1.763939
     10          1           0       -0.975572    3.461376   -0.703866
     11          6           0       -3.291885   -0.615437   -0.081504
     12          6           0       -4.671200   -1.273017   -0.136852
     13          6           0       -4.633254   -2.757762    0.226312
     14          1           0       -2.613676   -1.143989   -0.765654
     15          1           0       -2.874975   -0.737008    0.927630
     16          1           0       -5.084956   -1.149700   -1.145918
     17          1           0       -5.346975   -0.742517    0.546166
     18          1           0       -4.244676   -2.896504    1.240392
     19          1           0       -3.981168   -3.306000   -0.461306
     20          1           0       -5.629805   -3.207908    0.180319
     21          6           0        3.861608   -2.008124   -0.834368
     22          6           0        3.046048   -2.236208    0.278897
     23          6           0        2.331494   -1.185905    0.862700
     24          6           0        2.456346    0.085555    0.304945
     25          6           0        3.260721    0.344604   -0.803732
     26          6           0        3.966158   -0.720716   -1.371184
     27          1           0        4.413150   -2.829857   -1.281529
     28          1           0        2.962940   -3.234989    0.697914
     29          1           0        1.692890   -1.334418    1.724992
     30          1           0        3.323406    1.351169   -1.199099
     31          1           0        4.598775   -0.540642   -2.235714
     32          7           0        1.704706    1.205412    0.914336
     33          8           0        1.831721    2.316341    0.404101
     34          8           0        1.002787    0.951022    1.890672
 ---------------------------------------------------------------------

 SCF Done:  E(RHF) =  -669.536670433     A.U. after   15 cycles
 E2 =    -0.2092030339D+01 EUMP2 =    -0.67162870077185D+03

 The electronic state is 1-A.
 Alpha  occ. eigenvalues --  -20.60981 -20.60969 -15.85986 -11.31289 -11.27849
 Alpha  occ. eigenvalues --  -11.27844 -11.27585 -11.26851 -11.26841 -11.21190
 Alpha  occ. eigenvalues --  -11.20818 -11.20810 -11.20589 -11.20428 -11.19818
 Alpha  occ. eigenvalues --   -1.60016  -1.39576  -1.19453  -1.08861  -1.07728
 Alpha  occ. eigenvalues --   -1.04847  -1.02769  -0.95708  -0.95237  -0.86265
 Alpha  occ. eigenvalues --   -0.86246  -0.82545  -0.78886  -0.77601  -0.77512
 Alpha  occ. eigenvalues --   -0.72213  -0.71311  -0.70564  -0.65111  -0.64851
 Alpha  occ. eigenvalues --   -0.64364  -0.62194  -0.60173  -0.58639  -0.56807
 Alpha  occ. eigenvalues --   -0.55353  -0.54552  -0.53176  -0.52939  -0.51903
 Alpha  occ. eigenvalues --   -0.51670  -0.49229  -0.48977  -0.48962  -0.47198
 Alpha  occ. eigenvalues --   -0.45957  -0.45276  -0.45042  -0.44564  -0.43014
 Alpha  occ. eigenvalues --   -0.37427  -0.36446
 Alpha virt. eigenvalues --    0.04879   0.11210   0.16349   0.21333   0.23516
 Alpha virt. eigenvalues --    0.25106   0.27232   0.27342   0.27914   0.28462
 Alpha virt. eigenvalues --    0.28719   0.30906   0.32040   0.32326   0.32531

 Mulliken charges:
               1
     1  C   -0.297163
     2  C   -0.308670
     3  C   -0.478896
     4  H    0.145630
     5  H    0.149282
     6  H    0.140747
     7  H    0.174147
     8  H    0.152822
     9  H    0.146558
    10  H    0.175412
    11  C   -0.298068
    12  C   -0.298879
    13  C   -0.475170
    14  H    0.144918
    15  H    0.152036
    16  H    0.150650
    17  H    0.152358
    18  H    0.154454
    19  H    0.152447
    20  H    0.158956
    21  C   -0.170516
    22  C   -0.218654
    23  C   -0.170220
    24  C    0.159085
    25  C   -0.170863
    26  C   -0.218675
    27  H    0.226001
    28  H    0.223926
    29  H    0.275857
    30  H    0.275795
    31  H    0.223792
    32  N    0.490061
    33  O   -0.459823
    34  O   -0.459336
 Sum of Mulliken charges =  -0.00000

 Dipole moment (field-independent basis, Debye):
    X=              2.9066    Y=             -3.8641    Z=             -1.9940  Tot=              5.2303
 Quadrupole moment (field-independent basis, Debye-Ang):
   XX=            -82.2763   YY=            -94.9746   ZZ=            -93.4004
   XY=             -8.5920   XZ=             -6.6426   YZ=             -3.1349

 Normal termination of Gaussian 16 at Wed May  5 22:04:03 2021.
