 Gaussian 16, Revision A.03,
 Gaussian 16:  EM64L-G16RevA.03 25-Dec-2016

 -------------
 #p 6-31g* mp2
 -------------

 ------------------------------------------------------
 Input file generated by CHIRIPA (05-May-2021 14:51:08)
 ------------------------------------------------------
 Symbolic Z-matrix:
 Charge =  0 Multiplicity = 1

                         Standard orientation:
 ---------------------------------------------------------------------
 Center     Atomic      Atomic             Coordinates (Angstroms)
 Number     Number       Type             X           Y           Z
 ---------------------------------------------------------------------
      1          6           0       -2.852012   -0.965872    0.158684
      2          6           0       -1.689392   -1.958947    0.148547
      3          6           0       -2.128549   -3.386616    0.475189
      4          1           0       -3.334422   -0.985913    1.145509
      5          1           0       -3.610219   -1.292254   -0.566570
      6          1           0       -0.932972   -1.630038    0.872608
      7          1           0       -1.209574   -1.936400   -0.838308
      8          1           0       -2.866496   -3.738763   -0.252841
      9          1           0       -2.588323   -3.430661    1.467796
     10          1           0       -1.281799   -4.079951    0.462446
     11          6           0       -2.428845    0.465631   -0.166059
     12          6           0       -3.591465    1.458706   -0.155923
     13          6           0       -3.152308    2.886375   -0.482564
     14          1           0       -1.670639    0.792013    0.559195
     15          1           0       -1.946436    0.485672   -1.152884
     16          1           0       -4.071283    1.436159    0.830932
     17          1           0       -4.347885    1.129797   -0.879984
     18          1           0       -2.692535    2.930420   -1.475171
     19          1           0       -2.414361    3.238523    0.245466
     20          1           0       -3.999058    3.579710   -0.469821
     21          6           0        2.928478   -0.355466   -0.361995
     22          6           0        2.378935   -1.688687    0.146443
     23          6           0        2.964653   -2.890820   -0.594909
     24          1           0        2.716546   -0.264485   -1.436124
     25          1           0        4.022363   -0.354146   -0.258021
     26          1           0        1.286288   -1.686950    0.042824
     27          1           0        2.592032   -1.776420    1.219527
     28          1           0        4.053147   -2.920495   -0.481328
     29          1           0        2.739985   -2.830517   -1.664717
     30          1           0        2.558136   -3.833499   -0.215487
     31          6           0        2.352379    0.855707    0.369370
     32          6           0        2.901923    2.188928   -0.139068
     33          6           0        2.316204    3.391061    0.602285
     34          1           0        1.258494    0.854387    0.265396
     35          1           0        2.564312    0.764726    1.443499
     36          1           0        2.688826    2.276660   -1.212152
     37          1           0        3.994569    2.187191   -0.035449
     38          1           0        2.540872    3.330758    1.672092
     39          1           0        1.227710    3.420736    0.488703
     40          1           0        2.722722    4.333740    0.222862
 ---------------------------------------------------------------------

 SCF Done:  E(RHF) =  -470.732995123     A.U. after   11 cycles
 E2 =    -0.1583950185D+01 EUMP2 =    -0.47231694530776D+03

 The electronic state is 1-A.
 Alpha  occ. eigenvalues --  -11.21666 -11.21658 -11.21562 -11.21484 -11.21442
 Alpha  occ. eigenvalues --  -11.21420 -11.21340 -11.21279 -11.21129 -11.21122
 Alpha  occ. eigenvalues --  -11.21045 -11.21014  -1.08512  -1.08360  -1.03609
 Alpha  occ. eigenvalues --   -1.03457  -0.96044  -0.95922  -0.87063  -0.86937
 Alpha  occ. eigenvalues --   -0.79770  -0.79456  -0.78439  -0.78068  -0.65150
 Alpha  occ. eigenvalues --   -0.64983  -0.61005  -0.60880  -0.59468  -0.59236
 Alpha  occ. eigenvalues --   -0.57714  -0.57475  -0.55332  -0.55205  -0.52741
 Alpha  occ. eigenvalues --   -0.52612  -0.52497  -0.52325  -0.49999  -0.49858
 Alpha  occ. eigenvalues --   -0.48252  -0.47690  -0.46744  -0.46489  -0.46284
 Alpha  occ. eigenvalues --   -0.45804  -0.45692  -0.45092  -0.43844  -0.43714
 Alpha virt. eigenvalues --    0.20948   0.22563   0.23510   0.24580   0.25311
 Alpha virt. eigenvalues --    0.26308   0.26706   0.27173   0.28803   0.29740
 Alpha virt. eigenvalues --    0.30708   0.31119   0.31483   0.31740   0.32306

 Mulliken charges:
               1
     1  C   -0.297161
     2  C   -0.305438
     3  C   -0.475928
     4  H    0.149965
     5  H    0.149726
     6  H    0.156938
     7  H    0.152122
     8  H    0.155408
     9  H    0.155460
    10  H    0.160863
    11  C   -0.301691
    12  C   -0.299568
    13  C   -0.476167
    14  H    0.152169
    15  H    0.149269
    16  H    0.152337
    17  H    0.152281
    18  H    0.155156
    19  H    0.155307
    20  H    0.160773
    21  C   -0.297099
    22  C   -0.310987
    23  C   -0.474971
    24  H    0.148956
    25  H    0.149024
    26  H    0.165627
    27  H    0.150319
    28  H    0.154856
    29  H    0.154505
    30  H    0.159371
    31  C   -0.302569
    32  C   -0.299245
    33  C   -0.476069
    34  H    0.153375
    35  H    0.148906
    36  H    0.151921
    37  H    0.151861
    38  H    0.154813
    39  H    0.155320
    40  H    0.160263
 Sum of Mulliken charges =  -0.00000

 Dipole moment (field-independent basis, Debye):
    X=             -0.0820    Y=             -0.0075    Z=              0.0065  Tot=              0.0826
 Quadrupole moment (field-independent basis, Debye-Ang):
   XX=            -84.4249   YY=            -86.8918   ZZ=            -83.5575
   XY=              0.2022   XZ=              0.8381   YZ=             -0.0806

 Normal termination of Gaussian 16 at Thu May  6 03:42:19 2021.
