 Gaussian 16, Revision A.03,
 Gaussian 16:  EM64L-G16RevA.03 25-Dec-2016

 -------------
 #p 6-31g* mp2
 -------------

 ------------------------------------------------------
 Input file generated by CHIRIPA (05-May-2021 14:51:09)
 ------------------------------------------------------
 Symbolic Z-matrix:
 Charge =  0 Multiplicity = 1

                         Standard orientation:
 ---------------------------------------------------------------------
 Center     Atomic      Atomic             Coordinates (Angstroms)
 Number     Number       Type             X           Y           Z
 ---------------------------------------------------------------------
      1          6           0        2.837356   -0.277977    0.425187
      2          6           0        2.686009   -1.786105    0.626750
      3          6           0        1.278943   -2.184607    1.073018
      4          1           0        2.588753    0.237625    1.362895
      5          1           0        2.105355    0.060444   -0.321165
      6          1           0        3.419010   -2.121809    1.371484
      7          1           0        2.935187   -2.298187   -0.311492
      8          1           0        0.537253   -1.877563    0.328558
      9          1           0        1.023825   -1.700183    2.021095
     10          1           0        1.193027   -3.266919    1.211145
     11          6           0        4.238524    0.135991   -0.021007
     12          6           0        4.389871    1.644119   -0.222570
     13          6           0        5.796937    2.042621   -0.668838
     14          1           0        4.970525   -0.202430    0.725345
     15          1           0        4.487127   -0.379610   -0.958715
     16          1           0        4.140693    2.156202    0.715672
     17          1           0        3.656870    1.979823   -0.967304
     18          1           0        6.052055    1.558197   -1.616915
     19          1           0        6.538627    1.735578    0.075622
     20          1           0        5.882853    3.124933   -0.806965
     21          6           0       -3.548741    0.832222   -0.264091
     22          6           0       -4.679319    1.489171    0.528499
     23          6           0       -4.687743    3.012248    0.394496
     24          1           0       -2.586417    1.237146    0.077837
     25          1           0       -3.644980    1.107498   -1.323504
     26          1           0       -4.581779    1.211616    1.585885
     27          1           0       -5.639051    1.082496    0.184777
     28          1           0       -4.808444    3.306133   -0.653198
     29          1           0       -3.745165    3.435987    0.755871
     30          1           0       -5.503926    3.461302    0.969003
     31          6           0       -3.527139   -0.690237   -0.140089
     32          6           0       -2.396562   -1.347185   -0.932679
     33          6           0       -2.388136   -2.870263   -0.798676
     34          1           0       -3.430900   -0.965512    0.919325
     35          1           0       -4.489463   -1.095160   -0.482016
     36          1           0       -1.436829   -0.940510   -0.588957
     37          1           0       -2.494102   -1.069630   -1.990065
     38          1           0       -3.330716   -3.294001   -1.160050
     39          1           0       -2.267436   -3.164148    0.249018
     40          1           0       -1.571954   -3.319316   -1.373182
 ---------------------------------------------------------------------

 SCF Done:  E(RHF) =  -470.733208572     A.U. after   11 cycles
 E2 =    -0.1582775708D+01 EUMP2 =    -0.47231598427979D+03

 The electronic state is 1-A.
 Alpha  occ. eigenvalues --  -11.21610 -11.21606 -11.21589 -11.21587 -11.21420
 Alpha  occ. eigenvalues --  -11.21389 -11.21360 -11.21329 -11.21077 -11.21061
 Alpha  occ. eigenvalues --  -11.21045 -11.21035  -1.08445  -1.08412  -1.03560
 Alpha  occ. eigenvalues --   -1.03494  -0.96017  -0.95931  -0.87014  -0.86966
 Alpha  occ. eigenvalues --   -0.79626  -0.79558  -0.78272  -0.78215  -0.65131
 Alpha  occ. eigenvalues --   -0.65001  -0.61109  -0.60774  -0.59356  -0.59331
 Alpha  occ. eigenvalues --   -0.57649  -0.57528  -0.55410  -0.55104  -0.52695
 Alpha  occ. eigenvalues --   -0.52634  -0.52405  -0.52386  -0.49930  -0.49897
 Alpha  occ. eigenvalues --   -0.48018  -0.47820  -0.46757  -0.46493  -0.45872
 Alpha  occ. eigenvalues --   -0.45757  -0.45730  -0.45550  -0.43797  -0.43761
 Alpha virt. eigenvalues --    0.21342   0.23067   0.23573   0.24888   0.26012
 Alpha virt. eigenvalues --    0.26792   0.27214   0.27466   0.28034   0.29006
 Alpha virt. eigenvalues --    0.30634   0.31157   0.31733   0.31872   0.32238

 Mulliken charges:
               1
     1  C   -0.298514
     2  C   -0.299334
     3  C   -0.484145
     4  H    0.149416
     5  H    0.149198
     6  H    0.151903
     7  H    0.151927
     8  H    0.164638
     9  H    0.154278
    10  H    0.160715
    11  C   -0.298264
    12  C   -0.299701
    13  C   -0.475718
    14  H    0.149622
    15  H    0.149750
    16  H    0.151857
    17  H    0.152038
    18  H    0.155224
    19  H    0.155183
    20  H    0.160292
    21  C   -0.298543
    22  C   -0.299651
    23  C   -0.475721
    24  H    0.149972
    25  H    0.149331
    26  H    0.152004
    27  H    0.151898
    28  H    0.155111
    29  H    0.155229
    30  H    0.160211
    31  C   -0.297768
    32  C   -0.305505
    33  C   -0.475982
    34  H    0.150005
    35  H    0.149611
    36  H    0.155630
    37  H    0.151735
    38  H    0.155027
    39  H    0.157023
    40  H    0.160017
 Sum of Mulliken charges =  -0.00000

 Dipole moment (field-independent basis, Debye):
    X=             -0.0040    Y=             -0.0096    Z=              0.0027  Tot=              0.0107
 Quadrupole moment (field-independent basis, Debye-Ang):
   XX=            -85.3104   YY=            -86.1878   ZZ=            -83.2784
   XY=             -0.1719   XZ=              1.0529   YZ=              0.3073

 Normal termination of Gaussian 16 at Thu May  6 02:10:15 2021.
