 Gaussian 16, Revision A.03,
 Gaussian 16:  EM64L-G16RevA.03 25-Dec-2016

 -------------
 #p 6-31g* mp2
 -------------

 ------------------------------------------------------
 Input file generated by CHIRIPA (05-May-2021 14:53:11)
 ------------------------------------------------------
 Symbolic Z-matrix:
 Charge =  0 Multiplicity = 1

                         Standard orientation:
 ---------------------------------------------------------------------
 Center     Atomic      Atomic             Coordinates (Angstroms)
 Number     Number       Type             X           Y           Z
 ---------------------------------------------------------------------
      1          6           0       -3.863412    0.726761   -0.649615
      2          6           0       -2.738409    1.482005    0.058876
      3          6           0       -2.033257    2.485215   -0.854428
      4          1           0       -3.451470    0.203022   -1.523083
      5          1           0       -4.595074    1.450163   -1.035302
      6          1           0       -2.009793    0.757317    0.444315
      7          1           0       -3.153042    2.003852    0.930869
      8          1           0       -2.742775    3.230185   -1.228868
      9          1           0       -1.593031    1.976567   -1.718187
     10          1           0       -1.232668    3.013874   -0.327704
     11          6           0       -4.577878   -0.279814    0.250425
     12          6           0       -5.702880   -1.035059   -0.458066
     13          6           0       -6.408033   -2.038269    0.455237
     14          1           0       -3.846215   -1.003216    0.636112
     15          1           0       -4.989820    0.243925    1.123893
     16          1           0       -5.288248   -1.556905   -1.330059
     17          1           0       -6.431496   -0.310371   -0.843505
     18          1           0       -6.848259   -1.529621    1.318996
     19          1           0       -5.698514   -2.783238    0.829678
     20          1           0       -7.208621   -2.566928   -0.071486
     21          6           0        5.426530   -0.791463   -1.049098
     22          6           0        4.218077   -0.728858   -1.750696
     23          6           0        3.032224   -0.388131   -1.093271
     24          6           0        3.091540   -0.114952    0.272432
     25          6           0        4.279956   -0.168903    0.999101
     26          6           0        5.453566   -0.511779    0.321146
     27          1           0        6.342974   -1.056983   -1.567775
     28          1           0        4.194087   -0.945557   -2.814891
     29          1           0        2.082917   -0.332231   -1.612028
     30          1           0        4.272313    0.052451    2.059461
     31          1           0        6.390625   -0.559621    0.868574
     32          7           0        1.842611    0.246898    0.979285
     33          8           0        1.921511    0.483065    2.182878
     34          8           0        0.808449    0.287498    0.316339
 ---------------------------------------------------------------------

 SCF Done:  E(RHF) =  -669.536197856     A.U. after   15 cycles
 E2 =    -0.2091123083D+01 EUMP2 =    -0.67162732093846D+03

 The electronic state is 1-A.
 Alpha  occ. eigenvalues --  -20.60994 -20.60980 -15.86020 -11.31323 -11.27884
 Alpha  occ. eigenvalues --  -11.27880 -11.27618 -11.26887 -11.26877 -11.20883
 Alpha  occ. eigenvalues --  -11.20468 -11.20439 -11.20263 -11.19977 -11.19724
 Alpha  occ. eigenvalues --   -1.60048  -1.39604  -1.19489  -1.08897  -1.07380
 Alpha  occ. eigenvalues --   -1.04883  -1.02443  -0.95743  -0.94946  -0.86284
 Alpha  occ. eigenvalues --   -0.85979  -0.82577  -0.78549  -0.77632  -0.77133
 Alpha  occ. eigenvalues --   -0.72247  -0.71360  -0.70598  -0.65148  -0.64886
 Alpha  occ. eigenvalues --   -0.64009  -0.62230  -0.59828  -0.58344  -0.56521
 Alpha  occ. eigenvalues --   -0.55387  -0.54253  -0.53215  -0.52974  -0.51653
 Alpha  occ. eigenvalues --   -0.51375  -0.49062  -0.48990  -0.48885  -0.46857
 Alpha  occ. eigenvalues --   -0.45574  -0.45015  -0.44712  -0.44500  -0.42717
 Alpha  occ. eigenvalues --   -0.37467  -0.36483
 Alpha virt. eigenvalues --    0.04895   0.11173   0.16394   0.21281   0.23838
 Alpha virt. eigenvalues --    0.25302   0.27205   0.27612   0.28196   0.28611
 Alpha virt. eigenvalues --    0.28993   0.30882   0.32139   0.32662   0.32827

 Mulliken charges:
               1
     1  C   -0.297254
     2  C   -0.307909
     3  C   -0.469831
     4  H    0.145710
     5  H    0.144134
     6  H    0.179975
     7  H    0.146564
     8  H    0.145654
     9  H    0.149802
    10  H    0.163365
    11  C   -0.297872
    12  C   -0.298627
    13  C   -0.475091
    14  H    0.151912
    15  H    0.148556
    16  H    0.149690
    17  H    0.149989
    18  H    0.154648
    19  H    0.154822
    20  H    0.157360
    21  C   -0.170529
    22  C   -0.218531
    23  C   -0.170697
    24  C    0.157533
    25  C   -0.170440
    26  C   -0.218607
    27  H    0.226108
    28  H    0.223947
    29  H    0.275679
    30  H    0.275928
    31  H    0.223910
    32  N    0.491863
    33  O   -0.458770
    34  O   -0.462989
 Sum of Mulliken charges =  -0.00000

 Dipole moment (field-independent basis, Debye):
    X=              4.7834    Y=             -1.3400    Z=             -2.3655  Tot=              5.5020
 Quadrupole moment (field-independent basis, Debye-Ang):
   XX=            -67.9259   YY=            -95.8629   ZZ=            -92.9611
   XY=             -5.0952   XZ=             -4.3688   YZ=              1.2669

 Normal termination of Gaussian 16 at Thu May  6 00:54:48 2021.
