 Gaussian 16, Revision A.03,
 Gaussian 16:  EM64L-G16RevA.03 25-Dec-2016

 -------------
 #p 6-31g* mp2
 -------------

 ------------------------------------------------------
 Input file generated by CHIRIPA (05-May-2021 14:53:12)
 ------------------------------------------------------
 Symbolic Z-matrix:
 Charge =  0 Multiplicity = 1

                         Standard orientation:
 ---------------------------------------------------------------------
 Center     Atomic      Atomic             Coordinates (Angstroms)
 Number     Number       Type             X           Y           Z
 ---------------------------------------------------------------------
      1          6           0       -5.104277   -0.190099    0.199798
      2          6           0       -5.389110   -1.606264   -0.301531
      3          6           0       -6.780958   -2.103295    0.090276
      4          1           0       -5.209094   -0.167019    1.293153
      5          1           0       -5.865191    0.493454   -0.201649
      6          1           0       -4.627081   -2.286707    0.099624
      7          1           0       -5.283415   -1.626020   -1.393801
      8          1           0       -7.554493   -1.447821   -0.322761
      9          1           0       -6.894430   -2.112263    1.179149
     10          1           0       -6.963509   -3.117570   -0.278209
     11          6           0       -3.716683    0.320786   -0.184011
     12          6           0       -3.431850    1.736951    0.317318
     13          6           0       -2.040002    2.233982   -0.074489
     14          1           0       -2.955769   -0.362767    0.217437
     15          1           0       -3.611866    0.297706   -1.277366
     16          1           0       -3.537545    1.756707    1.409589
     17          1           0       -4.193879    2.417394   -0.083836
     18          1           0       -1.926530    2.242950   -1.163362
     19          1           0       -1.266468    1.578508    0.338548
     20          1           0       -1.857451    3.248257    0.293996
     21          6           0        5.525869   -1.473681    0.115851
     22          6           0        5.009027   -1.094573   -1.127399
     23          6           0        3.857027   -0.306469   -1.206992
     24          6           0        3.244583    0.086486   -0.017963
     25          6           0        3.735269   -0.274989    1.235773
     26          6           0        4.888465   -1.063403    1.291397
     27          1           0        6.421234   -2.086020    0.168370
     28          1           0        5.501951   -1.411738   -2.041991
     29          1           0        3.435502    0.001353   -2.156192
     30          1           0        3.221855    0.056591    2.130131
     31          1           0        5.287607   -1.356321    2.258314
     32          7           0        2.024380    0.920980   -0.089538
     33          8           0        1.503427    1.254158    0.972648
     34          8           0        1.612043    1.226076   -1.206466
 ---------------------------------------------------------------------

 SCF Done:  E(RHF) =  -669.536272156     A.U. after   15 cycles
 E2 =    -0.2091261736D+01 EUMP2 =    -0.67162753389185D+03

 The electronic state is 1-A.
 Alpha  occ. eigenvalues --  -20.60981 -20.60976 -15.85994 -11.31318 -11.27877
 Alpha  occ. eigenvalues --  -11.27873 -11.27613 -11.26881 -11.26872 -11.20965
 Alpha  occ. eigenvalues --  -11.20565 -11.20560 -11.20303 -11.20199 -11.19006
 Alpha  occ. eigenvalues --   -1.60025  -1.39582  -1.19482  -1.08886  -1.07451
 Alpha  occ. eigenvalues --   -1.04877  -1.02433  -0.95729  -0.94840  -0.86277
 Alpha  occ. eigenvalues --   -0.85845  -0.82561  -0.78543  -0.77617  -0.77197
 Alpha  occ. eigenvalues --   -0.72202  -0.71340  -0.70590  -0.65136  -0.64879
 Alpha  occ. eigenvalues --   -0.64096  -0.62223  -0.59836  -0.58330  -0.56453
 Alpha  occ. eigenvalues --   -0.55384  -0.54129  -0.53209  -0.52968  -0.51530
 Alpha  occ. eigenvalues --   -0.51283  -0.49185  -0.48957  -0.48564  -0.46777
 Alpha  occ. eigenvalues --   -0.45593  -0.44999  -0.44719  -0.44595  -0.42698
 Alpha  occ. eigenvalues --   -0.37460  -0.36477
 Alpha virt. eigenvalues --    0.04896   0.11178   0.16396   0.21318   0.23756
 Alpha virt. eigenvalues --    0.25485   0.27234   0.27590   0.28190   0.28408
 Alpha virt. eigenvalues --    0.29297   0.30881   0.32392   0.32571   0.32658

 Mulliken charges:
               1
     1  C   -0.297273
     2  C   -0.298719
     3  C   -0.475074
     4  H    0.147908
     5  H    0.147827
     6  H    0.150420
     7  H    0.150986
     8  H    0.154452
     9  H    0.154166
    10  H    0.157816
    11  C   -0.296729
    12  C   -0.300624
    13  C   -0.478010
    14  H    0.148895
    15  H    0.148512
    16  H    0.147640
    17  H    0.145527
    18  H    0.153563
    19  H    0.177330
    20  H    0.155120
    21  C   -0.170540
    22  C   -0.218589
    23  C   -0.170770
    24  C    0.158987
    25  C   -0.170818
    26  C   -0.218564
    27  H    0.226074
    28  H    0.223926
    29  H    0.275987
    30  H    0.275788
    31  H    0.223880
    32  N    0.487988
    33  O   -0.459404
    34  O   -0.457678
 Sum of Mulliken charges =  -0.00000

 Dipole moment (field-independent basis, Debye):
    X=              4.7286    Y=             -2.9306    Z=              0.2372  Tot=              5.5682
 Quadrupole moment (field-independent basis, Debye-Ang):
   XX=            -69.7067   YY=            -96.5114   ZZ=            -89.0468
   XY=            -10.0569   XZ=              1.0239   YZ=             -0.1223

 Normal termination of Gaussian 16 at Thu May  6 13:39:36 2021.
