 Gaussian 16, Revision A.03,
 Gaussian 16:  EM64L-G16RevA.03 25-Dec-2016

 -------------
 #p 6-31g* mp2
 -------------

 ------------------------------------------------------
 Input file generated by CHIRIPA (05-May-2021 14:51:13)
 ------------------------------------------------------
 Symbolic Z-matrix:
 Charge =  0 Multiplicity = 1

                         Standard orientation:
 ---------------------------------------------------------------------
 Center     Atomic      Atomic             Coordinates (Angstroms)
 Number     Number       Type             X           Y           Z
 ---------------------------------------------------------------------
      1          6           0        2.819580   -0.066758   -0.112985
      2          6           0        2.150798   -1.400937   -0.445676
      3          6           0        3.157262   -2.537302   -0.628700
      4          1           0        3.525411    0.192144   -0.914058
      5          1           0        3.415093   -0.181494    0.803309
      6          1           0        1.555613   -1.283352   -1.360304
      7          1           0        1.446335   -1.656599    0.356188
      8          1           0        3.743533   -2.683432    0.284280
      9          1           0        3.853432   -2.308065   -1.441965
     10          1           0        2.657663   -3.481764   -0.865877
     11          6           0        1.826422    1.079017    0.072932
     12          6           0        2.495204    2.413196    0.405623
     13          6           0        1.488740    3.549560    0.588647
     14          1           0        1.230909    1.193752   -0.843362
     15          1           0        1.120591    0.820115    0.874005
     16          1           0        3.199667    2.668857   -0.396241
     17          1           0        3.090389    2.295611    1.320251
     18          1           0        0.792571    3.320323    1.401912
     19          1           0        0.902469    3.695690   -0.324333
     20          1           0        1.988339    4.494022    0.825824
     21          6           0       -2.209117   -1.075362    0.516450
     22          6           0       -1.625980   -2.333749   -0.127290
     23          6           0       -1.403820   -3.463656    0.878566
     24          1           0       -1.534332   -0.732089    1.312548
     25          1           0       -3.162000   -1.328104    1.001765
     26          1           0       -0.675160   -2.078417   -0.612433
     27          1           0       -2.302137   -2.673957   -0.922078
     28          1           0       -2.348151   -3.746794    1.354670
     29          1           0       -0.711930   -3.147870    1.666074
     30          1           0       -0.986461   -4.353500    0.397059
     31          6           0       -2.436885    0.063104   -0.476396
     32          6           0       -3.020023    1.321490    0.167344
     33          6           0       -3.242182    2.451398   -0.838514
     34          1           0       -1.484002    0.315845   -0.961712
     35          1           0       -3.111670   -0.280170   -1.272495
     36          1           0       -2.343866    1.661698    0.962131
     37          1           0       -3.970842    1.066158    0.652486
     38          1           0       -3.934072    2.135611   -1.626021
     39          1           0       -2.297852    2.734536   -1.314616
     40          1           0       -3.659541    3.341241   -0.357006
 ---------------------------------------------------------------------

 SCF Done:  E(RHF) =  -470.732497626     A.U. after   11 cycles
 E2 =    -0.1585233931D+01 EUMP2 =    -0.47231773155703D+03

 The electronic state is 1-A.
 Alpha  occ. eigenvalues --  -11.21695 -11.21688 -11.21534 -11.21522 -11.21455
 Alpha  occ. eigenvalues --  -11.21403 -11.21315 -11.21256 -11.21152 -11.21140
 Alpha  occ. eigenvalues --  -11.21026 -11.21022  -1.08558  -1.08326  -1.03649
 Alpha  occ. eigenvalues --   -1.03429  -0.96077  -0.95903  -0.87092  -0.86921
 Alpha  occ. eigenvalues --   -0.79793  -0.79446  -0.78446  -0.78084  -0.65208
 Alpha  occ. eigenvalues --   -0.64948  -0.61094  -0.60851  -0.59436  -0.59241
 Alpha  occ. eigenvalues --   -0.57724  -0.57487  -0.55362  -0.55185  -0.52763
 Alpha  occ. eigenvalues --   -0.52597  -0.52523  -0.52308  -0.50033  -0.49841
 Alpha  occ. eigenvalues --   -0.48267  -0.47666  -0.46734  -0.46527  -0.46254
 Alpha  occ. eigenvalues --   -0.45908  -0.45568  -0.45128  -0.43874  -0.43693
 Alpha virt. eigenvalues --    0.19702   0.21844   0.23634   0.23898   0.25415
 Alpha virt. eigenvalues --    0.26026   0.26333   0.28049   0.28967   0.29766
 Alpha virt. eigenvalues --    0.30630   0.31491   0.31632   0.31861   0.32433

 Mulliken charges:
               1
     1  C   -0.297477
     2  C   -0.306687
     3  C   -0.475663
     4  H    0.150028
     5  H    0.149866
     6  H    0.153075
     7  H    0.157893
     8  H    0.155509
     9  H    0.155421
    10  H    0.161038
    11  C   -0.302172
    12  C   -0.299712
    13  C   -0.476345
    14  H    0.150965
    15  H    0.150870
    16  H    0.152414
    17  H    0.152354
    18  H    0.155354
    19  H    0.155506
    20  H    0.160890
    21  C   -0.298389
    22  C   -0.309303
    23  C   -0.476023
    24  H    0.148754
    25  H    0.149103
    26  H    0.163707
    27  H    0.151022
    28  H    0.155119
    29  H    0.153961
    30  H    0.159740
    31  C   -0.301204
    32  C   -0.299604
    33  C   -0.475702
    34  H    0.153060
    35  H    0.149041
    36  H    0.152052
    37  H    0.151578
    38  H    0.154823
    39  H    0.154918
    40  H    0.160221
 Sum of Mulliken charges =  -0.00000

 Dipole moment (field-independent basis, Debye):
    X=              0.0926    Y=              0.0160    Z=             -0.0164  Tot=              0.0954
 Quadrupole moment (field-independent basis, Debye-Ang):
   XX=            -84.3423   YY=            -86.3227   ZZ=            -84.1592
   XY=              1.0325   XZ=              0.0753   YZ=              0.3026

 Normal termination of Gaussian 16 at Wed May  5 16:50:29 2021.
