 Gaussian 16, Revision A.03,
 Gaussian 16:  EM64L-G16RevA.03 25-Dec-2016

 -------------
 #p 6-31g* mp2
 -------------

 ------------------------------------------------------
 Input file generated by CHIRIPA (05-May-2021 14:51:08)
 ------------------------------------------------------
 Symbolic Z-matrix:
 Charge =  0 Multiplicity = 1

                         Standard orientation:
 ---------------------------------------------------------------------
 Center     Atomic      Atomic             Coordinates (Angstroms)
 Number     Number       Type             X           Y           Z
 ---------------------------------------------------------------------
      1          6           0       -3.684986    0.659788   -0.675343
      2          6           0       -2.605102    1.616607   -0.169052
      3          6           0       -2.490430    2.881964   -1.019650
      4          1           0       -3.463972    0.385092   -1.715843
      5          1           0       -4.651355    1.182617   -0.688615
      6          1           0       -1.641301    1.091709   -0.155428
      7          1           0       -2.828609    1.888906    0.870426
      8          1           0       -3.438001    3.430317   -1.024137
      9          1           0       -2.243947    2.628589   -2.055820
     10          1           0       -1.712615    3.551815   -0.639964
     11          6           0       -3.811662   -0.609863    0.164698
     12          6           0       -4.891547   -1.566682   -0.341594
     13          6           0       -5.006218   -2.832039    0.509005
     14          1           0       -2.845294   -1.132692    0.177970
     15          1           0       -4.032677   -0.335167    1.205198
     16          1           0       -4.668040   -1.838981   -1.381071
     17          1           0       -5.855348   -1.041783   -0.355217
     18          1           0       -5.252701   -2.578664    1.545175
     19          1           0       -4.058648   -3.380392    0.513492
     20          1           0       -5.784034   -3.501890    0.129318
     21          6           0        3.044041    0.263840    0.192004
     22          6           0        2.467638    0.753297    1.520979
     23          6           0        1.058129    1.328312    1.378018
     24          1           0        3.057317    1.097198   -0.523735
     25          1           0        2.376455   -0.500082   -0.230069
     26          1           0        3.136825    1.515075    1.941094
     27          1           0        2.455909   -0.081276    2.233697
     28          1           0        0.372117    0.572600    0.981927
     29          1           0        1.056902    2.178022    0.687662
     30          1           0        0.665346    1.672172    2.339965
     31          6           0        4.452608   -0.313765    0.318642
     32          6           0        5.029011   -0.803221   -1.010334
     33          6           0        6.438519   -1.378237   -0.867373
     34          1           0        5.120193    0.450157    0.740715
     35          1           0        4.439331   -1.147123    1.034381
     36          1           0        5.040739    0.031351   -1.723051
     37          1           0        4.359823   -1.565000   -1.430448
     38          1           0        6.439747   -2.227948   -0.177016
     39          1           0        7.124532   -0.622526   -0.471281
     40          1           0        6.831302   -1.722097   -1.829321
 ---------------------------------------------------------------------

 SCF Done:  E(RHF) =  -470.733024636     A.U. after   11 cycles
 E2 =    -0.1582668710D+01 EUMP2 =    -0.47231569334640D+03

 The electronic state is 1-A.
 Alpha  occ. eigenvalues --  -11.21616 -11.21603 -11.21584 -11.21462 -11.21422
 Alpha  occ. eigenvalues --  -11.21367 -11.21362 -11.21295 -11.21082 -11.21063
 Alpha  occ. eigenvalues --  -11.21060 -11.20998  -1.08446  -1.08380  -1.03552
 Alpha  occ. eigenvalues --   -1.03465  -0.96002  -0.95923  -0.87021  -0.86940
 Alpha  occ. eigenvalues --   -0.79686  -0.79469  -0.78284  -0.78162  -0.65087
 Alpha  occ. eigenvalues --   -0.65007  -0.60980  -0.60848  -0.59356  -0.59310
 Alpha  occ. eigenvalues --   -0.57666  -0.57478  -0.55294  -0.55218  -0.52694
 Alpha  occ. eigenvalues --   -0.52628  -0.52424  -0.52351  -0.50001  -0.49835
 Alpha  occ. eigenvalues --   -0.48082  -0.47737  -0.46717  -0.46482  -0.45889
 Alpha  occ. eigenvalues --   -0.45741  -0.45703  -0.45460  -0.43796  -0.43728
 Alpha virt. eigenvalues --    0.21992   0.23032   0.23645   0.24670   0.25588
 Alpha virt. eigenvalues --    0.26598   0.26962   0.27604   0.27659   0.29105
 Alpha virt. eigenvalues --    0.30679   0.31024   0.31492   0.32027   0.32403

 Mulliken charges:
               1
     1  C   -0.297997
     2  C   -0.305036
     3  C   -0.475912
     4  H    0.149125
     5  H    0.149139
     6  H    0.159948
     7  H    0.151526
     8  H    0.154697
     9  H    0.154585
    10  H    0.160441
    11  C   -0.298030
    12  C   -0.299561
    13  C   -0.475652
    14  H    0.148323
    15  H    0.149735
    16  H    0.151848
    17  H    0.152031
    18  H    0.155177
    19  H    0.154931
    20  H    0.160198
    21  C   -0.298216
    22  C   -0.300064
    23  C   -0.477608
    24  H    0.149706
    25  H    0.148882
    26  H    0.151843
    27  H    0.151927
    28  H    0.157746
    29  H    0.155437
    30  H    0.160641
    31  C   -0.298256
    32  C   -0.299651
    33  C   -0.475715
    34  H    0.149638
    35  H    0.149684
    36  H    0.151972
    37  H    0.151806
    38  H    0.155199
    39  H    0.155235
    40  H    0.160276
 Sum of Mulliken charges =  -0.00000

 Dipole moment (field-independent basis, Debye):
    X=              0.0238    Y=              0.0070    Z=              0.0170  Tot=              0.0301
 Quadrupole moment (field-independent basis, Debye-Ang):
   XX=            -85.3673   YY=            -84.8778   ZZ=            -84.6867
   XY=              0.3226   XZ=             -0.3660   YZ=              0.6254

 Normal termination of Gaussian 16 at Thu May  6 08:26:14 2021.
