 Gaussian 16, Revision A.03,
 Gaussian 16:  EM64L-G16RevA.03 25-Dec-2016

 -------------
 #p 6-31g* mp2
 -------------

 ------------------------------------------------------
 Input file generated by CHIRIPA (05-May-2021 14:57:21)
 ------------------------------------------------------
 Symbolic Z-matrix:
 Charge =  0 Multiplicity = 1

                         Standard orientation:
 ---------------------------------------------------------------------
 Center     Atomic      Atomic             Coordinates (Angstroms)
 Number     Number       Type             X           Y           Z
 ---------------------------------------------------------------------
      1          6           0        2.339792    2.375211    0.419053
      2          6           0        2.396574    1.780641   -0.845772
      3          6           0        3.007209    0.534833   -1.017921
      4          6           0        3.553303   -0.091137    0.101557
      5          6           0        3.512597    0.475510    1.374563
      6          6           0        2.897003    1.721900    1.523237
      7          1           0        1.863510    3.343211    0.543665
      8          1           0        1.964675    2.285704   -1.705085
      9          1           0        3.065167    0.051827   -1.985787
     10          1           0        3.951972   -0.052267    2.212309
     11          1           0        2.854374    2.181271    2.506704
     12          7           0        4.202380   -1.410326   -0.068264
     13          8           0        4.676029   -1.941287    0.933921
     14          8           0        4.225188   -1.888367   -1.200339
     15          6           0       -1.142270    0.481802   -0.958688
     16          6           0       -2.119834    1.472390   -0.818602
     17          6           0       -3.399831    1.146949   -0.360078
     18          6           0       -3.669075   -0.185068   -0.049387
     19          6           0       -2.716468   -1.194616   -0.178395
     20          6           0       -1.443177   -0.846198   -0.638702
     21          1           0       -0.150542    0.743537   -1.315574
     22          1           0       -1.888972    2.504556   -1.066357
     23          1           0       -4.175479    1.893888   -0.242307
     24          1           0       -2.976381   -2.214858    0.076493
     25          1           0       -0.685964   -1.617592   -0.746517
     26          7           0       -5.020601   -0.541761    0.436976
     27          8           0       -5.232665   -1.722589    0.704014
     28          8           0       -5.842271    0.366247    0.541939
 ---------------------------------------------------------------------

 SCF Done:  E(RHF) =  -868.336643832     A.U. after   16 cycles
 E2 =    -0.2601286461D+01 EUMP2 =    -0.87093793029341D+03

 The electronic state is 1-A.
 Alpha  occ. eigenvalues --  -20.61668 -20.61650 -20.60923 -20.60912 -15.86723
 Alpha  occ. eigenvalues --  -15.85977 -11.32260 -11.31371 -11.28920 -11.28796
 Alpha  occ. eigenvalues --  -11.28614 -11.27998 -11.27971 -11.27923 -11.27800
 Alpha  occ. eigenvalues --  -11.27635 -11.27043 -11.26903  -1.60738  -1.59996
 Alpha  occ. eigenvalues --   -1.40285  -1.39549  -1.20465  -1.19557  -1.09817
 Alpha  occ. eigenvalues --   -1.08944  -1.05901  -1.04970  -0.96614  -0.95774
 Alpha  occ. eigenvalues --   -0.87276  -0.86368  -0.83456  -0.82605  -0.78474
 Alpha  occ. eigenvalues --   -0.77649  -0.72931  -0.72193  -0.72073  -0.71529
 Alpha  occ. eigenvalues --   -0.71322  -0.70702  -0.66105  -0.65887  -0.65207
 Alpha  occ. eigenvalues --   -0.64988  -0.63219  -0.62319  -0.56356  -0.55692
 Alpha  occ. eigenvalues --   -0.54045  -0.53922  -0.53280  -0.53063  -0.49706
 Alpha  occ. eigenvalues --   -0.49679  -0.48956  -0.48946  -0.45652  -0.44947
 Alpha  occ. eigenvalues --   -0.38458  -0.37633  -0.37350  -0.36583
 Alpha virt. eigenvalues --    0.04041   0.04893   0.10056   0.11068   0.15369
 Alpha virt. eigenvalues --    0.16372   0.19614   0.21856   0.25703   0.26623
 Alpha virt. eigenvalues --    0.27679   0.29033   0.29870   0.31432   0.31869

 Mulliken charges:
               1
     1  C   -0.167922
     2  C   -0.230812
     3  C   -0.175465
     4  C    0.159259
     5  C   -0.168565
     6  C   -0.217222
     7  H    0.228171
     8  H    0.222292
     9  H    0.277302
    10  H    0.279830
    11  H    0.228639
    12  N    0.487571
    13  O   -0.456326
    14  O   -0.459777
    15  C   -0.170284
    16  C   -0.222864
    17  C   -0.170512
    18  C    0.157938
    19  C   -0.170195
    20  C   -0.222557
    21  H    0.226984
    22  H    0.216580
    23  H    0.274993
    24  H    0.277436
    25  H    0.227635
    26  N    0.487987
    27  O   -0.459105
    28  O   -0.461011
 Sum of Mulliken charges =  -0.00000

 Dipole moment (field-independent basis, Debye):
    X=              2.7593    Y=              5.8114    Z=             -0.8798  Tot=              6.4931
 Quadrupole moment (field-independent basis, Debye-Ang):
   XX=           -156.0807   YY=           -102.0810   ZZ=           -100.4302
   XY=              9.9817   XZ=              9.7254   YZ=              0.4287

 Normal termination of Gaussian 16 at Thu May  6 04:53:33 2021.
