 Gaussian 16, Revision A.03,
 Gaussian 16:  EM64L-G16RevA.03 25-Dec-2016

 -------------
 #p 6-31g* mp2
 -------------

 ------------------------------------------------------
 Input file generated by CHIRIPA (05-May-2021 14:51:13)
 ------------------------------------------------------
 Symbolic Z-matrix:
 Charge =  0 Multiplicity = 1

                         Standard orientation:
 ---------------------------------------------------------------------
 Center     Atomic      Atomic             Coordinates (Angstroms)
 Number     Number       Type             X           Y           Z
 ---------------------------------------------------------------------
      1          6           0       -3.191313   -0.658397   -0.447306
      2          6           0       -1.777307   -0.694782    0.133425
      3          6           0       -0.856545   -1.660956   -0.612564
      4          1           0       -3.618654   -1.670087   -0.418906
      5          1           0       -3.137862   -0.371287   -1.506601
      6          1           0       -1.833523   -0.980392    1.191670
      7          1           0       -1.353353    0.317148    0.103816
      8          1           0       -0.770766   -1.375480   -1.666009
      9          1           0       -1.253664   -2.680392   -0.571973
     10          1           0        0.149135   -1.671185   -0.180866
     11          6           0       -4.123594    0.302937    0.287825
     12          6           0       -5.537599    0.339323   -0.292906
     13          6           0       -6.458362    1.305497    0.453082
     14          1           0       -4.177044    0.015828    1.347120
     15          1           0       -3.696252    1.314628    0.259425
     16          1           0       -5.961553   -0.672607   -0.263297
     17          1           0       -5.481383    0.624932   -1.351151
     18          1           0       -6.061242    2.324933    0.412492
     19          1           0       -6.544140    1.020020    1.506527
     20          1           0       -7.464042    1.315726    0.021385
     21          6           0        3.710242   -0.524597   -0.215863
     22          6           0        3.226231   -1.620388    0.734379
     23          6           0        3.338078   -3.019855    0.128758
     24          1           0        3.127326   -0.570854   -1.145925
     25          1           0        4.755148   -0.723346   -0.491660
     26          1           0        2.182979   -1.418873    1.009394
     27          1           0        3.810237   -1.571395    1.662363
     28          1           0        4.377702   -3.245907   -0.129472
     29          1           0        2.741198   -3.092519   -0.786150
     30          1           0        2.986746   -3.787822    0.824926
     31          6           0        3.604665    0.880057    0.375345
     32          6           0        4.088675    1.975848   -0.574898
     33          6           0        3.976828    3.375314    0.030724
     34          1           0        2.559758    1.078805    0.651142
     35          1           0        4.187580    0.926313    1.305407
     36          1           0        3.504669    1.926854   -1.502881
     37          1           0        5.131927    1.774333   -0.849913
     38          1           0        4.573709    3.447978    0.945632
     39          1           0        2.937204    3.601367    0.288953
     40          1           0        4.328161    4.143282   -0.665445
 ---------------------------------------------------------------------

 SCF Done:  E(RHF) =  -470.733301879     A.U. after   11 cycles
 E2 =    -0.1582731035D+01 EUMP2 =    -0.47231603291411D+03

 The electronic state is 1-A.
 Alpha  occ. eigenvalues --  -11.21652 -11.21621 -11.21602 -11.21601 -11.21434
 Alpha  occ. eigenvalues --  -11.21401 -11.21374 -11.21341 -11.21097 -11.21086
 Alpha  occ. eigenvalues --  -11.21074 -11.21052  -1.08464  -1.08427  -1.03577
 Alpha  occ. eigenvalues --   -1.03516  -0.96021  -0.95965  -0.87030  -0.86988
 Alpha  occ. eigenvalues --   -0.79635  -0.79583  -0.78273  -0.78243  -0.65102
 Alpha  occ. eigenvalues --   -0.65077  -0.61018  -0.60956  -0.59385  -0.59292
 Alpha  occ. eigenvalues --   -0.57639  -0.57558  -0.55305  -0.55253  -0.52708
 Alpha  occ. eigenvalues --   -0.52664  -0.52446  -0.52382  -0.49956  -0.49907
 Alpha  occ. eigenvalues --   -0.48010  -0.47848  -0.46657  -0.46617  -0.45815
 Alpha  occ. eigenvalues --   -0.45780  -0.45745  -0.45697  -0.43810  -0.43760
 Alpha virt. eigenvalues --    0.20624   0.23056   0.23802   0.24872   0.26344
 Alpha virt. eigenvalues --    0.26674   0.27008   0.27721   0.27998   0.28881
 Alpha virt. eigenvalues --    0.30639   0.31358   0.31570   0.31731   0.32022

 Mulliken charges:
               1
     1  C   -0.298325
     2  C   -0.299239
     3  C   -0.484641
     4  H    0.149873
     5  H    0.149563
     6  H    0.152092
     7  H    0.151270
     8  H    0.154841
     9  H    0.155816
    10  H    0.168761
    11  C   -0.298282
    12  C   -0.299682
    13  C   -0.475728
    14  H    0.149622
    15  H    0.149596
    16  H    0.152011
    17  H    0.151946
    18  H    0.155198
    19  H    0.155234
    20  H    0.160327
    21  C   -0.298960
    22  C   -0.304308
    23  C   -0.476832
    24  H    0.150489
    25  H    0.149700
    26  H    0.154578
    27  H    0.152671
    28  H    0.155265
    29  H    0.156943
    30  H    0.160294
    31  C   -0.298329
    32  C   -0.299670
    33  C   -0.475686
    34  H    0.149499
    35  H    0.149668
    36  H    0.151943
    37  H    0.151957
    38  H    0.155224
    39  H    0.155079
    40  H    0.160222
 Sum of Mulliken charges =  -0.00000

 Dipole moment (field-independent basis, Debye):
    X=              0.0005    Y=             -0.0110    Z=             -0.0012  Tot=              0.0111
 Quadrupole moment (field-independent basis, Debye-Ang):
   XX=            -84.3748   YY=            -85.7688   ZZ=            -84.5302
   XY=              0.6541   XZ=              0.5084   YZ=             -1.1282

 Normal termination of Gaussian 16 at Wed May  5 16:50:09 2021.
