 Gaussian 16, Revision A.03,
 Gaussian 16:  EM64L-G16RevA.03 25-Dec-2016

 -------------
 #p 6-31g* mp2
 -------------

 ------------------------------------------------------
 Input file generated by CHIRIPA (05-May-2021 14:55:18)
 ------------------------------------------------------
 Symbolic Z-matrix:
 Charge =  0 Multiplicity = 1

                         Standard orientation:
 ---------------------------------------------------------------------
 Center     Atomic      Atomic             Coordinates (Angstroms)
 Number     Number       Type             X           Y           Z
 ---------------------------------------------------------------------
      1          6           0        4.066403   -1.738306   -0.795060
      2          6           0        2.700291   -1.747407   -0.494766
      3          6           0        2.058445   -0.579535   -0.072089
      4          6           0        2.816617    0.584917    0.039780
      5          6           0        4.179131    0.625961   -0.252043
      6          6           0        4.800169   -0.553739   -0.672955
      7          1           0        4.556923   -2.650131   -1.122720
      8          1           0        2.127932   -2.665900   -0.588689
      9          1           0        1.002102   -0.558367    0.166889
     10          1           0        4.723273    1.556920   -0.148878
     11          1           0        5.861241   -0.543713   -0.905486
     12          7           0        2.148137    1.827552    0.486315
     13          8           0        2.838387    2.840469    0.576818
     14          8           0        0.946590    1.765083    0.737351
     15          6           0       -3.477984   -1.010925    0.529567
     16          6           0       -2.095460   -1.540861    0.147754
     17          6           0       -1.572161   -2.589128    1.130142
     18          1           0       -3.432315   -0.579232    1.538775
     19          1           0       -4.183869   -1.851459    0.580794
     20          1           0       -1.392699   -0.699401    0.095910
     21          1           0       -2.144381   -1.971170   -0.860738
     22          1           0       -2.250725   -3.447079    1.175696
     23          1           0       -1.494772   -2.168082    2.137780
     24          1           0       -0.582613   -2.954358    0.838147
     25          6           0       -4.014599    0.037827   -0.443002
     26          6           0       -5.397123    0.567763   -0.061189
     27          6           0       -5.920422    1.616031   -1.043577
     28          1           0       -3.308714    0.878360   -0.494229
     29          1           0       -4.060268   -0.393865   -1.452210
     30          1           0       -5.348202    0.998073    0.947303
     31          1           0       -6.099884   -0.273697   -0.009345
     32          1           0       -5.997811    1.194985   -2.051214
     33          1           0       -5.241858    2.473981   -1.089130
     34          1           0       -6.909970    1.981261   -0.751582
 ---------------------------------------------------------------------

 SCF Done:  E(RHF) =  -669.535785305     A.U. after   15 cycles
 E2 =    -0.2091680944D+01 EUMP2 =    -0.67162746624862D+03

 The electronic state is 1-A.
 Alpha  occ. eigenvalues --  -20.60802 -20.60795 -15.85849 -11.31167 -11.27746
 Alpha  occ. eigenvalues --  -11.27706 -11.27488 -11.26756 -11.26740 -11.21856
 Alpha  occ. eigenvalues --  -11.21537 -11.21371 -11.21363 -11.21154 -11.20804
 Alpha  occ. eigenvalues --   -1.59872  -1.39428  -1.19344  -1.08750  -1.08386
 Alpha  occ. eigenvalues --   -1.04743  -1.03563  -0.96008  -0.95589  -0.87021
 Alpha  occ. eigenvalues --   -0.86146  -0.82424  -0.79645  -0.78165  -0.77471
 Alpha  occ. eigenvalues --   -0.72072  -0.71191  -0.70466  -0.65043  -0.65000
 Alpha  occ. eigenvalues --   -0.64719  -0.62157  -0.60911  -0.59411  -0.57613
 Alpha  occ. eigenvalues --   -0.55309  -0.55200  -0.53077  -0.52843  -0.52744
 Alpha  occ. eigenvalues --   -0.52432  -0.49919  -0.48831  -0.48822  -0.47949
 Alpha  occ. eigenvalues --   -0.46637  -0.45709  -0.45578  -0.44841  -0.43791
 Alpha  occ. eigenvalues --   -0.37330  -0.36341
 Alpha virt. eigenvalues --    0.05053   0.11304   0.16542   0.19492   0.23126
 Alpha virt. eigenvalues --    0.23899   0.26053   0.26193   0.27256   0.28133
 Alpha virt. eigenvalues --    0.29056   0.29836   0.31449   0.31690   0.32607

 Mulliken charges:
               1
     1  C   -0.170298
     2  C   -0.224424
     3  C   -0.178787
     4  C    0.156543
     5  C   -0.169690
     6  C   -0.219225
     7  H    0.225637
     8  H    0.224728
     9  H    0.291863
    10  H    0.275485
    11  H    0.223371
    12  N    0.487241
    13  O   -0.459932
    14  O   -0.463262
    15  C   -0.296747
    16  C   -0.311863
    17  C   -0.477090
    18  H    0.154223
    19  H    0.148386
    20  H    0.161315
    21  H    0.150324
    22  H    0.158256
    23  H    0.161790
    24  H    0.147416
    25  C   -0.300999
    26  C   -0.299915
    27  C   -0.476195
    28  H    0.158519
    29  H    0.147368
    30  H    0.153964
    31  H    0.150015
    32  H    0.153816
    33  H    0.158388
    34  H    0.159779
 Sum of Mulliken charges =  -0.00000

 Dipole moment (field-independent basis, Debye):
    X=              2.2591    Y=             -4.2720    Z=             -1.5281  Tot=              5.0684
 Quadrupole moment (field-independent basis, Debye-Ang):
   XX=            -77.6580   YY=            -99.4277   ZZ=            -95.7612
   XY=             -8.1088   XZ=             -5.1071   YZ=             -0.4123

 Normal termination of Gaussian 16 at Thu May  6 12:21:52 2021.
