 Gaussian 16, Revision A.03,
 Gaussian 16:  EM64L-G16RevA.03 25-Dec-2016

 -------------
 #p 6-31g* mp2
 -------------

 ------------------------------------------------------
 Input file generated by CHIRIPA (05-May-2021 14:53:12)
 ------------------------------------------------------
 Symbolic Z-matrix:
 Charge =  0 Multiplicity = 1

                         Standard orientation:
 ---------------------------------------------------------------------
 Center     Atomic      Atomic             Coordinates (Angstroms)
 Number     Number       Type             X           Y           Z
 ---------------------------------------------------------------------
      1          6           0       -3.248760    0.710822   -0.669729
      2          6           0       -2.127947    1.637448   -0.197366
      3          6           0       -1.937579    2.848470   -1.111139
      4          1           0       -3.028617    0.370481   -1.690831
      5          1           0       -4.186826    1.280312   -0.725491
      6          1           0       -1.192556    1.066044   -0.141184
      7          1           0       -2.350689    1.975471    0.822802
      8          1           0       -2.855679    3.442932   -1.159171
      9          1           0       -1.690966    2.528337   -2.128635
     10          1           0       -1.131468    3.497423   -0.754901
     11          6           0       -3.451199   -0.504436    0.233540
     12          6           0       -4.572013   -1.431062   -0.238823
     13          6           0       -4.762381   -2.642083    0.674950
     14          1           0       -2.513133   -1.073925    0.289302
     15          1           0       -3.671343   -0.164095    1.254642
     16          1           0       -4.349271   -1.769085   -1.258991
     17          1           0       -5.507403   -0.859657   -0.295005
     18          1           0       -5.008993   -2.321951    1.692446
     19          1           0       -3.844280   -3.236546    0.722982
     20          1           0       -5.568492   -3.291036    0.318712
     21          6           0        1.494661    1.573939    1.709324
     22          6           0        2.111314    0.434497    2.236517
     23          6           0        2.736305   -0.489011    1.393269
     24          6           0        2.725692   -0.240576    0.021608
     25          6           0        2.119806    0.885279   -0.533948
     26          6           0        1.500865    1.795303    0.328209
     27          1           0        1.011504    2.286104    2.371725
     28          1           0        2.108050    0.260003    3.308705
     29          1           0        3.221198   -1.379423    1.774668
     30          1           0        2.139427    1.032047   -1.607025
     31          1           0        1.022751    2.679339   -0.084019
     32          7           0        3.384139   -1.211115   -0.881111
     33          8           0        3.360972   -0.969300   -2.085945
     34          8           0        3.910931   -2.195262   -0.366734
 ---------------------------------------------------------------------

 SCF Done:  E(RHF) =  -669.534431087     A.U. after   15 cycles
 E2 =    -0.2093071066D+01 EUMP2 =    -0.67162750215320D+03

 The electronic state is 1-A.
 Alpha  occ. eigenvalues --  -20.60796 -20.60791 -15.85849 -11.31222 -11.27773
 Alpha  occ. eigenvalues --  -11.27765 -11.27501 -11.26798 -11.26750 -11.22110
 Alpha  occ. eigenvalues --  -11.21927 -11.21816 -11.21782 -11.21669 -11.21237
 Alpha  occ. eigenvalues --   -1.59872  -1.39425  -1.19393  -1.08848  -1.08756
 Alpha  occ. eigenvalues --   -1.04806  -1.03962  -0.96438  -0.95614  -0.87450
 Alpha  occ. eigenvalues --   -0.86190  -0.82448  -0.80033  -0.78608  -0.77498
 Alpha  occ. eigenvalues --   -0.72066  -0.71196  -0.70482  -0.65469  -0.65037
 Alpha  occ. eigenvalues --   -0.64830  -0.62213  -0.61341  -0.59815  -0.58037
 Alpha  occ. eigenvalues --   -0.55713  -0.55272  -0.53263  -0.53173  -0.52944
 Alpha  occ. eigenvalues --   -0.52617  -0.50348  -0.48825  -0.48821  -0.48346
 Alpha  occ. eigenvalues --   -0.47039  -0.46157  -0.46049  -0.44828  -0.44214
 Alpha  occ. eigenvalues --   -0.37334  -0.36332
 Alpha virt. eigenvalues --    0.05023   0.11211   0.16482   0.20173   0.22743
 Alpha virt. eigenvalues --    0.24003   0.26104   0.26269   0.27083   0.28225
 Alpha virt. eigenvalues --    0.28918   0.29787   0.31029   0.31688   0.31942

 Mulliken charges:
               1
     1  C   -0.297921
     2  C   -0.307797
     3  C   -0.478634
     4  H    0.152093
     5  H    0.149608
     6  H    0.161498
     7  H    0.147388
     8  H    0.160303
     9  H    0.158652
    10  H    0.148151
    11  C   -0.298772
    12  C   -0.300114
    13  C   -0.476074
    14  H    0.151833
    15  H    0.147841
    16  H    0.153919
    17  H    0.151808
    18  H    0.154156
    19  H    0.156590
    20  H    0.161468
    21  C   -0.170904
    22  C   -0.218321
    23  C   -0.171421
    24  C    0.158903
    25  C   -0.174294
    26  C   -0.219862
    27  H    0.226211
    28  H    0.223644
    29  H    0.275625
    30  H    0.276035
    31  H    0.231104
    32  N    0.488029
    33  O   -0.460396
    34  O   -0.460351
 Sum of Mulliken charges =  -0.00000

 Dipole moment (field-independent basis, Debye):
    X=             -2.3670    Y=              3.3410    Z=              3.1700  Tot=              5.1782
 Quadrupole moment (field-independent basis, Debye-Ang):
   XX=           -107.3729   YY=            -96.0975   ZZ=            -91.6819
   XY=              8.6856   XZ=              9.7790   YZ=             -2.3809

 Normal termination of Gaussian 16 at Thu May  6 05:42:10 2021.
