 Gaussian 16, Revision A.03,
 Gaussian 16:  EM64L-G16RevA.03 25-Dec-2016

 -------------
 #p 6-31g* mp2
 -------------

 ------------------------------------------------------
 Input file generated by CHIRIPA (05-May-2021 14:51:13)
 ------------------------------------------------------
 Symbolic Z-matrix:
 Charge =  0 Multiplicity = 1

                         Standard orientation:
 ---------------------------------------------------------------------
 Center     Atomic      Atomic             Coordinates (Angstroms)
 Number     Number       Type             X           Y           Z
 ---------------------------------------------------------------------
      1          6           0       -3.436773   -0.747134   -0.059363
      2          6           0       -2.159917   -0.987549   -0.865480
      3          6           0       -1.593554   -2.394273   -0.670145
      4          1           0       -3.227301   -0.914951    1.005956
      5          1           0       -4.191383   -1.490912   -0.350486
      6          1           0       -1.408406   -0.242675   -0.573916
      7          1           0       -2.372406   -0.818954   -1.928983
      8          1           0       -2.323211   -3.149683   -0.979269
      9          1           0       -1.353734   -2.570129    0.383497
     10          1           0       -0.681017   -2.544505   -1.255437
     11          6           0       -4.014983    0.654734   -0.244205
     12          6           0       -5.291839    0.895149    0.561912
     13          6           0       -5.858202    2.301873    0.366577
     14          1           0       -3.260373    1.398512    0.046919
     15          1           0       -4.224455    0.822551   -1.309524
     16          1           0       -5.079350    0.726554    1.625416
     17          1           0       -6.043350    0.150275    0.270349
     18          1           0       -6.098022    2.477729   -0.687065
     19          1           0       -5.128545    3.057283    0.675701
     20          1           0       -6.770739    2.452104    0.951869
     21          6           0        4.009118    0.704624    0.415761
     22          6           0        4.617360    1.584475   -0.676893
     23          6           0        5.179793    2.898193   -0.133196
     24          1           0        3.212365    1.262945    0.926061
     25          1           0        4.775543    0.490709    1.173540
     26          1           0        3.850395    1.795524   -1.433094
     27          1           0        5.412629    1.023926   -1.184777
     28          1           0        5.963872    2.704931    0.606041
     29          1           0        4.392762    3.480912    0.356314
     30          1           0        5.609629    3.511667   -0.931163
     31          6           0        3.442637   -0.612224   -0.112193
     32          6           0        2.834397   -1.492075    0.980460
     33          6           0        2.271963   -2.805793    0.436764
     34          1           0        2.676213   -0.398309   -0.869972
     35          1           0        4.239391   -1.170545   -0.622493
     36          1           0        2.039126   -0.931526    1.488345
     37          1           0        3.601361   -1.703124    1.736661
     38          1           0        3.058996   -3.388512   -0.052746
     39          1           0        1.487884   -2.612530   -0.302474
     40          1           0        1.842127   -3.419267    1.234731
 ---------------------------------------------------------------------

 SCF Done:  E(RHF) =  -470.733011347     A.U. after   11 cycles
 E2 =    -0.1582525227D+01 EUMP2 =    -0.47231553657433D+03

 The electronic state is 1-A.
 Alpha  occ. eigenvalues --  -11.21645 -11.21624 -11.21598 -11.21570 -11.21436
 Alpha  occ. eigenvalues --  -11.21396 -11.21376 -11.21336 -11.21090 -11.21083
 Alpha  occ. eigenvalues --  -11.21070 -11.20961  -1.08462  -1.08414  -1.03571
 Alpha  occ. eigenvalues --   -1.03494  -0.96041  -0.95921  -0.87080  -0.86916
 Alpha  occ. eigenvalues --   -0.79658  -0.79534  -0.78273  -0.78229  -0.65114
 Alpha  occ. eigenvalues --   -0.65028  -0.61055  -0.60837  -0.59403  -0.59312
 Alpha  occ. eigenvalues --   -0.57688  -0.57506  -0.55425  -0.55118  -0.52803
 Alpha  occ. eigenvalues --   -0.52630  -0.52458  -0.52274  -0.50051  -0.49752
 Alpha  occ. eigenvalues --   -0.47981  -0.47839  -0.46695  -0.46546  -0.45815
 Alpha  occ. eigenvalues --   -0.45769  -0.45739  -0.45694  -0.43789  -0.43755
 Alpha virt. eigenvalues --    0.21348   0.23158   0.23555   0.25218   0.26353
 Alpha virt. eigenvalues --    0.26655   0.27067   0.27295   0.27793   0.29215
 Alpha virt. eigenvalues --    0.29812   0.31221   0.31623   0.31956   0.32098

 Mulliken charges:
               1
     1  C   -0.298502
     2  C   -0.300044
     3  C   -0.478784
     4  H    0.149774
     5  H    0.149801
     6  H    0.151274
     7  H    0.152029
     8  H    0.155519
     9  H    0.156958
    10  H    0.162688
    11  C   -0.298278
    12  C   -0.299686
    13  C   -0.475718
    14  H    0.149348
    15  H    0.149713
    16  H    0.151984
    17  H    0.152024
    18  H    0.155214
    19  H    0.155153
    20  H    0.160349
    21  C   -0.298196
    22  C   -0.299669
    23  C   -0.475684
    24  H    0.149334
    25  H    0.149563
    26  H    0.151936
    27  H    0.151969
    28  H    0.155182
    29  H    0.155083
    30  H    0.160260
    31  C   -0.298366
    32  C   -0.299305
    33  C   -0.480997
    34  H    0.149179
    35  H    0.149701
    36  H    0.151147
    37  H    0.151671
    38  H    0.154271
    39  H    0.162444
    40  H    0.159661
 Sum of Mulliken charges =  -0.00000

 Dipole moment (field-independent basis, Debye):
    X=             -0.0324    Y=             -0.0150    Z=             -0.0101  Tot=              0.0371
 Quadrupole moment (field-independent basis, Debye-Ang):
   XX=            -84.1582   YY=            -86.4049   ZZ=            -84.2128
   XY=             -0.0929   XZ=              0.4265   YZ=              0.0308

 Normal termination of Gaussian 16 at Thu May  6 05:32:42 2021.
