 Gaussian 16, Revision A.03,
 Gaussian 16:  EM64L-G16RevA.03 25-Dec-2016

 -------------
 #p 6-31g* mp2
 -------------

 ------------------------------------------------------
 Input file generated by CHIRIPA (05-May-2021 14:55:19)
 ------------------------------------------------------
 Symbolic Z-matrix:
 Charge =  0 Multiplicity = 1

                         Standard orientation:
 ---------------------------------------------------------------------
 Center     Atomic      Atomic             Coordinates (Angstroms)
 Number     Number       Type             X           Y           Z
 ---------------------------------------------------------------------
      1          6           0        2.941132    2.546496   -0.148334
      2          6           0        4.229641    2.047260    0.068525
      3          6           0        4.467154    0.669536    0.065226
      4          6           0        3.388178   -0.184130   -0.159171
      5          6           0        2.093029    0.282615   -0.378328
      6          6           0        1.878811    1.664136   -0.370676
      7          1           0        2.765675    3.618220   -0.144081
      8          1           0        5.056555    2.730159    0.241465
      9          1           0        5.454638    0.255994    0.230381
     10          1           0        1.288758   -0.422936   -0.547924
     11          1           0        0.877086    2.049014   -0.539378
     12          7           0        3.627291   -1.644675   -0.164968
     13          8           0        2.659795   -2.375815   -0.365025
     14          8           0        4.777677   -2.030655    0.030656
     15          6           0       -3.653707   -0.461867    0.379826
     16          6           0       -2.457920    0.436426    0.697867
     17          6           0       -1.199612   -0.357281    1.050691
     18          1           0       -3.857303   -1.109892    1.243283
     19          1           0       -3.392240   -1.126623   -0.455116
     20          1           0       -2.722040    1.100243    1.531056
     21          1           0       -2.257266    1.082522   -0.166376
     22          1           0       -0.908751   -1.007760    0.219500
     23          1           0       -1.376165   -0.989939    1.926575
     24          1           0       -0.357099    0.304501    1.274470
     25          6           0       -4.919142    0.317009    0.025207
     26          6           0       -6.114928   -0.581284   -0.292834
     27          6           0       -7.373236    0.212423   -0.645658
     28          1           0       -5.180608    0.981765    0.860149
     29          1           0       -4.715545    0.965034   -0.838250
     30          1           0       -6.315582   -1.227379    0.571408
     31          1           0       -5.850808   -1.245101   -1.126023
     32          1           0       -7.196684    0.845081   -1.521542
     33          1           0       -7.664098    0.862902    0.185532
     34          1           0       -8.215749   -0.449359   -0.869437
 ---------------------------------------------------------------------

 SCF Done:  E(RHF) =  -669.534527444     A.U. after   15 cycles
 E2 =    -0.2092343734D+01 EUMP2 =    -0.67162687117783D+03

 The electronic state is 1-A.
 Alpha  occ. eigenvalues --  -20.60715 -20.60709 -15.85767 -11.31108 -11.27716
 Alpha  occ. eigenvalues --  -11.27628 -11.27464 -11.26721 -11.26695 -11.22173
 Alpha  occ. eigenvalues --  -11.21813 -11.21742 -11.21663 -11.21582 -11.21257
 Alpha  occ. eigenvalues --   -1.59789  -1.39343  -1.19307  -1.08790  -1.08704
 Alpha  occ. eigenvalues --   -1.04723  -1.03907  -0.96363  -0.95534  -0.87386
 Alpha  occ. eigenvalues --   -0.86103  -0.82373  -0.79989  -0.78582  -0.77413
 Alpha  occ. eigenvalues --   -0.71988  -0.71112  -0.70428  -0.65431  -0.64963
 Alpha  occ. eigenvalues --   -0.64719  -0.62197  -0.61238  -0.59705  -0.57959
 Alpha  occ. eigenvalues --   -0.55673  -0.55176  -0.53318  -0.52991  -0.52704
 Alpha  occ. eigenvalues --   -0.52637  -0.50256  -0.48746  -0.48740  -0.48283
 Alpha  occ. eigenvalues --   -0.47006  -0.46126  -0.46038  -0.44753  -0.44153
 Alpha  occ. eigenvalues --   -0.37299  -0.36266
 Alpha virt. eigenvalues --    0.05092   0.11321   0.16469   0.20214   0.22768
 Alpha virt. eigenvalues --    0.23921   0.25936   0.26162   0.26949   0.28139
 Alpha virt. eigenvalues --    0.29141   0.29729   0.31387   0.31736   0.31954

 Mulliken charges:
               1
     1  C   -0.170828
     2  C   -0.219194
     3  C   -0.170426
     4  C    0.156532
     5  C   -0.171589
     6  C   -0.224430
     7  H    0.225462
     8  H    0.223167
     9  H    0.275442
    10  H    0.284558
    11  H    0.225394
    12  N    0.487770
    13  O   -0.460716
    14  O   -0.460735
    15  C   -0.298859
    16  C   -0.300454
    17  C   -0.487382
    18  H    0.152790
    19  H    0.152096
    20  H    0.153562
    21  H    0.144450
    22  H    0.158000
    23  H    0.163809
    24  H    0.160314
    25  C   -0.298456
    26  C   -0.300109
    27  C   -0.475894
    28  H    0.149522
    29  H    0.148385
    30  H    0.153197
    31  H    0.153175
    32  H    0.154844
    33  H    0.155136
    34  H    0.161468
 Sum of Mulliken charges =  -0.00000

 Dipole moment (field-independent basis, Debye):
    X=             -0.9635    Y=              5.0601    Z=              0.0734  Tot=              5.1515
 Quadrupole moment (field-independent basis, Debye-Ang):
   XX=            -96.3299   YY=            -97.3603   ZZ=            -94.4701
   XY=             19.3028   XZ=              0.5737   YZ=             -0.6027

 Normal termination of Gaussian 16 at Thu May  6 12:21:54 2021.
