 Gaussian 16, Revision A.03,
 Gaussian 16:  EM64L-G16RevA.03 25-Dec-2016

 -------------
 #p 6-31g* mp2
 -------------

 ------------------------------------------------------
 Input file generated by CHIRIPA (05-May-2021 14:57:25)
 ------------------------------------------------------
 Symbolic Z-matrix:
 Charge =  0 Multiplicity = 1

                         Standard orientation:
 ---------------------------------------------------------------------
 Center     Atomic      Atomic             Coordinates (Angstroms)
 Number     Number       Type             X           Y           Z
 ---------------------------------------------------------------------
      1          6           0       -3.216298    2.528992   -0.038741
      2          6           0       -2.212823    1.609433   -0.361187
      3          6           0       -2.494492    0.241131   -0.415603
      4          6           0       -3.796351   -0.174607   -0.140625
      5          6           0       -4.817723    0.716996    0.183619
      6          6           0       -4.513258    2.080629    0.232155
      7          1           0       -2.988637    3.590108    0.001247
      8          1           0       -1.204692    1.954772   -0.572038
      9          1           0       -1.736680   -0.492445   -0.662597
     10          1           0       -5.813257    0.342556    0.388859
     11          1           0       -5.294566    2.792497    0.482847
     12          7           0       -4.106608   -1.620696   -0.195120
     13          8           0       -5.261501   -1.961474    0.051313
     14          8           0       -3.189019   -2.385979   -0.483234
     15          6           0        1.407722   -0.121659    1.079633
     16          6           0        1.601343    0.041238   -0.296048
     17          6           0        2.892007    0.074793   -0.832340
     18          6           0        3.971198   -0.058124    0.039995
     19          6           0        3.810805   -0.221764    1.415054
     20          6           0        2.511126   -0.252410    1.929295
     21          1           0        0.401602   -0.146595    1.487672
     22          1           0        0.746289    0.143026   -0.958292
     23          1           0        3.070593    0.199718   -1.893433
     24          1           0        4.682808   -0.320652    2.050072
     25          1           0        2.363765   -0.379042    2.998076
     26          7           0        5.342337   -0.024142   -0.516081
     27          8           0        6.276521   -0.143420    0.273673
     28          8           0        5.456890    0.121129   -1.731157
 ---------------------------------------------------------------------

 SCF Done:  E(RHF) =  -868.336839769     A.U. after   16 cycles
 E2 =    -0.2600694776D+01 EUMP2 =    -0.87093753454454D+03

 The electronic state is 1-A.
 Alpha  occ. eigenvalues --  -20.61558 -20.61546 -20.61061 -20.61055 -15.86613
 Alpha  occ. eigenvalues --  -15.86121 -11.32128 -11.31583 -11.28802 -11.28633
 Alpha  occ. eigenvalues --  -11.28395 -11.28236 -11.28160 -11.27964 -11.27791
 Alpha  occ. eigenvalues --  -11.27652 -11.27350 -11.27153  -1.60628  -1.60135
 Alpha  occ. eigenvalues --   -1.40178  -1.39685  -1.20298  -1.19789  -1.09643
 Alpha  occ. eigenvalues --   -1.09169  -1.05746  -1.05217  -0.96466  -0.95975
 Alpha  occ. eigenvalues --   -0.87106  -0.86634  -0.83311  -0.82813  -0.78372
 Alpha  occ. eigenvalues --   -0.77829  -0.72824  -0.72339  -0.71957  -0.71460
 Alpha  occ. eigenvalues --   -0.71399  -0.70870  -0.65970  -0.65728  -0.65454
 Alpha  occ. eigenvalues --   -0.65298  -0.63138  -0.62457  -0.56163  -0.55720
 Alpha  occ. eigenvalues --   -0.54021  -0.53855  -0.53490  -0.53323  -0.49594
 Alpha  occ. eigenvalues --   -0.49574  -0.49106  -0.49084  -0.45553  -0.45069
 Alpha  occ. eigenvalues --   -0.38239  -0.37772  -0.37344  -0.36818
 Alpha virt. eigenvalues --    0.04171   0.04722   0.10294   0.10711   0.15601
 Alpha virt. eigenvalues --    0.16177   0.18224   0.21992   0.24673   0.27141
 Alpha virt. eigenvalues --    0.27645   0.29275   0.29875   0.31064   0.31384

 Mulliken charges:
               1
     1  C   -0.170349
     2  C   -0.222217
     3  C   -0.181970
     4  C    0.161163
     5  C   -0.169765
     6  C   -0.217802
     7  H    0.229513
     8  H    0.222842
     9  H    0.272148
    10  H    0.278681
    11  H    0.227299
    12  N    0.488149
    13  O   -0.456896
    14  O   -0.460513
    15  C   -0.171358
    16  C   -0.224902
    17  C   -0.169464
    18  C    0.158671
    19  C   -0.169360
    20  C   -0.218484
    21  H    0.227901
    22  H    0.216340
    23  H    0.277206
    24  H    0.277540
    25  H    0.226169
    26  N    0.488010
    27  O   -0.458955
    28  O   -0.459597
 Sum of Mulliken charges =  -0.00000

 Dipole moment (field-independent basis, Debye):
    X=             -3.8491    Y=              5.0100    Z=              2.2638  Tot=              6.7113
 Quadrupole moment (field-independent basis, Debye-Ang):
   XX=           -144.7467   YY=           -107.3957   ZZ=           -100.9244
   XY=            -21.6383   XZ=              7.4556   YZ=             -1.2667

 Normal termination of Gaussian 16 at Thu May  6 09:52:51 2021.
