 Gaussian 16, Revision A.03,
 Gaussian 16:  EM64L-G16RevA.03 25-Dec-2016

 -------------
 #p 6-31g* mp2
 -------------

 ------------------------------------------------------
 Input file generated by CHIRIPA (05-May-2021 14:51:14)
 ------------------------------------------------------
 Symbolic Z-matrix:
 Charge =  0 Multiplicity = 1

                         Standard orientation:
 ---------------------------------------------------------------------
 Center     Atomic      Atomic             Coordinates (Angstroms)
 Number     Number       Type             X           Y           Z
 ---------------------------------------------------------------------
      1          6           0       -3.402972    0.512293    0.317319
      2          6           0       -3.817843    1.214695   -0.975932
      3          6           0       -4.555400    2.530085   -0.723835
      4          1           0       -4.296988    0.322056    0.926820
      5          1           0       -2.762787    1.186230    0.903295
      6          1           0       -4.455927    0.539117   -1.559935
      7          1           0       -2.922759    1.403111   -1.582511
      8          1           0       -3.922769    3.224942   -0.162094
      9          1           0       -5.464648    2.356039   -0.139390
     10          1           0       -4.842707    3.015406   -1.661800
     11          6           0       -2.664584   -0.804143    0.081722
     12          6           0       -2.249713   -1.506545    1.374973
     13          6           0       -1.512156   -2.821935    1.122876
     14          1           0       -3.304769   -1.478080   -0.504254
     15          1           0       -1.770568   -0.613905   -0.527779
     16          1           0       -3.144797   -1.694960    1.981552
     17          1           0       -1.611629   -0.830966    1.958976
     18          1           0       -0.602908   -2.647889    0.538431
     19          1           0       -2.144787   -3.516792    0.561135
     20          1           0       -1.224849   -3.307256    2.060841
     21          6           0        3.218331   -0.586678   -0.312066
     22          6           0        2.086635   -1.409187   -0.929097
     23          6           0        2.471072   -2.872747   -1.148164
     24          1           0        4.100780   -0.641825   -0.964130
     25          1           0        3.509450   -1.037737    0.646678
     26          1           0        1.796799   -0.955911   -1.885733
     27          1           0        1.206717   -1.351918   -0.275584
     28          1           0        2.740345   -3.346597   -0.198660
     29          1           0        3.333780   -2.948340   -1.817957
     30          1           0        1.647559   -3.442332   -1.590049
     31          6           0        2.849225    0.878527   -0.086975
     32          6           0        3.980921    1.701036    0.530056
     33          6           0        3.596484    3.164598    0.749124
     34          1           0        2.558106    1.329586   -1.045720
     35          1           0        1.966776    0.933674    0.565090
     36          1           0        4.860839    1.643768   -0.123458
     37          1           0        4.270757    1.247761    1.486693
     38          1           0        2.733776    3.240189    1.418917
     39          1           0        3.327211    3.638447   -0.200382
     40          1           0        4.419997    3.734180    1.191008
 ---------------------------------------------------------------------

 SCF Done:  E(RHF) =  -470.733314707     A.U. after   11 cycles
 E2 =    -0.1582968190D+01 EUMP2 =    -0.47231628289698D+03

 The electronic state is 1-A.
 Alpha  occ. eigenvalues --  -11.21655 -11.21641 -11.21609 -11.21588 -11.21455
 Alpha  occ. eigenvalues --  -11.21395 -11.21394 -11.21335 -11.21107 -11.21101
 Alpha  occ. eigenvalues --  -11.21060 -11.21047  -1.08483  -1.08421  -1.03588
 Alpha  occ. eigenvalues --   -1.03513  -0.96030  -0.95963  -0.87035  -0.86989
 Alpha  occ. eigenvalues --   -0.79669  -0.79562  -0.78317  -0.78213  -0.65189
 Alpha  occ. eigenvalues --   -0.64992  -0.61140  -0.60787  -0.59411  -0.59316
 Alpha  occ. eigenvalues --   -0.57682  -0.57535  -0.55392  -0.55172  -0.52714
 Alpha  occ. eigenvalues --   -0.52665  -0.52452  -0.52383  -0.49998  -0.49888
 Alpha  occ. eigenvalues --   -0.48035  -0.47857  -0.46816  -0.46496  -0.45949
 Alpha  occ. eigenvalues --   -0.45781  -0.45733  -0.45508  -0.43828  -0.43776
 Alpha virt. eigenvalues --    0.20525   0.23272   0.23446   0.24715   0.26051
 Alpha virt. eigenvalues --    0.26780   0.27009   0.27529   0.28513   0.28842
 Alpha virt. eigenvalues --    0.30789   0.31508   0.31696   0.31747   0.32146

 Mulliken charges:
               1
     1  C   -0.298136
     2  C   -0.299703
     3  C   -0.475716
     4  H    0.149586
     5  H    0.149374
     6  H    0.151853
     7  H    0.152236
     8  H    0.155242
     9  H    0.155105
    10  H    0.160216
    11  C   -0.300337
    12  C   -0.299116
    13  C   -0.483319
    14  H    0.149536
    15  H    0.151575
    16  H    0.152127
    17  H    0.150921
    18  H    0.162766
    19  H    0.155354
    20  H    0.160028
    21  C   -0.297679
    22  C   -0.307480
    23  C   -0.476071
    24  H    0.149984
    25  H    0.149832
    26  H    0.152144
    27  H    0.157439
    28  H    0.155760
    29  H    0.155484
    30  H    0.161227
    31  C   -0.298379
    32  C   -0.299693
    33  C   -0.475739
    34  H    0.149502
    35  H    0.149104
    36  H    0.152146
    37  H    0.152108
    38  H    0.155040
    39  H    0.155212
    40  H    0.160469
 Sum of Mulliken charges =  -0.00000

 Dipole moment (field-independent basis, Debye):
    X=              0.0276    Y=             -0.0080    Z=             -0.0158  Tot=              0.0327
 Quadrupole moment (field-independent basis, Debye-Ang):
   XX=            -84.1301   YY=            -86.5749   ZZ=            -83.9679
   XY=              1.1717   XZ=             -0.2841   YZ=             -0.4489

 Normal termination of Gaussian 16 at Thu May  6 04:00:52 2021.
