 Gaussian 16, Revision A.03,
 Gaussian 16:  EM64L-G16RevA.03 25-Dec-2016

 -------------
 #p 6-31g* mp2
 -------------

 ------------------------------------------------------
 Input file generated by CHIRIPA (05-May-2021 14:53:13)
 ------------------------------------------------------
 Symbolic Z-matrix:
 Charge =  0 Multiplicity = 1

                         Standard orientation:
 ---------------------------------------------------------------------
 Center     Atomic      Atomic             Coordinates (Angstroms)
 Number     Number       Type             X           Y           Z
 ---------------------------------------------------------------------
      1          6           0        5.605323   -0.478757   -0.109212
      2          6           0        6.564976    0.667059   -0.431946
      3          6           0        7.938437    0.176356   -0.890868
      4          1           0        6.049569   -1.111920    0.670978
      5          1           0        5.490552   -1.113273   -0.998938
      6          1           0        6.676824    1.300008    0.457706
      7          1           0        6.118309    1.297676   -1.211322
      8          1           0        7.846597   -0.437811   -1.792514
      9          1           0        8.408285   -0.435465   -0.114002
     10          1           0        8.608539    1.011828   -1.116274
     11          6           0        4.228124   -0.004129    0.350983
     12          6           0        3.268472   -1.149946    0.673717
     13          6           0        1.895011   -0.659242    1.132639
     14          1           0        4.342895    0.630386    1.240710
     15          1           0        3.783879    0.629033   -0.429207
     16          1           0        3.715138   -1.780563    1.453093
     17          1           0        3.156624   -1.782895   -0.215935
     18          1           0        1.425163   -0.047422    0.355774
     19          1           0        1.986851   -0.045076    2.034285
     20          1           0        1.224909   -1.494715    1.358046
     21          6           0       -2.445151    2.266437    0.221316
     22          6           0       -1.841353    1.005235    0.257608
     23          6           0       -2.605057   -0.152834    0.083878
     24          6           0       -3.976154   -0.012247   -0.124969
     25          6           0       -4.606925    1.230212   -0.166366
     26          6           0       -3.823580    2.374710    0.009819
     27          1           0       -1.844257    3.160781    0.357228
     28          1           0       -0.771056    0.918123    0.421685
     29          1           0       -2.163376   -1.141664    0.107348
     30          1           0       -5.676058    1.285168   -0.331755
     31          1           0       -4.295197    3.352872   -0.018850
     32          7           0       -4.795051   -1.231060   -0.310187
     33          8           0       -6.001126   -1.080287   -0.492638
     34          8           0       -4.215321   -2.314059   -0.269404
 ---------------------------------------------------------------------

 SCF Done:  E(RHF) =  -669.535629345     A.U. after   15 cycles
 E2 =    -0.2090794344D+01 EUMP2 =    -0.67162642368932D+03

 The electronic state is 1-A.
 Alpha  occ. eigenvalues --  -20.60706 -20.60701 -15.85758 -11.31106 -11.27676
 Alpha  occ. eigenvalues --  -11.27654 -11.27406 -11.26693 -11.26622 -11.22312
 Alpha  occ. eigenvalues --  -11.22119 -11.22008 -11.21995 -11.21833 -11.21394
 Alpha  occ. eigenvalues --   -1.59781  -1.39335  -1.19273  -1.08995  -1.08673
 Alpha  occ. eigenvalues --   -1.04671  -1.04129  -0.96607  -0.95512  -0.87637
 Alpha  occ. eigenvalues --   -0.86070  -0.82343  -0.80205  -0.78781  -0.77390
 Alpha  occ. eigenvalues --   -0.71977  -0.71104  -0.70386  -0.65627  -0.64923
 Alpha  occ. eigenvalues --   -0.64687  -0.62064  -0.61493  -0.59974  -0.58194
 Alpha  occ. eigenvalues --   -0.55916  -0.55175  -0.53329  -0.53128  -0.53005
 Alpha  occ. eigenvalues --   -0.52643  -0.50534  -0.48742  -0.48733  -0.48497
 Alpha  occ. eigenvalues --   -0.47211  -0.46332  -0.46230  -0.44745  -0.44368
 Alpha  occ. eigenvalues --   -0.37259  -0.36273
 Alpha virt. eigenvalues --    0.05136   0.11369   0.16624   0.20324   0.22435
 Alpha virt. eigenvalues --    0.23769   0.25293   0.26240   0.26961   0.28105
 Alpha virt. eigenvalues --    0.29008   0.29581   0.31083   0.31403   0.32109

 Mulliken charges:
               1
     1  C   -0.298886
     2  C   -0.299983
     3  C   -0.476036
     4  H    0.151169
     5  H    0.151083
     6  H    0.151962
     7  H    0.151721
     8  H    0.156078
     9  H    0.156006
    10  H    0.161110
    11  C   -0.298964
    12  C   -0.299346
    13  C   -0.482389
    14  H    0.149627
    15  H    0.148298
    16  H    0.156047
    17  H    0.155356
    18  H    0.147273
    19  H    0.157652
    20  H    0.163881
    21  C   -0.172547
    22  C   -0.226159
    23  C   -0.173844
    24  C    0.158737
    25  C   -0.171376
    26  C   -0.218418
    27  H    0.225733
    28  H    0.235821
    29  H    0.275487
    30  H    0.275241
    31  H    0.222956
    32  N    0.488130
    33  O   -0.460781
    34  O   -0.460637
 Sum of Mulliken charges =  -0.00000

 Dipole moment (field-independent basis, Debye):
    X=              3.1220    Y=              4.2397    Z=              0.6784  Tot=              5.3087
 Quadrupole moment (field-independent basis, Debye-Ang):
   XX=           -114.8765   YY=            -93.6691   ZZ=            -94.8916
   XY=            -19.9045   XZ=             -1.7683   YZ=             -0.9841

 Normal termination of Gaussian 16 at Wed May  5 15:31:41 2021.
