 Gaussian 16, Revision A.03,
 Gaussian 16:  EM64L-G16RevA.03 25-Dec-2016

 -------------
 #p 6-31g* mp2
 -------------

 ------------------------------------------------------
 Input file generated by CHIRIPA (05-May-2021 14:57:25)
 ------------------------------------------------------
 Symbolic Z-matrix:
 Charge =  0 Multiplicity = 1

                         Standard orientation:
 ---------------------------------------------------------------------
 Center     Atomic      Atomic             Coordinates (Angstroms)
 Number     Number       Type             X           Y           Z
 ---------------------------------------------------------------------
      1          6           0       -5.102492    1.258133    0.559396
      2          6           0       -3.876619    1.509513    1.184348
      3          6           0       -2.735275    0.786183    0.825634
      4          6           0       -2.856378   -0.185615   -0.166451
      5          6           0       -4.063603   -0.459280   -0.807548
      6          6           0       -5.191914    0.276270   -0.432808
      7          1           0       -5.984053    1.824779    0.844279
      8          1           0       -3.804212    2.271443    1.955234
      9          1           0       -1.773767    0.960314    1.293179
     10          1           0       -4.104587   -1.225103   -1.572567
     11          1           0       -6.142635    0.078898   -0.919860
     12          7           0       -1.654988   -0.957841   -0.554689
     13          8           0       -1.788017   -1.808684   -1.431619
     14          8           0       -0.603057   -0.697645    0.025291
     15          6           0        2.424965   -2.053346    1.331499
     16          6           0        2.666832   -0.874297    2.044145
     17          6           0        3.016249    0.301636    1.373596
     18          6           0        3.115232    0.262494   -0.016354
     19          6           0        2.880432   -0.896488   -0.754540
     20          6           0        2.532347   -2.060666   -0.063111
     21          1           0        2.154047   -2.962274    1.860508
     22          1           0        2.584178   -0.865667    3.127261
     23          1           0        3.208946    1.228300    1.900454
     24          1           0        2.970627   -0.874051   -1.833790
     25          1           0        2.345082   -2.974876   -0.619166
     26          7           0        3.484439    1.501179   -0.737287
     27          8           0        3.565057    1.440488   -1.962217
     28          8           0        3.686215    2.509298   -0.063773
 ---------------------------------------------------------------------

 SCF Done:  E(RHF) =  -868.338078016     A.U. after   16 cycles
 E2 =    -0.2600347938D+01 EUMP2 =    -0.87093842595309D+03

 The electronic state is 1-A.
 Alpha  occ. eigenvalues --  -20.61137 -20.61122 -20.59788 -20.59769 -15.86165
 Alpha  occ. eigenvalues --  -15.84821 -11.31419 -11.29847 -11.27978 -11.27972
 Alpha  occ. eigenvalues --  -11.27696 -11.26966 -11.26955 -11.26472 -11.26311
 Alpha  occ. eigenvalues --  -11.26093 -11.25468 -11.25259  -1.60211  -1.58862
 Alpha  occ. eigenvalues --   -1.39766  -1.38426  -1.19583  -1.17971  -1.09001
 Alpha  occ. eigenvalues --   -1.07453  -1.04968  -1.03358  -0.95855  -0.94355
 Alpha  occ. eigenvalues --   -0.86372  -0.84806  -0.82689  -0.81221  -0.77752
 Alpha  occ. eigenvalues --   -0.76299  -0.72408  -0.71524  -0.71062  -0.70690
 Alpha  occ. eigenvalues --   -0.70169  -0.69176  -0.65239  -0.64971  -0.63678
 Alpha  occ. eigenvalues --   -0.63434  -0.62318  -0.60767  -0.55477  -0.53938
 Alpha  occ. eigenvalues --   -0.53303  -0.53062  -0.51694  -0.51517  -0.49166
 Alpha  occ. eigenvalues --   -0.49058  -0.47827  -0.47784  -0.45205  -0.43909
 Alpha  occ. eigenvalues --   -0.37559  -0.36566  -0.35883  -0.34843
 Alpha virt. eigenvalues --    0.04757   0.06254   0.11090   0.12746   0.16292
 Alpha virt. eigenvalues --    0.17826   0.21243   0.22622   0.27153   0.28122
 Alpha virt. eigenvalues --    0.28521   0.29468   0.30807   0.32106   0.32326

 Mulliken charges:
               1
     1  C   -0.170290
     2  C   -0.218319
     3  C   -0.170585
     4  C    0.157933
     5  C   -0.170681
     6  C   -0.218483
     7  H    0.226622
     8  H    0.224516
     9  H    0.275575
    10  H    0.275370
    11  H    0.224134
    12  N    0.489222
    13  O   -0.463402
    14  O   -0.460418
    15  C   -0.163684
    16  C   -0.217453
    17  C   -0.173533
    18  C    0.160192
    19  C   -0.162810
    20  C   -0.199722
    21  H    0.219990
    22  H    0.215159
    23  H    0.267991
    24  H    0.272312
    25  H    0.222522
    26  N    0.487710
    27  O   -0.462778
    28  O   -0.467090
 Sum of Mulliken charges =  -0.00000

 Dipole moment (field-independent basis, Debye):
    X=             -5.8509    Y=             -1.8257    Z=              3.7929  Tot=              7.2078
 Quadrupole moment (field-independent basis, Debye-Ang):
   XX=            -89.2647   YY=           -106.7994   ZZ=           -100.3914
   XY=            -20.1572   XZ=              6.6461   YZ=              4.6283

 Normal termination of Gaussian 16 at Wed May  5 16:28:16 2021.
