 Gaussian 16, Revision A.03,
 Gaussian 16:  EM64L-G16RevA.03 25-Dec-2016

 -------------
 #p 6-31g* mp2
 -------------

 ------------------------------------------------------
 Input file generated by CHIRIPA (05-May-2021 14:53:17)
 ------------------------------------------------------
 Symbolic Z-matrix:
 Charge =  0 Multiplicity = 1

                         Standard orientation:
 ---------------------------------------------------------------------
 Center     Atomic      Atomic             Coordinates (Angstroms)
 Number     Number       Type             X           Y           Z
 ---------------------------------------------------------------------
      1          6           0       -3.869252   -0.486677   -0.176934
      2          6           0       -3.286500   -1.780547   -0.746395
      3          6           0       -4.244946   -2.965374   -0.622457
      4          1           0       -4.127625   -0.642173    0.879479
      5          1           0       -4.808778   -0.255506   -0.697747
      6          1           0       -2.347642   -2.008469   -0.225613
      7          1           0       -3.029306   -1.621894   -1.801523
      8          1           0       -5.178511   -2.763280   -1.157448
      9          1           0       -4.492973   -3.152051    0.427417
     10          1           0       -3.808261   -3.879927   -1.035688
     11          6           0       -2.922845    0.706825   -0.293536
     12          6           0       -3.505597    2.000695    0.275924
     13          6           0       -2.547151    3.185523    0.151986
     14          1           0       -1.983319    0.475655    0.227276
     15          1           0       -2.664472    0.862322   -1.349950
     16          1           0       -3.762790    1.842043    1.331053
     17          1           0       -4.444455    2.228617   -0.244858
     18          1           0       -2.299123    3.372200   -0.897887
     19          1           0       -1.613586    2.983429    0.686977
     20          1           0       -2.983835    4.100075    0.565217
     21          6           0        4.118515    0.166470   -1.854587
     22          6           0        2.848827    0.752750   -1.828275
     23          6           0        2.028345    0.619366   -0.704191
     24          6           0        2.511498   -0.110403    0.380840
     25          6           0        3.771733   -0.706289    0.384915
     26          6           0        4.575110   -0.559898   -0.749855
     27          1           0        4.749241    0.275138   -2.731953
     28          1           0        2.491618    1.317419   -2.684778
     29          1           0        1.041174    1.062868   -0.657094
     30          1           0        4.100301   -1.263261    1.253963
     31          1           0        5.560723   -1.016298   -0.767487
     32          7           0        1.651944   -0.258495    1.576513
     33          8           0        2.100835   -0.906419    2.519557
     34          8           0        0.545612    0.276157    1.547999
 ---------------------------------------------------------------------

 SCF Done:  E(RHF) =  -669.536558230     A.U. after   15 cycles
 E2 =    -0.2091461583D+01 EUMP2 =    -0.67162801981239D+03

 The electronic state is 1-A.
 Alpha  occ. eigenvalues --  -20.60985 -20.60965 -15.86012 -11.31278 -11.27844
 Alpha  occ. eigenvalues --  -11.27825 -11.27576 -11.26842 -11.26827 -11.21068
 Alpha  occ. eigenvalues --  -11.20977 -11.20759 -11.20620 -11.20598 -11.20566
 Alpha  occ. eigenvalues --   -1.60037  -1.39595  -1.19447  -1.08862  -1.07799
 Alpha  occ. eigenvalues --   -1.04835  -1.02969  -0.95712  -0.95422  -0.86448
 Alpha  occ. eigenvalues --   -0.86239  -0.82549  -0.79040  -0.77719  -0.77503
 Alpha  occ. eigenvalues --   -0.72240  -0.71347  -0.70557  -0.65110  -0.64840
 Alpha  occ. eigenvalues --   -0.64395  -0.62182  -0.60352  -0.58799  -0.57044
 Alpha  occ. eigenvalues --   -0.55346  -0.54695  -0.53171  -0.52927  -0.52149
 Alpha  occ. eigenvalues --   -0.51866  -0.49362  -0.49003  -0.48980  -0.47364
 Alpha  occ. eigenvalues --   -0.46048  -0.45243  -0.45166  -0.44774  -0.43200
 Alpha  occ. eigenvalues --   -0.37427  -0.36434
 Alpha virt. eigenvalues --    0.04895   0.11217   0.16386   0.20897   0.23345
 Alpha virt. eigenvalues --    0.24333   0.26474   0.27328   0.27650   0.28576
 Alpha virt. eigenvalues --    0.29122   0.30911   0.31658   0.32185   0.32445

 Mulliken charges:
               1
     1  C   -0.296853
     2  C   -0.300389
     3  C   -0.475355
     4  H    0.152816
     5  H    0.145789
     6  H    0.156977
     7  H    0.146770
     8  H    0.153197
     9  H    0.156829
    10  H    0.158000
    11  C   -0.313610
    12  C   -0.296977
    13  C   -0.479977
    14  H    0.176849
    15  H    0.138991
    16  H    0.155687
    17  H    0.147897
    18  H    0.147007
    19  H    0.164460
    20  H    0.158835
    21  C   -0.170382
    22  C   -0.219036
    23  C   -0.171384
    24  C    0.157516
    25  C   -0.170785
    26  C   -0.218707
    27  H    0.225981
    28  H    0.224226
    29  H    0.278486
    30  H    0.275631
    31  H    0.223730
    32  N    0.493045
    33  O   -0.458623
    34  O   -0.466643
 Sum of Mulliken charges =  -0.00000

 Dipole moment (field-independent basis, Debye):
    X=              3.2346    Y=              0.4661    Z=             -4.0276  Tot=              5.1866
 Quadrupole moment (field-independent basis, Debye-Ang):
   XX=            -77.9636   YY=            -95.3291   ZZ=            -96.7342
   XY=             -1.8023   XZ=             -8.0623   YZ=             -0.9096

 Normal termination of Gaussian 16 at Thu May  6 07:32:56 2021.
