 Gaussian 16, Revision A.03,
 Gaussian 16:  EM64L-G16RevA.03 25-Dec-2016

 -------------
 #p 6-31g* mp2
 -------------

 ------------------------------------------------------
 Input file generated by CHIRIPA (05-May-2021 14:53:18)
 ------------------------------------------------------
 Symbolic Z-matrix:
 Charge =  0 Multiplicity = 1

                         Standard orientation:
 ---------------------------------------------------------------------
 Center     Atomic      Atomic             Coordinates (Angstroms)
 Number     Number       Type             X           Y           Z
 ---------------------------------------------------------------------
      1          6           0       -3.329752    1.010589    0.199693
      2          6           0       -3.556262    2.271956   -0.634352
      3          6           0       -3.019560    3.533073    0.043386
      4          1           0       -3.811010    1.135172    1.179394
      5          1           0       -2.254134    0.895011    0.392259
      6          1           0       -4.631006    2.384367   -0.826460
      7          1           0       -3.074572    2.144279   -1.612253
      8          1           0       -1.942666    3.446578    0.220636
      9          1           0       -3.507943    3.688030    1.010894
     10          1           0       -3.192021    4.422891   -0.570081
     11          6           0       -3.860880   -0.258407   -0.464598
     12          6           0       -3.634370   -1.519774    0.369447
     13          6           0       -4.171072   -2.780891   -0.308291
     14          1           0       -4.936498   -0.142830   -0.657165
     15          1           0       -3.379622   -0.382990   -1.444299
     16          1           0       -4.116060   -1.392098    1.347348
     17          1           0       -2.559626   -1.632185    0.561554
     18          1           0       -3.682689   -2.935848   -1.275799
     19          1           0       -5.247966   -2.694396   -0.485541
     20          1           0       -3.998611   -3.670709    0.305176
     21          6           0        0.681149   -1.484227    0.752927
     22          6           0        1.285102   -1.752618   -0.479844
     23          6           0        2.464160   -1.098965   -0.850125
     24          6           0        3.014538   -0.178737    0.040692
     25          6           0        2.436592    0.110212    1.275915
     26          6           0        1.257804   -0.555306    1.625335
     27          1           0       -0.234667   -1.996609    1.032467
     28          1           0        0.839498   -2.473542   -1.159368
     29          1           0        2.952709   -1.287734   -1.798335
     30          1           0        2.904335    0.834011    1.932231
     31          1           0        0.790966   -0.344877    2.583368
     32          7           0        4.262611    0.519538   -0.340265
     33          8           0        4.727617    1.325914    0.462333
     34          8           0        4.752211    0.247246   -1.434242
 ---------------------------------------------------------------------

 SCF Done:  E(RHF) =  -669.535651279     A.U. after   15 cycles
 E2 =    -0.2091502516D+01 EUMP2 =    -0.67162715379426D+03

 The electronic state is 1-A.
 Alpha  occ. eigenvalues --  -20.60795 -20.60790 -15.85849 -11.31232 -11.27795
 Alpha  occ. eigenvalues --  -11.27791 -11.27527 -11.26820 -11.26810 -11.22606
 Alpha  occ. eigenvalues --  -11.22116 -11.22049 -11.21964 -11.21961 -11.21416
 Alpha  occ. eigenvalues --   -1.59870  -1.39423  -1.19403  -1.09122  -1.08794
 Alpha  occ. eigenvalues --   -1.04805  -1.04204  -0.96625  -0.95628  -0.87644
 Alpha  occ. eigenvalues --   -0.86200  -0.82460  -0.80299  -0.78915  -0.77501
 Alpha  occ. eigenvalues --   -0.72066  -0.71193  -0.70528  -0.65754  -0.65053
 Alpha  occ. eigenvalues --   -0.64801  -0.62149  -0.61608  -0.60023  -0.58240
 Alpha  occ. eigenvalues --   -0.55911  -0.55320  -0.53329  -0.53133  -0.53043
 Alpha  occ. eigenvalues --   -0.52893  -0.50568  -0.48831  -0.48820  -0.48589
 Alpha  occ. eigenvalues --   -0.47334  -0.46449  -0.46354  -0.44824  -0.44446
 Alpha  occ. eigenvalues --   -0.37370  -0.36409
 Alpha virt. eigenvalues --    0.04995   0.11222   0.16357   0.19915   0.22676
 Alpha virt. eigenvalues --    0.23733   0.25404   0.26391   0.27154   0.27530
 Alpha virt. eigenvalues --    0.28863   0.30280   0.31018   0.31257   0.32216

 Mulliken charges:
               1
     1  C   -0.300270
     2  C   -0.300010
     3  C   -0.476396
     4  H    0.149310
     5  H    0.149041
     6  H    0.152839
     7  H    0.153632
     8  H    0.156421
     9  H    0.154761
    10  H    0.162675
    11  C   -0.297707
    12  C   -0.303650
    13  C   -0.476096
    14  H    0.152648
    15  H    0.150573
    16  H    0.154520
    17  H    0.141862
    18  H    0.154608
    19  H    0.159979
    20  H    0.159568
    21  C   -0.174318
    22  C   -0.220289
    23  C   -0.170979
    24  C    0.158737
    25  C   -0.171044
    26  C   -0.220306
    27  H    0.232637
    28  H    0.223681
    29  H    0.275736
    30  H    0.275843
    31  H    0.224499
    32  N    0.488011
    33  O   -0.460220
    34  O   -0.460299
 Sum of Mulliken charges =  -0.00000

 Dipole moment (field-independent basis, Debye):
    X=             -4.5028    Y=             -2.3921    Z=              1.3017  Tot=              5.2623
 Quadrupole moment (field-independent basis, Debye-Ang):
   XX=           -120.7562   YY=            -94.0819   ZZ=            -90.9389
   XY=             -7.2138   XZ=              3.4475   YZ=              1.8665

 Normal termination of Gaussian 16 at Thu May  6 09:10:26 2021.
