 Gaussian 16, Revision A.03,
 Gaussian 16:  EM64L-G16RevA.03 25-Dec-2016

 -------------
 #p 6-31g* mp2
 -------------

 ------------------------------------------------------
 Input file generated by CHIRIPA (05-May-2021 14:53:12)
 ------------------------------------------------------
 Symbolic Z-matrix:
 Charge =  0 Multiplicity = 1

                         Standard orientation:
 ---------------------------------------------------------------------
 Center     Atomic      Atomic             Coordinates (Angstroms)
 Number     Number       Type             X           Y           Z
 ---------------------------------------------------------------------
      1          6           0       -3.312403   -0.412623    0.502287
      2          6           0       -4.039370   -1.735942    0.260771
      3          6           0       -3.409460   -2.903711    1.020588
      4          1           0       -2.260150   -0.520147    0.205392
      5          1           0       -3.312541   -0.193411    1.579014
      6          1           0       -4.039068   -1.951902   -0.815322
      7          1           0       -5.090060   -1.625197    0.558097
      8          1           0       -3.423623   -2.714217    2.098778
      9          1           0       -2.366660   -3.042779    0.717555
     10          1           0       -3.944818   -3.839811    0.833588
     11          6           0       -3.930378    0.764258   -0.250565
     12          6           0       -3.203411    2.087577   -0.009049
     13          6           0       -3.833321    3.255346   -0.768866
     14          1           0       -3.930240    0.545046   -1.327292
     15          1           0       -4.982631    0.871783    0.046331
     16          1           0       -2.152721    1.976832   -0.306374
     17          1           0       -3.203713    2.303538    1.067044
     18          1           0       -4.876121    3.394414   -0.465833
     19          1           0       -3.819158    3.065853   -1.847055
     20          1           0       -3.297962    4.191446   -0.581866
     21          6           0        4.572867    1.481333    0.741569
     22          6           0        3.216517    1.816510    0.808605
     23          6           0        2.241737    0.927388    0.346204
     24          6           0        2.660641   -0.293846   -0.179527
     25          6           0        4.004213   -0.656682   -0.259857
     26          6           0        4.961701    0.247982    0.208491
     27          1           0        5.323382    2.178062    1.103083
     28          1           0        2.911630    2.773646    1.222103
     29          1           0        1.184821    1.161379    0.386155
     30          1           0        4.277442   -1.618194   -0.677300
     31          1           0        6.014338   -0.014993    0.155178
     32          7           0        1.637839   -1.243347   -0.672199
     33          8           0        2.032812   -2.313017   -1.130936
     34          8           0        0.460561   -0.899916   -0.590289
 ---------------------------------------------------------------------

 SCF Done:  E(RHF) =  -669.536427335     A.U. after   15 cycles
 E2 =    -0.2091195282D+01 EUMP2 =    -0.67162762261729D+03

 The electronic state is 1-A.
 Alpha  occ. eigenvalues --  -20.60992 -20.60981 -15.86032 -11.31313 -11.27873
 Alpha  occ. eigenvalues --  -11.27869 -11.27606 -11.26874 -11.26864 -11.21143
 Alpha  occ. eigenvalues --  -11.20737 -11.20626 -11.20575 -11.20223 -11.19977
 Alpha  occ. eigenvalues --   -1.60052  -1.39610  -1.19479  -1.08890  -1.07589
 Alpha  occ. eigenvalues --   -1.04870  -1.02758  -0.95739  -0.95193  -0.86273
 Alpha  occ. eigenvalues --   -0.86217  -0.82577  -0.78865  -0.77654  -0.77332
 Alpha  occ. eigenvalues --   -0.72260  -0.71364  -0.70589  -0.65140  -0.64873
 Alpha  occ. eigenvalues --   -0.64196  -0.62218  -0.60144  -0.58611  -0.56807
 Alpha  occ. eigenvalues --   -0.55377  -0.54457  -0.53204  -0.52962  -0.51949
 Alpha  occ. eigenvalues --   -0.51620  -0.49142  -0.49015  -0.48982  -0.47177
 Alpha  occ. eigenvalues --   -0.45898  -0.45083  -0.44909  -0.44676  -0.42980
 Alpha  occ. eigenvalues --   -0.37457  -0.36470
 Alpha virt. eigenvalues --    0.04893   0.11185   0.16393   0.20875   0.23392
 Alpha virt. eigenvalues --    0.24992   0.25775   0.27457   0.27769   0.28729
 Alpha virt. eigenvalues --    0.29240   0.31104   0.31786   0.32336   0.32363

 Mulliken charges:
               1
     1  C   -0.312147
     2  C   -0.297302
     3  C   -0.478605
     4  H    0.178640
     5  H    0.141999
     6  H    0.153450
     7  H    0.145980
     8  H    0.149664
     9  H    0.168143
    10  H    0.156183
    11  C   -0.296620
    12  C   -0.299822
    13  C   -0.474962
    14  H    0.151076
    15  H    0.145988
    16  H    0.151172
    17  H    0.148049
    18  H    0.154773
    19  H    0.156132
    20  H    0.155413
    21  C   -0.170466
    22  C   -0.218762
    23  C   -0.171217
    24  C    0.157317
    25  C   -0.170542
    26  C   -0.218641
    27  H    0.226105
    28  H    0.224220
    29  H    0.276736
    30  H    0.275846
    31  H    0.223876
    32  N    0.496690
    33  O   -0.458682
    34  O   -0.469686
 Sum of Mulliken charges =  -0.00000

 Dipole moment (field-independent basis, Debye):
    X=              3.9014    Y=              3.2362    Z=              1.6428  Tot=              5.3284
 Quadrupole moment (field-independent basis, Debye-Ang):
   XX=            -73.9048   YY=            -96.2745   ZZ=            -95.6765
   XY=              5.6613   XZ=              2.8069   YZ=              0.6713

 Normal termination of Gaussian 16 at Wed May  5 15:29:26 2021.
