 Gaussian 16, Revision A.03,
 Gaussian 16:  EM64L-G16RevA.03 25-Dec-2016

 -------------
 #p 6-31g* mp2
 -------------

 ------------------------------------------------------
 Input file generated by CHIRIPA (05-May-2021 14:55:20)
 ------------------------------------------------------
 Symbolic Z-matrix:
 Charge =  0 Multiplicity = 1

                         Standard orientation:
 ---------------------------------------------------------------------
 Center     Atomic      Atomic             Coordinates (Angstroms)
 Number     Number       Type             X           Y           Z
 ---------------------------------------------------------------------
      1          6           0       -4.582464   -1.115998   -0.909900
      2          6           0       -4.469188    0.259835   -0.684569
      3          6           0       -3.348772    0.782533   -0.031880
      4          6           0       -2.356049   -0.103405    0.383939
      5          6           0       -2.439923   -1.478988    0.174114
      6          6           0       -3.569256   -1.979496   -0.480596
      7          1           0       -5.456294   -1.513423   -1.417709
      8          1           0       -5.254508    0.932808   -1.016871
      9          1           0       -3.235501    1.843415    0.155515
     10          1           0       -1.640742   -2.124879    0.516973
     11          1           0       -3.654547   -3.048430   -0.654234
     12          7           0       -1.165194    0.438206    1.075981
     13          8           0       -0.304394   -0.363381    1.432521
     14          8           0       -1.115150    1.654051    1.248760
     15          6           0        3.410190   -0.477869   -0.540484
     16          6           0        4.526815   -1.118518    0.284563
     17          6           0        4.801707   -2.567897   -0.117347
     18          1           0        2.492710   -1.071512   -0.427514
     19          1           0        3.680226   -0.519303   -1.604795
     20          1           0        4.255382   -1.074646    1.347115
     21          1           0        5.441694   -0.523173    0.169768
     22          1           0        5.097293   -2.626367   -1.169872
     23          1           0        3.904241   -3.180974    0.014163
     24          1           0        5.603389   -3.006406    0.485043
     25          6           0        3.123738    0.971102   -0.150414
     26          6           0        2.007113    1.611752   -0.975460
     27          6           0        1.732223    3.061130   -0.573550
     28          1           0        2.853703    1.012535    0.913897
     29          1           0        4.041219    1.564746   -0.263383
     30          1           0        1.092235    1.016407   -0.860666
     31          1           0        2.278546    1.567879   -2.038011
     32          1           0        2.629688    3.674206   -0.705059
     33          1           0        1.436636    3.119600    0.478976
     34          1           0        0.930539    3.499638   -1.175940
 ---------------------------------------------------------------------

 SCF Done:  E(RHF) =  -669.536462810     A.U. after   15 cycles
 E2 =    -0.2092601076D+01 EUMP2 =    -0.67162906388578D+03

 The electronic state is 1-A.
 Alpha  occ. eigenvalues --  -20.61095 -20.61072 -15.86080 -11.31358 -11.27916
 Alpha  occ. eigenvalues --  -11.27909 -11.27642 -11.26908 -11.26898 -11.20681
 Alpha  occ. eigenvalues --  -11.20382 -11.20354 -11.20278 -11.20042 -11.19624
 Alpha  occ. eigenvalues --   -1.60131  -1.39686  -1.19520  -1.08936  -1.07264
 Alpha  occ. eigenvalues --   -1.04908  -1.02421  -0.95786  -0.94859  -0.86311
 Alpha  occ. eigenvalues --   -0.85885  -0.82621  -0.78519  -0.77681  -0.77083
 Alpha  occ. eigenvalues --   -0.72309  -0.71468  -0.70629  -0.65176  -0.64913
 Alpha  occ. eigenvalues --   -0.63848  -0.62255  -0.59787  -0.58278  -0.56493
 Alpha  occ. eigenvalues --   -0.55415  -0.54119  -0.53238  -0.52998  -0.51605
 Alpha  occ. eigenvalues --   -0.51308  -0.49119  -0.49064  -0.48735  -0.46833
 Alpha  occ. eigenvalues --   -0.45548  -0.45112  -0.44605  -0.44454  -0.42663
 Alpha  occ. eigenvalues --   -0.37496  -0.36505
 Alpha virt. eigenvalues --    0.04802   0.11151   0.16268   0.21255   0.24015
 Alpha virt. eigenvalues --    0.25366   0.27169   0.27510   0.28370   0.28585
 Alpha virt. eigenvalues --    0.29022   0.30934   0.32290   0.32483   0.32666

 Mulliken charges:
               1
     1  C   -0.170307
     2  C   -0.218609
     3  C   -0.170498
     4  C    0.157472
     5  C   -0.170547
     6  C   -0.218561
     7  H    0.226312
     8  H    0.224131
     9  H    0.276224
    10  H    0.275706
    11  H    0.224133
    12  N    0.487712
    13  O   -0.460072
    14  O   -0.457296
    15  C   -0.298633
    16  C   -0.299457
    17  C   -0.474875
    18  H    0.154433
    19  H    0.142809
    20  H    0.155909
    21  H    0.148956
    22  H    0.152188
    23  H    0.153542
    24  H    0.157579
    25  C   -0.298167
    26  C   -0.295419
    27  C   -0.476559
    28  H    0.163602
    29  H    0.143267
    30  H    0.149102
    31  H    0.143011
    32  H    0.146496
    33  H    0.174408
    34  H    0.152009
 Sum of Mulliken charges =  -0.00000

 Dipole moment (field-independent basis, Debye):
    X=             -4.5219    Y=             -1.9023    Z=             -2.1868  Tot=              5.3711
 Quadrupole moment (field-independent basis, Debye-Ang):
   XX=            -75.2580   YY=            -91.5541   ZZ=            -97.2494
   XY=              3.6914   XZ=              4.7774   YZ=             -0.8867

 Normal termination of Gaussian 16 at Thu May  6 20:41:58 2021.
