 Gaussian 16, Revision A.03,
 Gaussian 16:  EM64L-G16RevA.03 25-Dec-2016

 -------------
 #p 6-31g* mp2
 -------------

 ------------------------------------------------------
 Input file generated by CHIRIPA (05-May-2021 14:55:25)
 ------------------------------------------------------
 Symbolic Z-matrix:
 Charge =  0 Multiplicity = 1

                         Standard orientation:
 ---------------------------------------------------------------------
 Center     Atomic      Atomic             Coordinates (Angstroms)
 Number     Number       Type             X           Y           Z
 ---------------------------------------------------------------------
      1          6           0       -5.683967   -1.024087   -0.862632
      2          6           0       -5.132848    0.081632   -1.518509
      3          6           0       -4.008168    0.728296   -0.997483
      4          6           0       -3.457699    0.240414    0.186681
      5          6           0       -3.983757   -0.858925    0.863444
      6          6           0       -5.108677   -1.490015    0.324159
      7          1           0       -6.557739   -1.520382   -1.274469
      8          1           0       -5.577526    0.445667   -2.440347
      9          1           0       -3.561184    1.586350   -1.484686
     10          1           0       -3.518349   -1.198748    1.780687
     11          1           0       -5.534552   -2.348516    0.835677
     12          7           0       -2.266924    0.916765    0.747933
     13          8           0       -1.800644    0.467468    1.792611
     14          8           0       -1.822421    1.883378    0.132536
     15          6           0        5.347698    0.175417   -0.253827
     16          6           0        6.546232   -0.758894   -0.084826
     17          6           0        7.880762   -0.063248   -0.354826
     18          1           0        5.350189    0.583831   -1.273697
     19          1           0        5.460189    1.031381    0.425926
     20          1           0        6.430825   -1.613544   -0.763701
     21          1           0        6.540779   -1.165282    0.934701
     22          1           0        8.022201    0.778323    0.330998
     23          1           0        7.911623    0.327515   -1.377055
     24          1           0        8.723993   -0.749409   -0.228317
     25          6           0        4.006424   -0.505512    0.012725
     26          6           0        2.807889    0.428799   -0.156276
     27          6           0        1.473360   -0.266848    0.113724
     28          1           0        3.893932   -1.361477   -0.667029
     29          1           0        4.003933   -0.913927    1.032595
     30          1           0        2.813342    0.835187   -1.175803
     31          1           0        2.923296    1.283448    0.522599
     32          1           0        1.442498   -0.657610    1.135954
     33          1           0        1.331919   -1.108419   -0.572099
     34          1           0        0.630128    0.419313   -0.012785
 ---------------------------------------------------------------------

 SCF Done:  E(RHF) =  -669.536282403     A.U. after   15 cycles
 E2 =    -0.2091399505D+01 EUMP2 =    -0.67162768190784D+03

 The electronic state is 1-A.
 Alpha  occ. eigenvalues --  -20.60957 -20.60942 -15.85955 -11.31278 -11.27840
 Alpha  occ. eigenvalues --  -11.27835 -11.27579 -11.26845 -11.26835 -11.21062
 Alpha  occ. eigenvalues --  -11.20704 -11.20618 -11.20547 -11.20472 -11.19628
 Alpha  occ. eigenvalues --   -1.60000  -1.39554  -1.19444  -1.08851  -1.07642
 Alpha  occ. eigenvalues --   -1.04840  -1.02668  -0.95695  -0.95107  -0.86240
 Alpha  occ. eigenvalues --   -0.86132  -0.82530  -0.78769  -0.77585  -0.77433
 Alpha  occ. eigenvalues --   -0.72177  -0.71324  -0.70555  -0.65100  -0.64844
 Alpha  occ. eigenvalues --   -0.64283  -0.62187  -0.60074  -0.58510  -0.56697
 Alpha  occ. eigenvalues --   -0.55346  -0.54412  -0.53178  -0.52932  -0.51775
 Alpha  occ. eigenvalues --   -0.51543  -0.49112  -0.48945  -0.48883  -0.47060
 Alpha  occ. eigenvalues --   -0.45826  -0.45041  -0.44919  -0.44850  -0.42899
 Alpha  occ. eigenvalues --   -0.37419  -0.36439
 Alpha virt. eigenvalues --    0.04904   0.11217   0.16399   0.21349   0.23606
 Alpha virt. eigenvalues --    0.25267   0.27267   0.27394   0.28200   0.28248
 Alpha virt. eigenvalues --    0.28979   0.30877   0.32217   0.32437   0.32523

 Mulliken charges:
               1
     1  C   -0.170502
     2  C   -0.218640
     3  C   -0.170749
     4  C    0.160111
     5  C   -0.170581
     6  C   -0.218661
     7  H    0.225945
     8  H    0.223762
     9  H    0.275807
    10  H    0.275971
    11  H    0.223801
    12  N    0.487060
    13  O   -0.457219
    14  O   -0.460680
    15  C   -0.297603
    16  C   -0.298968
    17  C   -0.475267
    18  H    0.148177
    19  H    0.149731
    20  H    0.150334
    21  H    0.151367
    22  H    0.155061
    23  H    0.154301
    24  H    0.158403
    25  C   -0.297575
    26  C   -0.298530
    27  C   -0.483219
    28  H    0.146031
    29  H    0.148845
    30  H    0.148223
    31  H    0.154934
    32  H    0.157959
    33  H    0.143324
    34  H    0.179047
 Sum of Mulliken charges =  -0.00000

 Dipole moment (field-independent basis, Debye):
    X=             -4.5095    Y=             -2.2993    Z=             -1.8866  Tot=              5.4020
 Quadrupole moment (field-independent basis, Debye-Ang):
   XX=            -68.3682   YY=            -94.4261   ZZ=            -91.9572
   XY=              7.3271   XZ=              6.7035   YZ=             -3.5151

 Normal termination of Gaussian 16 at Thu May  6 16:03:17 2021.
