 Gaussian 16, Revision A.03,
 Gaussian 16:  EM64L-G16RevA.03 25-Dec-2016

 -------------
 #p 6-31g* mp2
 -------------

 ------------------------------------------------------
 Input file generated by CHIRIPA (05-May-2021 14:51:08)
 ------------------------------------------------------
 Symbolic Z-matrix:
 Charge =  0 Multiplicity = 1

                         Standard orientation:
 ---------------------------------------------------------------------
 Center     Atomic      Atomic             Coordinates (Angstroms)
 Number     Number       Type             X           Y           Z
 ---------------------------------------------------------------------
      1          6           0        3.269187   -0.870456   -0.060345
      2          6           0        1.788566   -1.243442    0.021058
      3          6           0        1.553060   -2.751524   -0.068486
      4          1           0        3.685829   -1.252785   -1.002247
      5          1           0        3.812598   -1.376108    0.749849
      6          1           0        1.247880   -0.736141   -0.788213
      7          1           0        1.375354   -0.860015    0.962788
      8          1           0        2.066973   -3.270769    0.746915
      9          1           0        1.938775   -3.146191   -1.014035
     10          1           0        0.487902   -2.995794   -0.008222
     11          6           0        3.520726    0.633769    0.027758
     12          6           0        5.001348    1.006755   -0.053645
     13          6           0        5.236854    2.514837    0.035899
     14          1           0        2.977315    1.139421   -0.782437
     15          1           0        3.104084    1.016098    0.969660
     16          1           0        5.414560    0.623327   -0.995375
     17          1           0        5.542034    0.499453    0.755626
     18          1           0        4.851139    2.909504    0.981448
     19          1           0        4.722940    3.034082   -0.779503
     20          1           0        6.302011    2.759107   -0.024365
     21          6           0       -3.478684    0.800901    0.348766
     22          6           0       -4.221006    1.813494   -0.523931
     23          6           0       -4.380647    3.174182    0.154920
     24          1           0       -4.019283    0.677905    1.297222
     25          1           0       -2.488336    1.203136    0.603352
     26          1           0       -5.209123    1.408872   -0.777940
     27          1           0       -3.678679    1.933950   -1.470497
     28          1           0       -3.401923    3.602789    0.393653
     29          1           0       -4.941062    3.074729    1.090145
     30          1           0       -4.913983    3.882720   -0.486474
     31          6           0       -3.311230   -0.564213   -0.316178
     32          6           0       -2.568908   -1.576807    0.556517
     33          6           0       -2.409265   -2.937494   -0.122332
     34          1           0       -4.301577   -0.966449   -0.570765
     35          1           0       -2.770630   -0.441218   -1.264635
     36          1           0       -3.111234   -1.697263    1.503085
     37          1           0       -1.580790   -1.172185    0.810528
     38          1           0       -1.848851   -2.838042   -1.057557
     39          1           0       -3.387990   -3.366102   -0.361065
     40          1           0       -1.875930   -3.646033    0.519060
 ---------------------------------------------------------------------

 SCF Done:  E(RHF) =  -470.732933635     A.U. after   11 cycles
 E2 =    -0.1583219019D+01 EUMP2 =    -0.47231615265443D+03

 The electronic state is 1-A.
 Alpha  occ. eigenvalues --  -11.21617 -11.21612 -11.21604 -11.21600 -11.21416
 Alpha  occ. eigenvalues --  -11.21406 -11.21356 -11.21346 -11.21100 -11.21082
 Alpha  occ. eigenvalues --  -11.21069 -11.20961  -1.08454  -1.08419  -1.03589
 Alpha  occ. eigenvalues --   -1.03484  -0.96063  -0.95908  -0.87085  -0.86918
 Alpha  occ. eigenvalues --   -0.79666  -0.79533  -0.78279  -0.78219  -0.65078
 Alpha  occ. eigenvalues --   -0.65068  -0.61045  -0.60926  -0.59570  -0.59137
 Alpha  occ. eigenvalues --   -0.57725  -0.57441  -0.55294  -0.55238  -0.52877
 Alpha  occ. eigenvalues --   -0.52517  -0.52432  -0.52282  -0.49942  -0.49896
 Alpha  occ. eigenvalues --   -0.47980  -0.47848  -0.46667  -0.46600  -0.45854
 Alpha  occ. eigenvalues --   -0.45767  -0.45729  -0.45642  -0.43887  -0.43661
 Alpha virt. eigenvalues --    0.20870   0.23126   0.23516   0.25341   0.26025
 Alpha virt. eigenvalues --    0.26525   0.27082   0.27302   0.28089   0.28999
 Alpha virt. eigenvalues --    0.30741   0.30920   0.31472   0.31605   0.32468

 Mulliken charges:
               1
     1  C   -0.298362
     2  C   -0.299665
     3  C   -0.486319
     4  H    0.149764
     5  H    0.149731
     6  H    0.150851
     7  H    0.151834
     8  H    0.154431
     9  H    0.154500
    10  H    0.173596
    11  C   -0.298278
    12  C   -0.299633
    13  C   -0.475711
    14  H    0.149207
    15  H    0.149519
    16  H    0.151983
    17  H    0.152017
    18  H    0.155178
    19  H    0.155107
    20  H    0.160322
    21  C   -0.298486
    22  C   -0.299638
    23  C   -0.475736
    24  H    0.149581
    25  H    0.149951
    26  H    0.151896
    27  H    0.151887
    28  H    0.155290
    29  H    0.155152
    30  H    0.160231
    31  C   -0.298029
    32  C   -0.304707
    33  C   -0.480330
    34  H    0.149536
    35  H    0.149642
    36  H    0.152058
    37  H    0.157301
    38  H    0.156503
    39  H    0.156962
    40  H    0.160868
 Sum of Mulliken charges =  -0.00000

 Dipole moment (field-independent basis, Debye):
    X=             -0.0254    Y=             -0.0120    Z=              0.0036  Tot=              0.0283
 Quadrupole moment (field-independent basis, Debye-Ang):
   XX=            -84.1951   YY=            -86.8729   ZZ=            -83.7019
   XY=              0.1782   XZ=             -0.2361   YZ=             -0.6204

 Normal termination of Gaussian 16 at Wed May  5 15:05:45 2021.
