 Gaussian 16, Revision A.03,
 Gaussian 16:  EM64L-G16RevA.03 25-Dec-2016

 -------------
 #p 6-31g* mp2
 -------------

 ------------------------------------------------------
 Input file generated by CHIRIPA (05-May-2021 14:51:10)
 ------------------------------------------------------
 Symbolic Z-matrix:
 Charge =  0 Multiplicity = 1

                         Standard orientation:
 ---------------------------------------------------------------------
 Center     Atomic      Atomic             Coordinates (Angstroms)
 Number     Number       Type             X           Y           Z
 ---------------------------------------------------------------------
      1          6           0       -4.174835   -0.190503    0.096783
      2          6           0       -4.819302    1.102917   -0.402927
      3          6           0       -6.343035    1.009512   -0.488408
      4          1           0       -4.456101   -1.015152   -0.572387
      5          1           0       -4.584063   -0.437400    1.086211
      6          1           0       -4.407960    1.348041   -1.390514
      7          1           0       -4.536313    1.924618    0.267401
      8          1           0       -6.771218    0.788748    0.494712
      9          1           0       -6.642136    0.208895   -1.172624
     10          1           0       -6.783066    1.944964   -0.847799
     11          6           0       -2.651869   -0.112734    0.187642
     12          6           0       -2.007402   -1.406154    0.687351
     13          6           0       -0.483669   -1.312749    0.772832
     14          1           0       -2.242640    0.134162   -0.801787
     15          1           0       -2.370602    0.711915    0.856812
     16          1           0       -2.290391   -2.227856    0.017023
     17          1           0       -2.418744   -1.651278    1.674938
     18          1           0       -0.184567   -0.512132    1.457048
     19          1           0       -0.055485   -1.091985   -0.210287
     20          1           0       -0.043638   -2.248201    1.132223
     21          6           0        2.949371   -0.454800   -0.121967
     22          6           0        3.649705   -1.766315   -0.478964
     23          6           0        2.708423   -2.970377   -0.434053
     24          1           0        2.510898   -0.542010    0.881568
     25          1           0        2.112670   -0.293367   -0.815698
     26          1           0        4.485689   -1.924535    0.214371
     27          1           0        4.086728   -1.675906   -1.481687
     28          1           0        1.880685   -2.838754   -1.138414
     29          1           0        2.281913   -3.088795    0.567280
     30          1           0        3.229722   -3.897350   -0.692564
     31          6           0        3.877332    0.758038   -0.162457
     32          6           0        3.176999    2.069552    0.194540
     33          6           0        4.118281    3.273614    0.149629
     34          1           0        4.714034    0.596603    0.531275
     35          1           0        4.315806    0.845247   -1.165992
     36          1           0        2.739976    1.979143    1.197263
     37          1           0        2.341014    2.227772   -0.498795
     38          1           0        4.544790    3.392032   -0.851705
     39          1           0        4.946019    3.141990    0.853990
     40          1           0        3.596982    4.200587    0.408141
 ---------------------------------------------------------------------

 SCF Done:  E(RHF) =  -470.731405217     A.U. after   11 cycles
 E2 =    -0.1584157588D+01 EUMP2 =    -0.47231556280443D+03

 The electronic state is 1-A.
 Alpha  occ. eigenvalues --  -11.21583 -11.21561 -11.21532 -11.21504 -11.21369
 Alpha  occ. eigenvalues --  -11.21316 -11.21309 -11.21227 -11.21057 -11.21042
 Alpha  occ. eigenvalues --  -11.20980 -11.20897  -1.08409  -1.08344  -1.03533
 Alpha  occ. eigenvalues --   -1.03421  -0.95936  -0.95916  -0.86965  -0.86941
 Alpha  occ. eigenvalues --   -0.79737  -0.79410  -0.78300  -0.78018  -0.65073
 Alpha  occ. eigenvalues --   -0.64958  -0.60964  -0.60813  -0.59427  -0.59190
 Alpha  occ. eigenvalues --   -0.57740  -0.57349  -0.55260  -0.55174  -0.52741
 Alpha  occ. eigenvalues --   -0.52678  -0.52506  -0.52064  -0.49946  -0.49837
 Alpha  occ. eigenvalues --   -0.47960  -0.47775  -0.46709  -0.46491  -0.45942
 Alpha  occ. eigenvalues --   -0.45741  -0.45550  -0.45290  -0.43730  -0.43658
 Alpha virt. eigenvalues --    0.21875   0.23105   0.23698   0.24823   0.25180
 Alpha virt. eigenvalues --    0.26323   0.26886   0.27392   0.28037   0.29430
 Alpha virt. eigenvalues --    0.29949   0.31115   0.31658   0.32112   0.32286

 Mulliken charges:
               1
     1  C   -0.298117
     2  C   -0.299557
     3  C   -0.475667
     4  H    0.149519
     5  H    0.149483
     6  H    0.151721
     7  H    0.151887
     8  H    0.155164
     9  H    0.155130
    10  H    0.160151
    11  C   -0.298175
    12  C   -0.301275
    13  C   -0.476300
    14  H    0.148703
    15  H    0.149568
    16  H    0.151335
    17  H    0.150998
    18  H    0.153599
    19  H    0.159084
    20  H    0.161928
    21  C   -0.300450
    22  C   -0.299806
    23  C   -0.476179
    24  H    0.154484
    25  H    0.150233
    26  H    0.151286
    27  H    0.151115
    28  H    0.155470
    29  H    0.156937
    30  H    0.159028
    31  C   -0.297751
    32  C   -0.299381
    33  C   -0.475608
    34  H    0.148987
    35  H    0.148986
    36  H    0.151450
    37  H    0.151808
    38  H    0.155092
    39  H    0.155083
    40  H    0.160038
 Sum of Mulliken charges =  -0.00000

 Dipole moment (field-independent basis, Debye):
    X=              0.0133    Y=             -0.0107    Z=              0.0100  Tot=              0.0198
 Quadrupole moment (field-independent basis, Debye-Ang):
   XX=            -86.5900   YY=            -85.7095   ZZ=            -82.8848
   XY=             -0.5220   XZ=              0.1004   YZ=              0.1651

 Normal termination of Gaussian 16 at Wed May  5 23:00:36 2021.
