 Gaussian 16, Revision A.03,
 Gaussian 16:  EM64L-G16RevA.03 25-Dec-2016

 -------------
 #p 6-31g* mp2
 -------------

 ------------------------------------------------------
 Input file generated by CHIRIPA (05-May-2021 14:57:26)
 ------------------------------------------------------
 Symbolic Z-matrix:
 Charge =  0 Multiplicity = 1

                         Standard orientation:
 ---------------------------------------------------------------------
 Center     Atomic      Atomic             Coordinates (Angstroms)
 Number     Number       Type             X           Y           Z
 ---------------------------------------------------------------------
      1          6           0        2.498263   -1.943971   -1.064757
      2          6           0        3.306306   -1.344393   -0.093112
      3          6           0        3.047096   -0.040662    0.340067
      4          6           0        1.966734    0.637495   -0.222260
      5          6           0        1.143397    0.067368   -1.191982
      6          6           0        1.421286   -1.237423   -1.610130
      7          1           0        2.706879   -2.957152   -1.395423
      8          1           0        4.143380   -1.890722    0.332185
      9          1           0        3.656540    0.447554    1.090828
     10          1           0        0.316117    0.637114   -1.597462
     11          1           0        0.792061   -1.700543   -2.364874
     12          7           0        1.682433    2.018257    0.228370
     13          8           0        0.724591    2.594490   -0.282641
     14          8           0        2.422821    2.498120    1.084053
     15          6           0       -0.873988   -2.292877    1.530116
     16          6           0       -1.049034   -1.052763    2.153013
     17          6           0       -1.679073   -0.002339    1.479065
     18          6           0       -2.123764   -0.227892    0.177271
     19          6           0       -1.964116   -1.451982   -0.470346
     20          6           0       -1.331281   -2.488182    0.222730
     21          1           0       -0.383471   -3.103347    2.061084
     22          1           0       -0.694904   -0.898222    3.168273
     23          1           0       -1.827610    0.967832    1.937458
     24          1           0       -2.327776   -1.575859   -1.483176
     25          1           0       -1.196703   -3.450210   -0.263518
     26          7           0       -2.792238    0.876617   -0.546332
     27          8           0       -3.175023    0.652427   -1.692566
     28          8           0       -2.920744    1.945608    0.046442
 ---------------------------------------------------------------------

 SCF Done:  E(RHF) =  -868.334493230     A.U. after   16 cycles
 E2 =    -0.2607379280D+01 EUMP2 =    -0.87094187251001D+03

 The electronic state is 1-A.
 Alpha  occ. eigenvalues --  -20.60838 -20.60774 -20.60752 -20.60649 -15.85844
 Alpha  occ. eigenvalues --  -15.85745 -11.31308 -11.31298 -11.27959 -11.27889
 Alpha  occ. eigenvalues --  -11.27844 -11.27815 -11.27695 -11.27677 -11.27042
 Alpha  occ. eigenvalues --  -11.26968 -11.26940 -11.26930  -1.59884  -1.59768
 Alpha  occ. eigenvalues --   -1.39432  -1.39312  -1.19614  -1.19413  -1.08918
 Alpha  occ. eigenvalues --   -1.08853  -1.05050  -1.04838  -0.95724  -0.95657
 Alpha  occ. eigenvalues --   -0.86375  -0.86307  -0.82563  -0.82476  -0.77616
 Alpha  occ. eigenvalues --   -0.77475  -0.72071  -0.71962  -0.71301  -0.71055
 Alpha  occ. eigenvalues --   -0.70641  -0.70581  -0.65187  -0.65163  -0.64962
 Alpha  occ. eigenvalues --   -0.64941  -0.62381  -0.62204  -0.55484  -0.55430
 Alpha  occ. eigenvalues --   -0.54226  -0.53058  -0.53032  -0.52295  -0.48838
 Alpha  occ. eigenvalues --   -0.48824  -0.48753  -0.48697  -0.44888  -0.44572
 Alpha  occ. eigenvalues --   -0.38042  -0.37561  -0.36768  -0.35623
 Alpha virt. eigenvalues --    0.04881   0.05060   0.10734   0.11323   0.16249
 Alpha virt. eigenvalues --    0.16741   0.20414   0.21691   0.25989   0.27418
 Alpha virt. eigenvalues --    0.28119   0.28384   0.30669   0.30699   0.32296

 Mulliken charges:
               1
     1  C   -0.174739
     2  C   -0.219802
     3  C   -0.173432
     4  C    0.159502
     5  C   -0.168552
     6  C   -0.212400
     7  H    0.221980
     8  H    0.221499
     9  H    0.274408
    10  H    0.279119
    11  H    0.219317
    12  N    0.486118
    13  O   -0.453591
    14  O   -0.463002
    15  C   -0.168425
    16  C   -0.218358
    17  C   -0.172067
    18  C    0.157427
    19  C   -0.180464
    20  C   -0.212004
    21  H    0.223782
    22  H    0.226129
    23  H    0.283904
    24  H    0.271129
    25  H    0.217649
    26  N    0.488635
    27  O   -0.467365
    28  O   -0.446396
 Sum of Mulliken charges =  -0.00000

 Dipole moment (field-independent basis, Debye):
    X=              3.2005    Y=             -8.4408    Z=              1.1319  Tot=              9.0979
 Quadrupole moment (field-independent basis, Debye-Ang):
   XX=           -109.4086   YY=           -108.5997   ZZ=            -98.7996
   XY=             -1.4490   XZ=             -5.4445   YZ=              1.2144

 Normal termination of Gaussian 16 at Wed May  5 22:49:31 2021.
