 Gaussian 16, Revision A.03,
 Gaussian 16:  EM64L-G16RevA.03 25-Dec-2016

 -------------
 #p 6-31g* mp2
 -------------

 ------------------------------------------------------
 Input file generated by CHIRIPA (05-May-2021 14:51:07)
 ------------------------------------------------------
 Symbolic Z-matrix:
 Charge =  0 Multiplicity = 1

                         Standard orientation:
 ---------------------------------------------------------------------
 Center     Atomic      Atomic             Coordinates (Angstroms)
 Number     Number       Type             X           Y           Z
 ---------------------------------------------------------------------
      1          6           0        2.694236    0.088298   -0.136490
      2          6           0        2.404004    0.672536   -1.519392
      3          6           0        3.404423    1.755093   -1.925626
      4          1           0        2.682600    0.897667    0.606296
      5          1           0        3.710756   -0.328852   -0.128325
      6          1           0        1.387828    1.087225   -1.525361
      7          1           0        2.416142   -0.138347   -2.258945
      8          1           0        4.421637    1.350878   -1.947696
      9          1           0        3.387480    2.583413   -1.209945
     10          1           0        3.178253    2.158960   -2.917391
     11          6           0        1.702663   -0.995192    0.283703
     12          6           0        1.992895   -1.579429    1.666605
     13          6           0        0.992476   -2.661986    2.072839
     14          1           0        0.686143   -0.578041    0.275538
     15          1           0        1.714299   -1.804561   -0.459083
     16          1           0        1.980757   -0.768546    2.406158
     17          1           0        3.009071   -1.994118    1.672574
     18          1           0        1.009419   -3.490306    1.357158
     19          1           0       -0.024738   -2.257771    2.094910
     20          1           0        1.218646   -3.065854    3.064604
     21          6           0       -2.125273    0.712559    0.641192
     22          6           0       -1.676770    2.172535    0.713997
     23          6           0       -1.534889    2.676431    2.150573
     24          1           0       -3.084325    0.603638    1.165884
     25          1           0       -1.401049    0.086443    1.180519
     26          1           0       -2.400893    2.795544    0.173514
     27          1           0       -0.718769    2.278030    0.188906
     28          1           0       -0.797536    2.079600    2.697112
     29          1           0       -2.489218    2.600055    2.681632
     30          1           0       -1.213408    3.722225    2.179288
     31          6           0       -2.271625    0.194334   -0.788406
     32          6           0       -2.720129   -1.265641   -0.861210
     33          6           0       -2.862010   -1.769538   -2.297787
     34          1           0       -2.995850    0.820451   -1.327732
     35          1           0       -1.312574    0.303256   -1.313097
     36          1           0       -3.678131   -1.371137   -0.336120
     37          1           0       -1.996006   -1.888651   -0.320727
     38          1           0       -1.907681   -1.693162   -2.828846
     39          1           0       -3.599363   -1.172707   -2.844325
     40          1           0       -3.183491   -2.815332   -2.326500
 ---------------------------------------------------------------------

 SCF Done:  E(RHF) =  -470.732959366     A.U. after   11 cycles
 E2 =    -0.1585346550D+01 EUMP2 =    -0.47231830591566D+03

 The electronic state is 1-A.
 Alpha  occ. eigenvalues --  -11.21682 -11.21681 -11.21670 -11.21586 -11.21460
 Alpha  occ. eigenvalues --  -11.21446 -11.21396 -11.21372 -11.21142 -11.21140
 Alpha  occ. eigenvalues --  -11.21122 -11.21050  -1.08559  -1.08422  -1.03600
 Alpha  occ. eigenvalues --   -1.03559  -0.96054  -0.96003  -0.87061  -0.87025
 Alpha  occ. eigenvalues --   -0.79669  -0.79624  -0.78340  -0.78278  -0.65585
 Alpha  occ. eigenvalues --   -0.64704  -0.61004  -0.60954  -0.59416  -0.59374
 Alpha  occ. eigenvalues --   -0.57656  -0.57619  -0.55430  -0.55220  -0.52737
 Alpha  occ. eigenvalues --   -0.52702  -0.52471  -0.52430  -0.50006  -0.49945
 Alpha  occ. eigenvalues --   -0.48018  -0.47936  -0.46823  -0.46633  -0.46289
 Alpha  occ. eigenvalues --   -0.45817  -0.45633  -0.45259  -0.43848  -0.43811
 Alpha virt. eigenvalues --    0.18790   0.21706   0.23258   0.24459   0.25059
 Alpha virt. eigenvalues --    0.26495   0.27050   0.27767   0.28617   0.30865
 Alpha virt. eigenvalues --    0.30934   0.31466   0.31648   0.32025   0.32236

 Mulliken charges:
               1
     1  C   -0.297595
     2  C   -0.305285
     3  C   -0.475592
     4  H    0.149596
     5  H    0.150006
     6  H    0.155877
     7  H    0.152102
     8  H    0.155536
     9  H    0.155371
    10  H    0.160594
    11  C   -0.309236
    12  C   -0.299252
    13  C   -0.479640
    14  H    0.160956
    15  H    0.149539
    16  H    0.151527
    17  H    0.152520
    18  H    0.155564
    19  H    0.157790
    20  H    0.160947
    21  C   -0.304518
    22  C   -0.302344
    23  C   -0.475632
    24  H    0.150994
    25  H    0.152974
    26  H    0.152803
    27  H    0.153171
    28  H    0.154687
    29  H    0.155718
    30  H    0.160507
    31  C   -0.303459
    32  C   -0.301804
    33  C   -0.475820
    34  H    0.150191
    35  H    0.153921
    36  H    0.151816
    37  H    0.154552
    38  H    0.155708
    39  H    0.154976
    40  H    0.160236
 Sum of Mulliken charges =  -0.00000

 Dipole moment (field-independent basis, Debye):
    X=              0.0044    Y=             -0.0016    Z=             -0.0033  Tot=              0.0057
 Quadrupole moment (field-independent basis, Debye-Ang):
   XX=            -83.8490   YY=            -85.0336   ZZ=            -85.7309
   XY=             -1.3363   XZ=             -0.1356   YZ=              0.1428

 Normal termination of Gaussian 16 at Thu May  6 13:11:39 2021.
