 Gaussian 16, Revision A.03,
 Gaussian 16:  EM64L-G16RevA.03 25-Dec-2016

 -------------
 #p 6-31g* mp2
 -------------

 ------------------------------------------------------
 Input file generated by CHIRIPA (05-May-2021 14:57:24)
 ------------------------------------------------------
 Symbolic Z-matrix:
 Charge =  0 Multiplicity = 1

                         Standard orientation:
 ---------------------------------------------------------------------
 Center     Atomic      Atomic             Coordinates (Angstroms)
 Number     Number       Type             X           Y           Z
 ---------------------------------------------------------------------
      1          6           0       -1.769950   -1.245272    0.608535
      2          6           0       -2.298490   -1.367957   -0.680695
      3          6           0       -3.478661   -0.704986   -1.030284
      4          6           0       -4.107041    0.075880   -0.061430
      5          6           0       -3.605306    0.217894    1.231390
      6          6           0       -2.423892   -0.454133    1.558788
      7          1           0       -0.852682   -1.763802    0.871485
      8          1           0       -1.792772   -1.981685   -1.420717
      9          1           0       -3.909777   -0.782511   -2.021015
     10          1           0       -4.132000    0.836867    1.947549
     11          1           0       -2.015720   -0.357025    2.560791
     12          7           0       -5.357093    0.782531   -0.419778
     13          8           0       -5.891641    1.464414    0.451963
     14          8           0       -5.778666    0.641142   -1.565606
     15          6           0        4.981264    2.303392   -0.278156
     16          6           0        5.361701    1.239099   -1.102212
     17          6           0        4.769892   -0.019014   -0.955714
     18          6           0        3.796583   -0.178175    0.029490
     19          6           0        3.396134    0.862641    0.865930
     20          6           0        4.001422    2.112104    0.701558
     21          1           0        5.446231    3.277364   -0.398902
     22          1           0        6.122388    1.384750   -1.863912
     23          1           0        5.045522   -0.860218   -1.580072
     24          1           0        2.634985    0.686825    1.616370
     25          1           0        3.703989    2.936838    1.342957
     26          7           0        3.162926   -1.505504    0.194042
     27          8           0        2.307852   -1.619869    1.069488
     28          8           0        3.533340   -2.406366   -0.555543
 ---------------------------------------------------------------------

 SCF Done:  E(RHF) =  -868.340203200     A.U. after   16 cycles
 E2 =    -0.2598127507D+01 EUMP2 =    -0.87093833070702D+03

 The electronic state is 1-A.
 Alpha  occ. eigenvalues --  -20.61817 -20.61757 -20.60366 -20.60360 -15.86817
 Alpha  occ. eigenvalues --  -15.85416 -11.31899 -11.30623 -11.28452 -11.28418
 Alpha  occ. eigenvalues --  -11.28107 -11.27380 -11.27365 -11.27214 -11.27189
 Alpha  occ. eigenvalues --  -11.26682 -11.26117 -11.26070  -1.60850  -1.59446
 Alpha  occ. eigenvalues --   -1.40413  -1.39004  -1.20042  -1.18772  -1.09486
 Alpha  occ. eigenvalues --   -1.08152  -1.05403  -1.04166  -0.96370  -0.95016
 Alpha  occ. eigenvalues --   -0.86814  -0.85544  -0.83216  -0.81870  -0.78297
 Alpha  occ. eigenvalues --   -0.76979  -0.73053  -0.72155  -0.71634  -0.71144
 Alpha  occ. eigenvalues --   -0.70771  -0.69742  -0.65698  -0.65399  -0.64402
 Alpha  occ. eigenvalues --   -0.64146  -0.62757  -0.61527  -0.55904  -0.54485
 Alpha  occ. eigenvalues --   -0.53743  -0.53490  -0.52498  -0.52237  -0.49816
 Alpha  occ. eigenvalues --   -0.49770  -0.48400  -0.48377  -0.45874  -0.44446
 Alpha  occ. eigenvalues --   -0.37998  -0.36992  -0.36685  -0.35801
 Alpha virt. eigenvalues --    0.04191   0.05571   0.10667   0.11870   0.15725
 Alpha virt. eigenvalues --    0.17121   0.20813   0.22254   0.26753   0.27600
 Alpha virt. eigenvalues --    0.27949   0.29257   0.30483   0.31676   0.32215

 Mulliken charges:
               1
     1  C   -0.178428
     2  C   -0.221521
     3  C   -0.171812
     4  C    0.156962
     5  C   -0.172117
     6  C   -0.221940
     7  H    0.248743
     8  H    0.225765
     9  H    0.273508
    10  H    0.272643
    11  H    0.222137
    12  N    0.488253
    13  O   -0.462759
    14  O   -0.462076
    15  C   -0.169624
    16  C   -0.218378
    17  C   -0.170490
    18  C    0.157714
    19  C   -0.169971
    20  C   -0.218098
    21  H    0.228435
    22  H    0.225840
    23  H    0.276427
    24  H    0.272778
    25  H    0.225595
    26  N    0.489721
    27  O   -0.470818
    28  O   -0.456490
 Sum of Mulliken charges =  -0.00000

 Dipole moment (field-independent basis, Debye):
    X=              7.1183    Y=              2.1732    Z=              0.6281  Tot=              7.4691
 Quadrupole moment (field-independent basis, Debye-Ang):
   XX=           -123.8471   YY=           -106.3251   ZZ=            -98.4963
   XY=             27.5277   XZ=            -10.6699   YZ=              4.0924

 Normal termination of Gaussian 16 at Thu May  6 17:59:31 2021.
