 Gaussian 16, Revision A.03,
 Gaussian 16:  EM64L-G16RevA.03 25-Dec-2016

 -------------
 #p 6-31g* mp2
 -------------

 ------------------------------------------------------
 Input file generated by CHIRIPA (05-May-2021 14:53:14)
 ------------------------------------------------------
 Symbolic Z-matrix:
 Charge =  0 Multiplicity = 1

                         Standard orientation:
 ---------------------------------------------------------------------
 Center     Atomic      Atomic             Coordinates (Angstroms)
 Number     Number       Type             X           Y           Z
 ---------------------------------------------------------------------
      1          6           0       -4.068285   -0.105375    0.700147
      2          6           0       -2.717500    0.083737    0.009059
      3          6           0       -1.549910    0.127580    0.995267
      4          1           0       -4.223286    0.711692    1.418006
      5          1           0       -4.046039   -1.035314    1.285052
      6          1           0       -2.742757    1.012335   -0.575478
      7          1           0       -2.565782   -0.733771   -0.707376
      8          1           0       -1.496267   -0.802468    1.570362
      9          1           0       -1.674247    0.953558    1.703010
     10          1           0       -0.593976    0.263397    0.479899
     11          6           0       -5.245309   -0.151191   -0.272603
     12          6           0       -6.596094   -0.340302    0.418485
     13          6           0       -7.763685   -0.384145   -0.567723
     14          1           0       -5.267555    0.778748   -0.857508
     15          1           0       -5.090308   -0.968257   -0.990462
     16          1           0       -6.747812    0.477205    1.134920
     17          1           0       -6.570837   -1.268900    1.003022
     18          1           0       -7.639347   -1.210123   -1.275466
     19          1           0       -7.817327    0.545903   -1.142818
     20          1           0       -8.719618   -0.519963   -0.052355
     21          6           0        1.848001    1.820871   -0.615066
     22          6           0        1.697893    0.514257   -1.091249
     23          6           0        2.683364   -0.447346   -0.848937
     24          6           0        3.811185   -0.066125   -0.123693
     25          6           0        3.989697    1.227564    0.363945
     26          6           0        2.991408    2.172733    0.109734
     27          1           0        1.077485    2.561483   -0.807921
     28          1           0        0.810962    0.238160   -1.654426
     29          1           0        2.592705   -1.466049   -1.205931
     30          1           0        4.884928    1.472919    0.922318
     31          1           0        3.110662    3.186715    0.480766
     32          7           0        4.861243   -1.075433    0.139130
     33          8           0        5.845489   -0.714357    0.780629
     34          8           0        4.680151   -2.208492   -0.301345
 ---------------------------------------------------------------------

 SCF Done:  E(RHF) =  -669.534905931     A.U. after   15 cycles
 E2 =    -0.2092047140D+01 EUMP2 =    -0.67162695307047D+03

 The electronic state is 1-A.
 Alpha  occ. eigenvalues --  -20.60789 -20.60784 -15.85844 -11.31231 -11.27804
 Alpha  occ. eigenvalues --  -11.27801 -11.27551 -11.26816 -11.26806 -11.22280
 Alpha  occ. eigenvalues --  -11.21963 -11.21897 -11.21806 -11.21562 -11.21385
 Alpha  occ. eigenvalues --   -1.59864  -1.39417  -1.19414  -1.08923  -1.08804
 Alpha  occ. eigenvalues --   -1.04825  -1.04016  -0.96448  -0.95630  -0.87465
 Alpha  occ. eigenvalues --   -0.86215  -0.82462  -0.80089  -0.78728  -0.77507
 Alpha  occ. eigenvalues --   -0.72063  -0.71187  -0.70512  -0.65549  -0.65068
 Alpha  occ. eigenvalues --   -0.64848  -0.62187  -0.61411  -0.59841  -0.58081
 Alpha  occ. eigenvalues --   -0.55720  -0.55310  -0.53546  -0.52968  -0.52934
 Alpha  occ. eigenvalues --   -0.52598  -0.50377  -0.48823  -0.48815  -0.48398
 Alpha  occ. eigenvalues --   -0.47131  -0.46266  -0.46188  -0.44818  -0.44276
 Alpha  occ. eigenvalues --   -0.37345  -0.36382
 Alpha virt. eigenvalues --    0.05028   0.11101   0.16499   0.20625   0.22568
 Alpha virt. eigenvalues --    0.23994   0.26109   0.26445   0.27190   0.27935
 Alpha virt. eigenvalues --    0.28826   0.30426   0.31001   0.31601   0.31890

 Mulliken charges:
               1
     1  C   -0.298028
     2  C   -0.300438
     3  C   -0.484346
     4  H    0.150446
     5  H    0.152008
     6  H    0.146570
     7  H    0.149976
     8  H    0.159194
     9  H    0.154916
    10  H    0.162829
    11  C   -0.298494
    12  C   -0.300032
    13  C   -0.475929
    14  H    0.148559
    15  H    0.149933
    16  H    0.152285
    17  H    0.153116
    18  H    0.155638
    19  H    0.154969
    20  H    0.161479
    21  C   -0.168750
    22  C   -0.220489
    23  C   -0.171564
    24  C    0.158528
    25  C   -0.170510
    26  C   -0.218410
    27  H    0.226812
    28  H    0.226344
    29  H    0.276067
    30  H    0.275910
    31  H    0.223790
    32  N    0.488112
    33  O   -0.460263
    34  O   -0.460232
 Sum of Mulliken charges =  -0.00000

 Dipole moment (field-independent basis, Debye):
    X=             -3.7041    Y=              3.5487    Z=             -0.8964  Tot=              5.2074
 Quadrupole moment (field-independent basis, Debye-Ang):
   XX=           -122.4963   YY=            -92.1264   ZZ=            -94.2750
   XY=             16.0175   XZ=             -2.2289   YZ=              1.6248

 Normal termination of Gaussian 16 at Thu May  6 02:36:33 2021.
