 Gaussian 16, Revision A.03,
 Gaussian 16:  EM64L-G16RevA.03 25-Dec-2016

 -------------
 #p 6-31g* mp2
 -------------

 ------------------------------------------------------
 Input file generated by CHIRIPA (05-May-2021 14:57:25)
 ------------------------------------------------------
 Symbolic Z-matrix:
 Charge =  0 Multiplicity = 1

                         Standard orientation:
 ---------------------------------------------------------------------
 Center     Atomic      Atomic             Coordinates (Angstroms)
 Number     Number       Type             X           Y           Z
 ---------------------------------------------------------------------
      1          6           0        1.793491    0.805364    2.348538
      2          6           0        1.961470    1.694351    1.281764
      3          6           0        2.093444    1.217496   -0.025806
      4          6           0        2.052694   -0.160683   -0.231357
      5          6           0        1.886605   -1.071725    0.810616
      6          6           0        1.756660   -0.572408    2.109980
      7          1           0        1.691758    1.184521    3.361102
      8          1           0        1.990448    2.764853    1.464060
      9          1           0        2.224610    1.883378   -0.870090
     10          1           0        1.861668   -2.133521    0.597582
     11          1           0        1.626323   -1.265149    2.936519
     12          7           0        2.191336   -0.677398   -1.611279
     13          8           0        2.152099   -1.896077   -1.765932
     14          8           0        2.336614    0.146065   -2.512079
     15          6           0       -1.863285    2.469090   -0.776464
     16          6           0       -1.424715    2.118378    0.504621
     17          6           0       -1.512200    0.795243    0.947574
     18          6           0       -2.045947   -0.155879    0.079374
     19          6           0       -2.491367    0.162319   -1.202672
     20          6           0       -2.394275    1.491664   -1.624527
     21          1           0       -1.791594    3.499346   -1.112367
     22          1           0       -1.011906    2.875360    1.165387
     23          1           0       -1.180140    0.496182    1.934345
     24          1           0       -2.898287   -0.614411   -1.838693
     25          1           0       -2.735656    1.761144   -2.619958
     26          7           0       -2.143648   -1.559910    0.537142
     27          8           0       -2.617755   -2.379163   -0.246876
     28          8           0       -1.744270   -1.814551    1.671290
 ---------------------------------------------------------------------

 SCF Done:  E(RHF) =  -868.336061839     A.U. after   16 cycles
 E2 =    -0.2606598753D+01 EUMP2 =    -0.87094266059203D+03

 The electronic state is 1-A.
 Alpha  occ. eigenvalues --  -20.60932 -20.60880 -20.60863 -20.60826 -15.85946
 Alpha  occ. eigenvalues --  -15.85898 -11.31335 -11.31197 -11.27940 -11.27785
 Alpha  occ. eigenvalues --  -11.27754 -11.27712 -11.27655 -11.27525 -11.27037
 Alpha  occ. eigenvalues --  -11.26833 -11.26826 -11.26725  -1.59974  -1.59921
 Alpha  occ. eigenvalues --   -1.39532  -1.39470  -1.19573  -1.19333  -1.08934
 Alpha  occ. eigenvalues --   -1.08806  -1.04932  -1.04740  -0.95740  -0.95650
 Alpha  occ. eigenvalues --   -0.86341  -0.86165  -0.82543  -0.82494  -0.77627
 Alpha  occ. eigenvalues --   -0.77497  -0.72182  -0.72115  -0.71352  -0.71194
 Alpha  occ. eigenvalues --   -0.70633  -0.70515  -0.65161  -0.65045  -0.64985
 Alpha  occ. eigenvalues --   -0.64737  -0.62267  -0.62126  -0.55451  -0.55333
 Alpha  occ. eigenvalues --   -0.54043  -0.53018  -0.52868  -0.52285  -0.48943
 Alpha  occ. eigenvalues --   -0.48915  -0.48885  -0.48862  -0.44966  -0.44853
 Alpha  occ. eigenvalues --   -0.37851  -0.37411  -0.36735  -0.35650
 Alpha virt. eigenvalues --    0.04845   0.05054   0.10925   0.11328   0.16336
 Alpha virt. eigenvalues --    0.16570   0.20377   0.22023   0.26213   0.27442
 Alpha virt. eigenvalues --    0.28413   0.28686   0.30203   0.31565   0.32331

 Mulliken charges:
               1
     1  C   -0.185237
     2  C   -0.219239
     3  C   -0.165592
     4  C    0.158437
     5  C   -0.171601
     6  C   -0.211623
     7  H    0.224586
     8  H    0.217480
     9  H    0.272839
    10  H    0.283238
    11  H    0.233031
    12  N    0.487621
    13  O   -0.455586
    14  O   -0.463153
    15  C   -0.173112
    16  C   -0.215676
    17  C   -0.161882
    18  C    0.154170
    19  C   -0.170021
    20  C   -0.216521
    21  H    0.224103
    22  H    0.213872
    23  H    0.270619
    24  H    0.278201
    25  H    0.225941
    26  N    0.488816
    27  O   -0.455396
    28  O   -0.468313
 Sum of Mulliken charges =  -0.00000

 Dipole moment (field-independent basis, Debye):
    X=             -0.1066    Y=              6.4425    Z=              3.1138  Tot=              7.1564
 Quadrupole moment (field-independent basis, Debye-Ang):
   XX=           -108.8522   YY=           -103.0685   ZZ=           -103.6328
   XY=             -5.7103   XZ=             15.7860   YZ=             -1.4264

 Normal termination of Gaussian 16 at Thu May  6 05:09:36 2021.
