 Gaussian 16, Revision A.03,
 Gaussian 16:  EM64L-G16RevA.03 25-Dec-2016

 -------------
 #p 6-31g* mp2
 -------------

 ------------------------------------------------------
 Input file generated by CHIRIPA (05-May-2021 14:53:14)
 ------------------------------------------------------
 Symbolic Z-matrix:
 Charge =  0 Multiplicity = 1

                         Standard orientation:
 ---------------------------------------------------------------------
 Center     Atomic      Atomic             Coordinates (Angstroms)
 Number     Number       Type             X           Y           Z
 ---------------------------------------------------------------------
      1          6           0       -3.403882    0.467649    0.389463
      2          6           0       -2.328407    0.024902    1.382093
      3          6           0       -1.130429    0.974292    1.418202
      4          1           0       -2.960970    0.539711   -0.613324
      5          1           0       -3.743750    1.478432    0.654423
      6          1           0       -1.991656   -0.985294    1.116162
      7          1           0       -2.773976   -0.046299    2.382600
      8          1           0       -1.446322    1.982389    1.705522
      9          1           0       -0.659557    1.038059    0.431889
     10          1           0       -0.373785    0.638847    2.134320
     11          6           0       -4.607908   -0.471388    0.341942
     12          6           0       -5.683383   -0.028642   -0.650688
     13          6           0       -6.881361   -0.978031   -0.686797
     14          1           0       -4.268040   -1.482171    0.076982
     15          1           0       -5.050820   -0.543450    1.344728
     16          1           0       -5.237814    0.042560   -1.651195
     17          1           0       -6.020134    0.981554   -0.384758
     18          1           0       -7.352234   -1.041798    0.299516
     19          1           0       -6.565468   -1.986128   -0.974117
     20          1           0       -7.638005   -0.642586   -1.402916
     21          6           0        1.995134    2.191625   -0.816813
     22          6           0        1.492471    0.997186   -1.343276
     23          6           0        2.112964   -0.222167   -1.055674
     24          6           0        3.239282   -0.210276   -0.234359
     25          6           0        3.763984    0.963069    0.305306
     26          6           0        3.127291    2.170792    0.004351
     27          1           0        1.506827    3.134331   -1.045415
     28          1           0        0.613378    1.010346   -1.981295
     29          1           0        1.744896   -1.161602   -1.449887
     30          1           0        4.641943    0.918132    0.938226
     31          1           0        3.519874    3.096864    0.414608
     32          7           0        3.904746   -1.494994    0.077180
     33          8           0        4.895652   -1.457657    0.803367
     34          8           0        3.422830   -2.514968   -0.410721
 ---------------------------------------------------------------------

 SCF Done:  E(RHF) =  -669.534688043     A.U. after   15 cycles
 E2 =    -0.2092303095D+01 EUMP2 =    -0.67162699113740D+03

 The electronic state is 1-A.
 Alpha  occ. eigenvalues --  -20.60790 -20.60785 -15.85844 -11.31221 -11.27791
 Alpha  occ. eigenvalues --  -11.27787 -11.27528 -11.26807 -11.26796 -11.21900
 Alpha  occ. eigenvalues --  -11.21879 -11.21782 -11.21666 -11.21301 -11.21284
 Alpha  occ. eigenvalues --   -1.59865  -1.39418  -1.19400  -1.08800  -1.08743
 Alpha  occ. eigenvalues --   -1.04814  -1.03812  -0.96267  -0.95620  -0.87288
 Alpha  occ. eigenvalues --   -0.86206  -0.82457  -0.79880  -0.78573  -0.77503
 Alpha  occ. eigenvalues --   -0.72063  -0.71188  -0.70498  -0.65395  -0.65053
 Alpha  occ. eigenvalues --   -0.64819  -0.62165  -0.61222  -0.59627  -0.57883
 Alpha  occ. eigenvalues --   -0.55637  -0.55295  -0.53306  -0.52919  -0.52866
 Alpha  occ. eigenvalues --   -0.52577  -0.50180  -0.48823  -0.48816  -0.48196
 Alpha  occ. eigenvalues --   -0.46917  -0.46116  -0.46040  -0.44821  -0.44075
 Alpha  occ. eigenvalues --   -0.37325  -0.36350
 Alpha virt. eigenvalues --    0.05031   0.11153   0.16481   0.20870   0.22669
 Alpha virt. eigenvalues --    0.24073   0.25920   0.26919   0.27573   0.28004
 Alpha virt. eigenvalues --    0.28466   0.30576   0.31405   0.31692   0.31914

 Mulliken charges:
               1
     1  C   -0.296870
     2  C   -0.300269
     3  C   -0.479124
     4  H    0.142760
     5  H    0.149139
     6  H    0.153455
     7  H    0.153586
     8  H    0.151141
     9  H    0.155277
    10  H    0.163281
    11  C   -0.298523
    12  C   -0.299554
    13  C   -0.475901
    14  H    0.150744
    15  H    0.151316
    16  H    0.150236
    17  H    0.151689
    18  H    0.156069
    19  H    0.156058
    20  H    0.160573
    21  C   -0.167067
    22  C   -0.220694
    23  C   -0.169653
    24  C    0.158617
    25  C   -0.170747
    26  C   -0.218180
    27  H    0.226438
    28  H    0.223811
    29  H    0.275552
    30  H    0.275774
    31  H    0.223757
    32  N    0.488058
    33  O   -0.460310
    34  O   -0.460440
 Sum of Mulliken charges =  -0.00000

 Dipole moment (field-independent basis, Debye):
    X=             -2.3085    Y=              4.5183    Z=             -1.0746  Tot=              5.1865
 Quadrupole moment (field-independent basis, Debye-Ang):
   XX=           -108.5732   YY=            -96.0174   ZZ=            -92.7479
   XY=             16.6205   XZ=             -1.3721   YZ=              0.9781

 Normal termination of Gaussian 16 at Thu May  6 07:23:23 2021.
