 Gaussian 16, Revision A.03,
 Gaussian 16:  EM64L-G16RevA.03 25-Dec-2016

 -------------
 #p 6-31g* mp2
 -------------

 ------------------------------------------------------
 Input file generated by CHIRIPA (05-May-2021 14:57:26)
 ------------------------------------------------------
 Symbolic Z-matrix:
 Charge =  0 Multiplicity = 1

                         Standard orientation:
 ---------------------------------------------------------------------
 Center     Atomic      Atomic             Coordinates (Angstroms)
 Number     Number       Type             X           Y           Z
 ---------------------------------------------------------------------
      1          6           0       -4.689288    2.060676    0.627694
      2          6           0       -5.298902    0.807799    0.504442
      3          6           0       -4.559256   -0.304066    0.090647
      4          6           0       -3.206022   -0.126269   -0.192966
      5          6           0       -2.570030    1.109039   -0.079744
      6          6           0       -3.329195    2.207039    0.335722
      7          1           0       -5.271444    2.919015    0.949789
      8          1           0       -6.354996    0.691175    0.730517
      9          1           0       -5.005948   -1.285440   -0.013221
     10          1           0       -1.515451    1.194137   -0.312207
     11          1           0       -2.853114    3.178840    0.430556
     12          7           0       -2.412660   -1.296012   -0.631916
     13          8           0       -1.221990   -1.113067   -0.875786
     14          8           0       -2.996515   -2.373653   -0.723785
     15          6           0        2.190366   -2.122993    1.027581
     16          6           0        2.146569   -1.843929   -0.342356
     17          6           0        2.778193   -0.707357   -0.855970
     18          6           0        3.447608    0.132293    0.032940
     19          6           0        3.509077   -0.118614    1.402814
     20          6           0        2.870281   -1.260964    1.894266
     21          1           0        1.696919   -3.008154    1.417960
     22          1           0        1.619278   -2.511616   -1.017785
     23          1           0        2.760021   -0.467376   -1.912141
     24          1           0        4.042504    0.565690    2.051351
     25          1           0        2.905944   -1.475179    2.958637
     26          7           0        4.120077    1.338591   -0.499069
     27          8           0        4.703250    2.062517    0.304969
     28          8           0        4.051251    1.537319   -1.710022
 ---------------------------------------------------------------------

 SCF Done:  E(RHF) =  -868.339774835     A.U. after   16 cycles
 E2 =    -0.2599009879D+01 EUMP2 =    -0.87093878471468D+03

 The electronic state is 1-A.
 Alpha  occ. eigenvalues --  -20.61404 -20.61399 -20.60243 -20.60233 -15.86429
 Alpha  occ. eigenvalues --  -15.85280 -11.31561 -11.30394 -11.28115 -11.28076
 Alpha  occ. eigenvalues --  -11.27802 -11.27076 -11.27036 -11.26950 -11.26800
 Alpha  occ. eigenvalues --  -11.26519 -11.25956 -11.25675  -1.60477  -1.59323
 Alpha  occ. eigenvalues --   -1.40034  -1.38882  -1.19713  -1.18507  -1.09155
 Alpha  occ. eigenvalues --   -1.07943  -1.05076  -1.03848  -0.96029  -0.94831
 Alpha  occ. eigenvalues --   -0.86486  -0.85257  -0.82866  -0.81660  -0.77937
 Alpha  occ. eigenvalues --   -0.76751  -0.72674  -0.71782  -0.71503  -0.70815
 Alpha  occ. eigenvalues --   -0.70648  -0.69604  -0.65368  -0.65074  -0.64145
 Alpha  occ. eigenvalues --   -0.63818  -0.62421  -0.61195  -0.55588  -0.54348
 Alpha  occ. eigenvalues --   -0.53425  -0.53161  -0.52211  -0.51922  -0.49432
 Alpha  occ. eigenvalues --   -0.49405  -0.48273  -0.48233  -0.45489  -0.44344
 Alpha  occ. eigenvalues --   -0.37686  -0.36671  -0.36460  -0.35405
 Alpha virt. eigenvalues --    0.04568   0.05736   0.10987   0.12233   0.16123
 Alpha virt. eigenvalues --    0.17325   0.21169   0.22389   0.27103   0.28010
 Alpha virt. eigenvalues --    0.28378   0.29184   0.30754   0.31960   0.32263

 Mulliken charges:
               1
     1  C   -0.170105
     2  C   -0.218745
     3  C   -0.171014
     4  C    0.157043
     5  C   -0.170784
     6  C   -0.218842
     7  H    0.227343
     8  H    0.224330
     9  H    0.275183
    10  H    0.277827
    11  H    0.226761
    12  N    0.490317
    13  O   -0.466975
    14  O   -0.461343
    15  C   -0.172881
    16  C   -0.202178
    17  C   -0.174625
    18  C    0.155877
    19  C   -0.175133
    20  C   -0.219746
    21  H    0.226218
    22  H    0.235894
    23  H    0.274271
    24  H    0.270948
    25  H    0.219172
    26  N    0.487694
    27  O   -0.464310
    28  O   -0.462198
 Sum of Mulliken charges =  -0.00000

 Dipole moment (field-independent basis, Debye):
    X=             -5.5308    Y=             -0.2497    Z=              3.3118  Tot=              6.4514
 Quadrupole moment (field-independent basis, Debye-Ang):
   XX=           -101.2700   YY=           -105.6707   ZZ=           -102.2024
   XY=            -25.7497   XZ=              2.6802   YZ=              0.3840

 Normal termination of Gaussian 16 at Fri May  7 08:10:43 2021.
