 Gaussian 16, Revision A.03,
 Gaussian 16:  EM64L-G16RevA.03 25-Dec-2016

 -------------
 #p 6-31g* mp2
 -------------

 ------------------------------------------------------
 Input file generated by CHIRIPA (05-May-2021 14:55:21)
 ------------------------------------------------------
 Symbolic Z-matrix:
 Charge =  0 Multiplicity = 1

                         Standard orientation:
 ---------------------------------------------------------------------
 Center     Atomic      Atomic             Coordinates (Angstroms)
 Number     Number       Type             X           Y           Z
 ---------------------------------------------------------------------
      1          6           0        5.519035    0.002597    0.021598
      2          6           0        4.750957    0.624151    1.011672
      3          6           0        3.364443    0.448874    1.049170
      4          6           0        2.776225   -0.358303    0.076671
      5          6           0        3.514309   -0.990965   -0.922459
      6          6           0        4.899352   -0.801560   -0.940612
      7          1           0        6.595541    0.144244   -0.000018
      8          1           0        5.229511    1.249223    1.760215
      9          1           0        2.745848    0.918245    1.804451
     10          1           0        3.008818   -1.608243   -1.655169
     11          1           0        5.493339   -1.285506   -1.710690
     12          7           0        1.309163   -0.551339    0.106128
     13          8           0        0.814957   -1.267380   -0.762021
     14          8           0        0.681266    0.017055    0.996808
     15          6           0       -3.678402    1.114955   -0.343826
     16          6           0       -2.197514    1.451465   -0.165731
     17          6           0       -1.843591    2.849249   -0.674389
     18          1           0       -3.941213    1.197113   -1.407369
     19          1           0       -4.283628    1.863249    0.186412
     20          1           0       -1.595220    0.701971   -0.694993
     21          1           0       -1.938150    1.368310    0.897487
     22          1           0       -2.419329    3.611216   -0.139102
     23          1           0       -2.074451    2.941091   -1.740629
     24          1           0       -0.780206    3.069013   -0.537351
     25          6           0       -4.047715   -0.279146    0.159977
     26          6           0       -5.528602   -0.615655   -0.018117
     27          6           0       -5.882526   -2.013440    0.490540
     28          1           0       -3.442488   -1.027439   -0.370261
     29          1           0       -3.784903   -0.361304    1.223521
     30          1           0       -5.787966   -0.532500   -1.081336
     31          1           0       -6.130896    0.133838    0.511144
     32          1           0       -5.651666   -2.105281    1.556780
     33          1           0       -5.306787   -2.775406   -0.044747
     34          1           0       -6.945910   -2.233204    0.353503
 ---------------------------------------------------------------------

 SCF Done:  E(RHF) =  -669.536003549     A.U. after   15 cycles
 E2 =    -0.2092035177D+01 EUMP2 =    -0.67162803872599D+03

 The electronic state is 1-A.
 Alpha  occ. eigenvalues --  -20.61019 -20.61014 -15.86027 -11.31339 -11.27896
 Alpha  occ. eigenvalues --  -11.27893 -11.27629 -11.26898 -11.26888 -11.20545
 Alpha  occ. eigenvalues --  -11.20161 -11.20014 -11.19945 -11.19810 -11.19656
 Alpha  occ. eigenvalues --   -1.60064  -1.39621  -1.19502  -1.08910  -1.07053
 Alpha  occ. eigenvalues --   -1.04895  -1.02215  -0.95754  -0.94745  -0.86296
 Alpha  occ. eigenvalues --   -0.85768  -0.82592  -0.78265  -0.77647  -0.76788
 Alpha  occ. eigenvalues --   -0.72240  -0.71371  -0.70610  -0.65157  -0.64897
 Alpha  occ. eigenvalues --   -0.63696  -0.62242  -0.59622  -0.58114  -0.56324
 Alpha  occ. eigenvalues --   -0.55397  -0.54062  -0.53226  -0.52986  -0.51484
 Alpha  occ. eigenvalues --   -0.51156  -0.49107  -0.49013  -0.48700  -0.46514
 Alpha  occ. eigenvalues --   -0.45290  -0.45045  -0.44260  -0.44204  -0.42466
 Alpha  occ. eigenvalues --   -0.37476  -0.36494
 Alpha virt. eigenvalues --    0.04860   0.11161   0.16360   0.21295   0.24153
 Alpha virt. eigenvalues --    0.25503   0.27218   0.27997   0.28142   0.28962
 Alpha virt. eigenvalues --    0.29211   0.30872   0.32322   0.32598   0.33036

 Mulliken charges:
               1
     1  C   -0.170489
     2  C   -0.218547
     3  C   -0.170866
     4  C    0.159498
     5  C   -0.170618
     6  C   -0.218574
     7  H    0.226172
     8  H    0.224002
     9  H    0.275790
    10  H    0.275842
    11  H    0.223969
    12  N    0.488492
    13  O   -0.460733
    14  O   -0.457328
    15  C   -0.298889
    16  C   -0.299692
    17  C   -0.475774
    18  H    0.143912
    19  H    0.142538
    20  H    0.167882
    21  H    0.160710
    22  H    0.148850
    23  H    0.149389
    24  H    0.155046
    25  C   -0.297756
    26  C   -0.298658
    27  C   -0.474807
    28  H    0.156905
    29  H    0.150283
    30  H    0.149197
    31  H    0.148399
    32  H    0.154192
    33  H    0.155612
    34  H    0.156052
 Sum of Mulliken charges =  -0.00000

 Dipole moment (field-independent basis, Debye):
    X=              5.5772    Y=              0.4950    Z=             -0.0186  Tot=              5.5991
 Quadrupole moment (field-independent basis, Debye-Ang):
   XX=            -68.2869   YY=            -95.7271   ZZ=            -91.1384
   XY=             -0.2498   XZ=             -0.3865   YZ=              3.8547

 Normal termination of Gaussian 16 at Thu May  6 17:30:31 2021.
