 Gaussian 16, Revision A.03,
 Gaussian 16:  EM64L-G16RevA.03 25-Dec-2016

 -------------
 #p 6-31g* mp2
 -------------

 ------------------------------------------------------
 Input file generated by CHIRIPA (05-May-2021 14:55:21)
 ------------------------------------------------------
 Symbolic Z-matrix:
 Charge =  0 Multiplicity = 1

                         Standard orientation:
 ---------------------------------------------------------------------
 Center     Atomic      Atomic             Coordinates (Angstroms)
 Number     Number       Type             X           Y           Z
 ---------------------------------------------------------------------
      1          6           0       -2.175631    1.824384   -0.409813
      2          6           0       -1.829271    0.492269   -0.658861
      3          6           0       -2.766733   -0.529882   -0.483026
      4          6           0       -4.047189   -0.182547   -0.055145
      5          6           0       -4.422641    1.135253    0.201233
      6          6           0       -3.468931    2.141066    0.018684
      7          1           0       -1.441077    2.612070   -0.549014
      8          1           0       -0.825625    0.243387   -0.991727
      9          1           0       -2.525386   -1.569473   -0.668555
     10          1           0       -5.431009    1.352343    0.532116
     11          1           0       -3.740727    3.174733    0.212861
     12          7           0       -5.048239   -1.256004    0.134558
     13          8           0       -6.169664   -0.923822    0.512309
     14          8           0       -4.692481   -2.409237   -0.098097
     15          6           0        4.307959    0.209974   -0.213508
     16          6           0        3.220258    0.567118    0.800069
     17          6           0        1.903280    0.970681    0.136370
     18          1           0        4.478196    1.068863   -0.877040
     19          1           0        3.950579   -0.611028   -0.850400
     20          1           0        3.580117    1.386274    1.435758
     21          1           0        3.052726   -0.292654    1.461387
     22          1           0        1.518233    0.154439   -0.483379
     23          1           0        2.048620    1.842907   -0.509152
     24          1           0        1.139783    1.221853    0.879234
     25          6           0        5.630481   -0.195566    0.434720
     26          6           0        6.718183   -0.552711   -0.578858
     27          6           0        8.035162   -0.956274    0.084841
     28          1           0        5.987861    0.625435    1.071611
     29          1           0        5.460245   -1.054456    1.098252
     30          1           0        6.885714    0.307062   -1.240175
     31          1           0        6.358324   -1.371867   -1.214547
     32          1           0        7.889821   -1.828500    0.730364
     33          1           0        8.420208   -0.140032    0.704590
     34          1           0        8.798658   -1.207446   -0.658022
 ---------------------------------------------------------------------

 SCF Done:  E(RHF) =  -669.535399022     A.U. after   15 cycles
 E2 =    -0.2091197486D+01 EUMP2 =    -0.67162659650766D+03

 The electronic state is 1-A.
 Alpha  occ. eigenvalues --  -20.60705 -20.60700 -15.85757 -11.31105 -11.27668
 Alpha  occ. eigenvalues --  -11.27647 -11.27384 -11.26685 -11.26602 -11.22436
 Alpha  occ. eigenvalues --  -11.22268 -11.22057 -11.22028 -11.21884 -11.21415
 Alpha  occ. eigenvalues --   -1.59781  -1.39335  -1.19267  -1.09063  -1.08664
 Alpha  occ. eigenvalues --   -1.04668  -1.04206  -0.96690  -0.95503  -0.87731
 Alpha  occ. eigenvalues --   -0.86054  -0.82337  -0.80292  -0.78836  -0.77387
 Alpha  occ. eigenvalues --   -0.71975  -0.71104  -0.70370  -0.65698  -0.64916
 Alpha  occ. eigenvalues --   -0.64681  -0.62069  -0.61565  -0.60060  -0.58266
 Alpha  occ. eigenvalues --   -0.56008  -0.55144  -0.53472  -0.53166  -0.52958
 Alpha  occ. eigenvalues --   -0.52662  -0.50608  -0.48742  -0.48732  -0.48576
 Alpha  occ. eigenvalues --   -0.47288  -0.46388  -0.46283  -0.44745  -0.44441
 Alpha  occ. eigenvalues --   -0.37240  -0.36263
 Alpha virt. eigenvalues --    0.05134   0.11333   0.16630   0.20502   0.22364
 Alpha virt. eigenvalues --    0.23812   0.25426   0.26102   0.26995   0.27630
 Alpha virt. eigenvalues --    0.28997   0.29543   0.30842   0.31558   0.32241

 Mulliken charges:
               1
     1  C   -0.174277
     2  C   -0.221092
     3  C   -0.173175
     4  C    0.158824
     5  C   -0.171497
     6  C   -0.218554
     7  H    0.226630
     8  H    0.232371
     9  H    0.275152
    10  H    0.275182
    11  H    0.222934
    12  N    0.488055
    13  O   -0.460724
    14  O   -0.460695
    15  C   -0.299125
    16  C   -0.299490
    17  C   -0.483113
    18  H    0.149832
    19  H    0.149801
    20  H    0.154732
    21  H    0.155833
    22  H    0.149839
    23  H    0.154482
    24  H    0.163643
    25  C   -0.298932
    26  C   -0.300097
    27  C   -0.476078
    28  H    0.150436
    29  H    0.151204
    30  H    0.152100
    31  H    0.152542
    32  H    0.156114
    33  H    0.155640
    34  H    0.161503
 Sum of Mulliken charges =  -0.00000

 Dipole moment (field-independent basis, Debye):
    X=              3.7718    Y=              3.7841    Z=             -0.6188  Tot=              5.3785
 Quadrupole moment (field-independent basis, Debye-Ang):
   XX=           -121.6832   YY=            -93.3158   ZZ=            -95.2154
   XY=            -18.1699   XZ=              1.2341   YZ=              1.1246

 Normal termination of Gaussian 16 at Thu May  6 14:09:07 2021.
