 Gaussian 16, Revision A.03,
 Gaussian 16:  EM64L-G16RevA.03 25-Dec-2016

 -------------
 #p 6-31g* mp2
 -------------

 ------------------------------------------------------
 Input file generated by CHIRIPA (05-May-2021 14:55:19)
 ------------------------------------------------------
 Symbolic Z-matrix:
 Charge =  0 Multiplicity = 1

                         Standard orientation:
 ---------------------------------------------------------------------
 Center     Atomic      Atomic             Coordinates (Angstroms)
 Number     Number       Type             X           Y           Z
 ---------------------------------------------------------------------
      1          6           0        0.586725   -1.833719    1.491129
      2          6           0        0.444179   -1.821024    0.099712
      3          6           0        1.352331   -1.121633   -0.700700
      4          6           0        2.395964   -0.442794   -0.073566
      5          6           0        2.564728   -0.436545    1.310186
      6          6           0        1.644680   -1.142658    2.090867
      7          1           0       -0.123370   -2.379634    2.105244
      8          1           0       -0.376478   -2.356816   -0.368791
      9          1           0        1.265572   -1.095130   -1.780139
     10          1           0        3.392968    0.106995    1.748366
     11          1           0        1.757857   -1.150769    3.171224
     12          7           0        3.363681    0.301178   -0.910483
     13          8           0        4.274539    0.891270   -0.333623
     14          8           0        3.192997    0.280124   -2.127471
     15          6           0       -2.203755    1.109656   -0.065055
     16          6           0       -2.337339    2.511022    0.531864
     17          6           0       -1.010688    3.270637    0.559706
     18          1           0       -1.465348    0.539676    0.515309
     19          1           0       -1.804653    1.189941   -1.085676
     20          1           0       -2.737374    2.428207    1.550554
     21          1           0       -3.075656    3.077669   -0.049871
     22          1           0       -0.609637    3.382742   -0.452812
     23          1           0       -0.269433    2.729590    1.156707
     24          1           0       -1.129168    4.269867    0.990243
     25          6           0       -3.521615    0.337792   -0.099726
     26          6           0       -3.388031   -1.063575   -0.696646
     27          6           0       -4.714682   -1.823189   -0.724488
     28          1           0       -3.920717    0.257507    0.920894
     29          1           0       -4.260022    0.907773   -0.680090
     30          1           0       -2.649715   -1.630221   -0.114910
     31          1           0       -2.987997   -0.980758   -1.715336
     32          1           0       -5.455937   -1.282141   -1.321489
     33          1           0       -5.115732   -1.935295    0.288031
     34          1           0       -4.596202   -2.822419   -1.155024
 ---------------------------------------------------------------------

 SCF Done:  E(RHF) =  -669.534941528     A.U. after   15 cycles
 E2 =    -0.2093524006D+01 EUMP2 =    -0.67162846553386D+03

 The electronic state is 1-A.
 Alpha  occ. eigenvalues --  -20.60782 -20.60777 -15.85835 -11.31227 -11.27789
 Alpha  occ. eigenvalues --  -11.27762 -11.27539 -11.26831 -11.26765 -11.22397
 Alpha  occ. eigenvalues --  -11.21880 -11.21787 -11.21738 -11.21594 -11.21123
 Alpha  occ. eigenvalues --   -1.59856  -1.39409  -1.19399  -1.08885  -1.08774
 Alpha  occ. eigenvalues --   -1.04799  -1.03955  -0.96364  -0.95622  -0.87385
 Alpha  occ. eigenvalues --   -0.86204  -0.82451  -0.80076  -0.78656  -0.77480
 Alpha  occ. eigenvalues --   -0.72054  -0.71177  -0.70506  -0.65553  -0.65046
 Alpha  occ. eigenvalues --   -0.64783  -0.62170  -0.61337  -0.59764  -0.57986
 Alpha  occ. eigenvalues --   -0.55647  -0.55308  -0.53244  -0.53088  -0.52900
 Alpha  occ. eigenvalues --   -0.52707  -0.50308  -0.48827  -0.48807  -0.48339
 Alpha  occ. eigenvalues --   -0.47114  -0.46161  -0.46071  -0.44809  -0.44185
 Alpha  occ. eigenvalues --   -0.37354  -0.36341
 Alpha virt. eigenvalues --    0.05027   0.11140   0.16489   0.20447   0.22751
 Alpha virt. eigenvalues --    0.23866   0.25781   0.26138   0.27600   0.28212
 Alpha virt. eigenvalues --    0.28669   0.30323   0.31079   0.31566   0.31834

 Mulliken charges:
               1
     1  C   -0.173996
     2  C   -0.216796
     3  C   -0.170558
     4  C    0.159267
     5  C   -0.171689
     6  C   -0.218444
     7  H    0.225580
     8  H    0.228485
     9  H    0.275785
    10  H    0.275839
    11  H    0.223655
    12  N    0.488102
    13  O   -0.460202
    14  O   -0.460315
    15  C   -0.304547
    16  C   -0.299653
    17  C   -0.476250
    18  H    0.155515
    19  H    0.149639
    20  H    0.149857
    21  H    0.152492
    22  H    0.158923
    23  H    0.154677
    24  H    0.160967
    25  C   -0.297691
    26  C   -0.301963
    27  C   -0.475431
    28  H    0.148546
    29  H    0.152314
    30  H    0.141819
    31  H    0.152237
    32  H    0.159166
    33  H    0.155559
    34  H    0.159110
 Sum of Mulliken charges =  -0.00000

 Dipole moment (field-independent basis, Debye):
    X=             -3.3953    Y=             -2.5640    Z=              2.9136  Tot=              5.1567
 Quadrupole moment (field-independent basis, Debye-Ang):
   XX=           -111.1050   YY=            -93.0269   ZZ=            -91.1489
   XY=             -4.7358   XZ=              9.9397   YZ=             -0.3006

 Normal termination of Gaussian 16 at Thu May  6 20:40:05 2021.
