 Gaussian 16, Revision A.03,
 Gaussian 16:  EM64L-G16RevA.03 25-Dec-2016

 -------------
 #p 6-31g* mp2
 -------------

 ------------------------------------------------------
 Input file generated by CHIRIPA (05-May-2021 14:53:14)
 ------------------------------------------------------
 Symbolic Z-matrix:
 Charge =  0 Multiplicity = 1

                         Standard orientation:
 ---------------------------------------------------------------------
 Center     Atomic      Atomic             Coordinates (Angstroms)
 Number     Number       Type             X           Y           Z
 ---------------------------------------------------------------------
      1          6           0        3.669498    0.310709    0.069993
      2          6           0        4.649121    0.324561   -1.103946
      3          6           0        5.228666    1.713460   -1.373913
      4          1           0        2.853045    1.017020   -0.133657
      5          1           0        4.181976    0.676568    0.970497
      6          1           0        4.135335   -0.042523   -2.001659
      7          1           0        5.463237   -0.382007   -0.897563
      8          1           0        5.765569    2.084385   -0.494850
      9          1           0        4.430123    2.425798   -1.605219
     10          1           0        5.926370    1.700400   -2.217060
     11          6           0        3.081655   -1.070783    0.352217
     12          6           0        2.102032   -1.084635    1.526156
     13          6           0        1.522487   -2.473534    1.796123
     14          1           0        2.569177   -1.436642   -0.548287
     15          1           0        3.898108   -1.777094    0.555867
     16          1           0        1.287917   -0.378067    1.319773
     17          1           0        2.615819   -0.717551    2.423869
     18          1           0        2.321031   -3.185873    2.027429
     19          1           0        0.985584   -2.844459    0.917060
     20          1           0        0.824783   -2.460474    2.639270
     21          6           0       -3.227750   -1.861120   -1.331148
     22          6           0       -1.888484   -1.544417   -1.080973
     23          6           0       -1.549604   -0.351483   -0.435514
     24          6           0       -2.580074    0.505534   -0.052180
     25          6           0       -3.923731    0.218141   -0.287299
     26          6           0       -4.239316   -0.980382   -0.934212
     27          1           0       -3.481952   -2.789989   -1.833122
     28          1           0       -1.100797   -2.226515   -1.388114
     29          1           0       -0.521008   -0.081469   -0.229362
     30          1           0       -4.686891    0.918052    0.030709
     31          1           0       -5.280268   -1.223734   -1.127195
     32          7           0       -2.233649    1.771398    0.631909
     33          8           0       -3.160106    2.509578    0.959635
     34          8           0       -1.042222    2.001433    0.827418
 ---------------------------------------------------------------------

 SCF Done:  E(RHF) =  -669.535660890     A.U. after   15 cycles
 E2 =    -0.2092012053D+01 EUMP2 =    -0.67162767294339D+03

 The electronic state is 1-A.
 Alpha  occ. eigenvalues --  -20.60836 -20.60831 -15.85881 -11.31222 -11.27793
 Alpha  occ. eigenvalues --  -11.27780 -11.27533 -11.26809 -11.26799 -11.21742
 Alpha  occ. eigenvalues --  -11.21595 -11.21587 -11.21398 -11.21325 -11.20955
 Alpha  occ. eigenvalues --   -1.59904  -1.39459  -1.19397  -1.08796  -1.08526
 Alpha  occ. eigenvalues --   -1.04800  -1.03622  -0.96077  -0.95634  -0.87090
 Alpha  occ. eigenvalues --   -0.86200  -0.82467  -0.79677  -0.78308  -0.77519
 Alpha  occ. eigenvalues --   -0.72101  -0.71222  -0.70519  -0.65236  -0.65049
 Alpha  occ. eigenvalues --   -0.64774  -0.62203  -0.60971  -0.59436  -0.57668
 Alpha  occ. eigenvalues --   -0.55406  -0.55281  -0.53121  -0.52910  -0.52758
 Alpha  occ. eigenvalues --   -0.52486  -0.50020  -0.48865  -0.48855  -0.47978
 Alpha  occ. eigenvalues --   -0.46718  -0.45850  -0.45766  -0.44860  -0.43867
 Alpha  occ. eigenvalues --   -0.37376  -0.36392
 Alpha virt. eigenvalues --    0.04986   0.11218   0.16463   0.19032   0.22975
 Alpha virt. eigenvalues --    0.24017   0.25699   0.25906   0.27734   0.28266
 Alpha virt. eigenvalues --    0.29340   0.30729   0.31543   0.31688   0.32501

 Mulliken charges:
               1
     1  C   -0.300535
     2  C   -0.299365
     3  C   -0.476081
     4  H    0.156456
     5  H    0.152564
     6  H    0.149040
     7  H    0.151091
     8  H    0.156372
     9  H    0.158111
    10  H    0.159370
    11  C   -0.298047
    12  C   -0.309847
    13  C   -0.474766
    14  H    0.139815
    15  H    0.150730
    16  H    0.160507
    17  H    0.158195
    18  H    0.156803
    19  H    0.144387
    20  H    0.164212
    21  C   -0.170503
    22  C   -0.221389
    23  C   -0.174572
    24  C    0.156922
    25  C   -0.170277
    26  C   -0.218722
    27  H    0.225901
    28  H    0.224219
    29  H    0.284347
    30  H    0.275694
    31  H    0.223626
    32  N    0.488049
    33  O   -0.459618
    34  O   -0.462687
 Sum of Mulliken charges =  -0.00000

 Dipole moment (field-independent basis, Debye):
    X=             -1.1968    Y=             -4.3455    Z=             -2.3091  Tot=              5.0643
 Quadrupole moment (field-independent basis, Debye-Ang):
   XX=            -83.0104   YY=           -100.6430   ZZ=            -94.8328
   XY=              9.4115   XZ=              7.0533   YZ=             -0.7041

 Normal termination of Gaussian 16 at Thu May  6 07:25:02 2021.
