 Gaussian 16, Revision A.03,
 Gaussian 16:  EM64L-G16RevA.03 25-Dec-2016

 -------------
 #p 6-31g* mp2
 -------------

 ------------------------------------------------------
 Input file generated by CHIRIPA (05-May-2021 14:53:14)
 ------------------------------------------------------
 Symbolic Z-matrix:
 Charge =  0 Multiplicity = 1

                         Standard orientation:
 ---------------------------------------------------------------------
 Center     Atomic      Atomic             Coordinates (Angstroms)
 Number     Number       Type             X           Y           Z
 ---------------------------------------------------------------------
      1          6           0        4.772815   -0.032961   -0.494205
      2          6           0        6.043179   -0.122021    0.352097
      3          6           0        7.233497    0.589629   -0.291714
      4          1           0        4.968665   -0.465835   -1.484765
      5          1           0        4.523695    1.024493   -0.658903
      6          1           0        6.289052   -1.178996    0.516312
      7          1           0        5.844226    0.310942    1.340822
      8          1           0        7.012886    1.651587   -0.440633
      9          1           0        7.460239    0.153184   -1.269827
     10          1           0        8.130986    0.513508    0.330040
     11          6           0        3.574127   -0.739690    0.136199
     12          6           0        2.303763   -0.650631   -0.710103
     13          6           0        1.113445   -1.362280   -0.066292
     14          1           0        3.823246   -1.797144    0.300897
     15          1           0        3.378277   -0.306816    1.126759
     16          1           0        2.502715   -1.083593   -1.698828
     17          1           0        2.057889    0.406344   -0.874318
     18          1           0        0.886702   -0.925835    0.911821
     19          1           0        1.334056   -2.424238    0.082627
     20          1           0        0.215955   -1.286159   -0.688046
     21          6           0       -1.209742    1.545579    0.922964
     22          6           0       -1.613831    0.378459    1.579520
     23          6           0       -2.748504   -0.318837    1.154264
     24          6           0       -3.458786    0.181574    0.064137
     25          6           0       -3.081530    1.341559   -0.610699
     26          6           0       -1.943588    2.022563   -0.168127
     27          1           0       -0.327032    2.080929    1.260040
     28          1           0       -1.045846    0.005699    2.427157
     29          1           0       -3.083699   -1.224893    1.644288
     30          1           0       -3.668059    1.688605   -1.452696
     31          1           0       -1.632113    2.928701   -0.679930
     32          7           0       -4.661744   -0.547998   -0.395228
     33          8           0       -5.270335   -0.086417   -1.358139
     34          8           0       -4.973253   -1.567603    0.216330
 ---------------------------------------------------------------------

 SCF Done:  E(RHF) =  -669.534453527     A.U. after   15 cycles
 E2 =    -0.2092494039D+01 EUMP2 =    -0.67162694756601D+03

 The electronic state is 1-A.
 Alpha  occ. eigenvalues --  -20.60771 -20.60765 -15.85824 -11.31204 -11.27755
 Alpha  occ. eigenvalues --  -11.27734 -11.27497 -11.26794 -11.26770 -11.22113
 Alpha  occ. eigenvalues --  -11.22031 -11.21922 -11.21840 -11.21475 -11.21446
 Alpha  occ. eigenvalues --   -1.59846  -1.39399  -1.19371  -1.08923  -1.08764
 Alpha  occ. eigenvalues --   -1.04778  -1.03981  -0.96428  -0.95597  -0.87451
 Alpha  occ. eigenvalues --   -0.86172  -0.82430  -0.80052  -0.78735  -0.77476
 Alpha  occ. eigenvalues --   -0.72042  -0.71169  -0.70477  -0.65570  -0.65023
 Alpha  occ. eigenvalues --   -0.64794  -0.62139  -0.61389  -0.59791  -0.58033
 Alpha  occ. eigenvalues --   -0.55785  -0.55279  -0.53404  -0.52950  -0.52777
 Alpha  occ. eigenvalues --   -0.52761  -0.50353  -0.48803  -0.48796  -0.48362
 Alpha  occ. eigenvalues --   -0.47099  -0.46274  -0.46210  -0.44802  -0.44235
 Alpha  occ. eigenvalues --   -0.37309  -0.36317
 Alpha virt. eigenvalues --    0.05037   0.11215   0.16486   0.20568   0.22580
 Alpha virt. eigenvalues --    0.24001   0.25886   0.26342   0.27191   0.28098
 Alpha virt. eigenvalues --    0.28398   0.30426   0.31220   0.31563   0.31723

 Mulliken charges:
               1
     1  C   -0.298082
     2  C   -0.299750
     3  C   -0.475849
     4  H    0.151604
     5  H    0.147488
     6  H    0.153196
     7  H    0.150693
     8  H    0.154657
     9  H    0.156305
    10  H    0.161289
    11  C   -0.297818
    12  C   -0.300249
    13  C   -0.472971
    14  H    0.151762
    15  H    0.144796
    16  H    0.155055
    17  H    0.146819
    18  H    0.145501
    19  H    0.155677
    20  H    0.166369
    21  C   -0.169219
    22  C   -0.213284
    23  C   -0.172263
    24  C    0.158216
    25  C   -0.171598
    26  C   -0.218753
    27  H    0.225086
    28  H    0.223112
    29  H    0.275795
    30  H    0.275570
    31  H    0.223422
    32  N    0.488044
    33  O   -0.460434
    34  O   -0.460185
 Sum of Mulliken charges =  -0.00000

 Dipole moment (field-independent basis, Debye):
    X=              4.2627    Y=              2.5299    Z=              1.5781  Tot=              5.2020
 Quadrupole moment (field-independent basis, Debye-Ang):
   XX=           -125.4448   YY=            -91.3605   ZZ=            -92.2230
   XY=             -9.4464   XZ=             -4.7435   YZ=             -1.7423

 Normal termination of Gaussian 16 at Thu May  6 05:48:59 2021.
