 Gaussian 16, Revision A.03,
 Gaussian 16:  EM64L-G16RevA.03 25-Dec-2016

 -------------
 #p 6-31g* mp2
 -------------

 ------------------------------------------------------
 Input file generated by CHIRIPA (05-May-2021 14:57:23)
 ------------------------------------------------------
 Symbolic Z-matrix:
 Charge =  0 Multiplicity = 1

                         Standard orientation:
 ---------------------------------------------------------------------
 Center     Atomic      Atomic             Coordinates (Angstroms)
 Number     Number       Type             X           Y           Z
 ---------------------------------------------------------------------
      1          6           0       -3.007671   -2.300286   -0.126723
      2          6           0       -4.381878   -2.048950   -0.196766
      3          6           0       -4.864876   -0.736991   -0.191782
      4          6           0       -3.941327    0.304411   -0.115428
      5          6           0       -2.566304    0.086296   -0.044536
      6          6           0       -2.105860   -1.233741   -0.050965
      7          1           0       -2.641227   -3.322585   -0.131156
      8          1           0       -5.084554   -2.875280   -0.255682
      9          1           0       -5.923564   -0.513917   -0.245030
     10          1           0       -1.890256    0.930705    0.013342
     11          1           0       -1.038090   -1.425945    0.003534
     12          7           0       -4.440717    1.697599   -0.109386
     13          8           0       -3.606458    2.597614   -0.041399
     14          8           0       -5.656942    1.863185   -0.172752
     15          6           0        5.858505    1.179484   -0.775076
     16          6           0        5.360837    0.071581   -1.468903
     17          6           0        4.253519   -0.630928   -0.984263
     18          6           0        3.665719   -0.196056    0.202610
     19          6           0        4.138255    0.903967    0.916718
     20          6           0        5.246704    1.591416    0.413426
     21          1           0        6.719135    1.719361   -1.158800
     22          1           0        5.833958   -0.250592   -2.392161
     23          1           0        3.847679   -1.491991   -1.501257
     24          1           0        3.645425    1.201292    1.834396
     25          1           0        5.631044    2.451476    0.954372
     26          7           0        2.492852   -0.931799    0.725550
     27          8           0        1.992898   -0.528555    1.773442
     28          8           0        2.095722   -1.897787    0.077636
 ---------------------------------------------------------------------

 SCF Done:  E(RHF) =  -868.340790939     A.U. after   16 cycles
 E2 =    -0.2598344836D+01 EUMP2 =    -0.87093913577563D+03

 The electronic state is 1-A.
 Alpha  occ. eigenvalues --  -20.61768 -20.61756 -20.60073 -20.60068 -15.86763
 Alpha  occ. eigenvalues --  -15.85114 -11.31797 -11.30273 -11.28336 -11.28307
 Alpha  occ. eigenvalues --  -11.28001 -11.27265 -11.27242 -11.26839 -11.26721
 Alpha  occ. eigenvalues --  -11.26434 -11.25838 -11.25530  -1.60823  -1.59151
 Alpha  occ. eigenvalues --   -1.40379  -1.38711  -1.19937  -1.18396  -1.09395
 Alpha  occ. eigenvalues --   -1.07823  -1.05286  -1.03746  -0.96282  -0.94704
 Alpha  occ. eigenvalues --   -0.86700  -0.85146  -0.83123  -0.81531  -0.78210
 Alpha  occ. eigenvalues --   -0.76612  -0.72980  -0.72122  -0.71340  -0.71037
 Alpha  occ. eigenvalues --   -0.70470  -0.69501  -0.65590  -0.65283  -0.64034
 Alpha  occ. eigenvalues --   -0.63697  -0.62635  -0.61079  -0.55798  -0.54243
 Alpha  occ. eigenvalues --   -0.53634  -0.53371  -0.52115  -0.51807  -0.49757
 Alpha  occ. eigenvalues --   -0.49717  -0.48107  -0.48072  -0.45850  -0.44163
 Alpha  occ. eigenvalues --   -0.37896  -0.36871  -0.36368  -0.35346
 Alpha virt. eigenvalues --    0.04260   0.05878   0.10788   0.12307   0.15827
 Alpha virt. eigenvalues --    0.17444   0.20965   0.22572   0.26905   0.27793
 Alpha virt. eigenvalues --    0.28564   0.29299   0.30562   0.31997   0.32227

 Mulliken charges:
               1
     1  C   -0.172784
     2  C   -0.218720
     3  C   -0.173420
     4  C    0.158047
     5  C   -0.172886
     6  C   -0.225210
     7  H    0.226872
     8  H    0.219844
     9  H    0.271992
    10  H    0.273614
    11  H    0.245933
    12  N    0.488214
    13  O   -0.462826
    14  O   -0.463350
    15  C   -0.169362
    16  C   -0.218462
    17  C   -0.170521
    18  C    0.157448
    19  C   -0.170123
    20  C   -0.218393
    21  H    0.228236
    22  H    0.225303
    23  H    0.274995
    24  H    0.277287
    25  H    0.226346
    26  N    0.487717
    27  O   -0.458248
    28  O   -0.467541
 Sum of Mulliken charges =  -0.00000

 Dipole moment (field-independent basis, Debye):
    X=              6.4755    Y=             -2.3138    Z=             -1.8215  Tot=              7.1136
 Quadrupole moment (field-independent basis, Debye-Ang):
   XX=            -84.8340   YY=           -107.3781   ZZ=           -103.5842
   XY=             31.1415   XZ=             -6.2632   YZ=              4.4141

 Normal termination of Gaussian 16 at Fri May  7 01:47:53 2021.
