 Gaussian 16, Revision A.03,
 Gaussian 16:  EM64L-G16RevA.03 25-Dec-2016

 -------------
 #p 6-31g* mp2
 -------------

 ------------------------------------------------------
 Input file generated by CHIRIPA (05-May-2021 14:53:14)
 ------------------------------------------------------
 Symbolic Z-matrix:
 Charge =  0 Multiplicity = 1

                         Standard orientation:
 ---------------------------------------------------------------------
 Center     Atomic      Atomic             Coordinates (Angstroms)
 Number     Number       Type             X           Y           Z
 ---------------------------------------------------------------------
      1          6           0        4.673290   -0.263491   -0.189457
      2          6           0        5.039990    1.156414    0.243423
      3          6           0        6.458867    1.551662   -0.166896
      4          1           0        5.392802   -0.970171    0.246260
      5          1           0        4.776630   -0.344973   -1.280364
      6          1           0        4.934656    1.235584    1.333034
      7          1           0        4.319408    1.859778   -0.193220
      8          1           0        6.573640    1.500844   -1.254483
      9          1           0        7.192384    0.873104    0.280443
     10          1           0        6.700080    2.570328    0.152474
     11          6           0        3.257857   -0.673191    0.213562
     12          6           0        2.891157   -2.093096   -0.219318
     13          6           0        1.472280   -2.488344    0.191000
     14          1           0        3.154517   -0.591709    1.304468
     15          1           0        2.538344    0.033489   -0.222156
     16          1           0        3.611739   -2.796460    0.217325
     17          1           0        2.996491   -2.172265   -1.308929
     18          1           0        0.738763   -1.809785   -0.256339
     19          1           0        1.357506   -2.437526    1.278587
     20          1           0        1.231066   -3.507009   -0.128369
     21          6           0       -3.942030   -2.011720   -0.035442
     22          6           0       -2.567381   -1.757327    0.010877
     23          6           0       -2.088473   -0.443944    0.025685
     24          6           0       -3.016516    0.595750   -0.006900
     25          6           0       -4.392098    0.374585   -0.053286
     26          6           0       -4.848403   -0.946829   -0.067319
     27          1           0       -4.305278   -3.035107   -0.046643
     28          1           0       -1.861167   -2.582366    0.035710
     29          1           0       -1.029546   -0.218507    0.061333
     30          1           0       -5.071721    1.217768   -0.077237
     31          1           0       -5.916528   -1.141407   -0.103313
     32          7           0       -2.521483    1.990421    0.008367
     33          8           0       -3.359661    2.888881   -0.021019
     34          8           0       -1.304669    2.158696    0.049428
 ---------------------------------------------------------------------

 SCF Done:  E(RHF) =  -669.535499965     A.U. after   15 cycles
 E2 =    -0.2091496776D+01 EUMP2 =    -0.67162699674075D+03

 The electronic state is 1-A.
 Alpha  occ. eigenvalues --  -20.60734 -20.60728 -15.85784 -11.31119 -11.27691
 Alpha  occ. eigenvalues --  -11.27654 -11.27423 -11.26708 -11.26651 -11.22042
 Alpha  occ. eigenvalues --  -11.21940 -11.21513 -11.21445 -11.21369 -11.20917
 Alpha  occ. eigenvalues --   -1.59808  -1.39362  -1.19289  -1.08691  -1.08566
 Alpha  occ. eigenvalues --   -1.04690  -1.03739  -0.96226  -0.95531  -0.87262
 Alpha  occ. eigenvalues --   -0.86086  -0.82365  -0.79823  -0.78312  -0.77407
 Alpha  occ. eigenvalues --   -0.72004  -0.71130  -0.70413  -0.65200  -0.64940
 Alpha  occ. eigenvalues --   -0.64688  -0.62114  -0.61093  -0.59625  -0.57788
 Alpha  occ. eigenvalues --   -0.55541  -0.55170  -0.53020  -0.52992  -0.52752
 Alpha  occ. eigenvalues --   -0.52617  -0.50176  -0.48759  -0.48758  -0.48118
 Alpha  occ. eigenvalues --   -0.46814  -0.45868  -0.45747  -0.44774  -0.43960
 Alpha  occ. eigenvalues --   -0.37274  -0.36287
 Alpha virt. eigenvalues --    0.05109   0.11363   0.16599   0.20166   0.22797
 Alpha virt. eigenvalues --    0.23934   0.25582   0.26228   0.27113   0.28168
 Alpha virt. eigenvalues --    0.29590   0.29796   0.31308   0.31432   0.32092

 Mulliken charges:
               1
     1  C   -0.298666
     2  C   -0.300796
     3  C   -0.475977
     4  H    0.148767
     5  H    0.149808
     6  H    0.152596
     7  H    0.157330
     8  H    0.155066
     9  H    0.153928
    10  H    0.161693
    11  C   -0.301323
    12  C   -0.299279
    13  C   -0.483410
    14  H    0.150768
    15  H    0.155660
    16  H    0.154043
    17  H    0.154011
    18  H    0.149583
    19  H    0.158643
    20  H    0.159050
    21  C   -0.171067
    22  C   -0.222182
    23  C   -0.178686
    24  C    0.160539
    25  C   -0.170995
    26  C   -0.218649
    27  H    0.225401
    28  H    0.228905
    29  H    0.280149
    30  H    0.275250
    31  H    0.223135
    32  N    0.488394
    33  O   -0.460576
    34  O   -0.461111
 Sum of Mulliken charges =  -0.00000

 Dipole moment (field-independent basis, Debye):
    X=             -1.5874    Y=             -4.8746    Z=             -0.0422  Tot=              5.1267
 Quadrupole moment (field-independent basis, Debye-Ang):
   XX=            -80.3316   YY=           -100.7150   ZZ=            -94.9248
   XY=             11.7305   XZ=              0.8933   YZ=             -0.3145

 Normal termination of Gaussian 16 at Thu May  6 20:23:21 2021.
