 Gaussian 16, Revision A.03,
 Gaussian 16:  EM64L-G16RevA.03 25-Dec-2016

 -------------
 #p 6-31g* mp2
 -------------

 ------------------------------------------------------
 Input file generated by CHIRIPA (05-May-2021 14:53:12)
 ------------------------------------------------------
 Symbolic Z-matrix:
 Charge =  0 Multiplicity = 1

                         Standard orientation:
 ---------------------------------------------------------------------
 Center     Atomic      Atomic             Coordinates (Angstroms)
 Number     Number       Type             X           Y           Z
 ---------------------------------------------------------------------
      1          6           0        4.224614   -0.278638    0.418260
      2          6           0        3.842537   -1.655990   -0.124789
      3          6           0        4.552321   -2.796841    0.604909
      4          1           0        5.312307   -0.147895    0.335944
      5          1           0        3.984773   -0.235202    1.489701
      6          1           0        4.081749   -1.696338   -1.195193
      7          1           0        2.755604   -1.783393   -0.041347
      8          1           0        4.304868   -2.785008    1.671318
      9          1           0        5.638548   -2.697459    0.510916
     10          1           0        4.264661   -3.772401    0.200690
     11          6           0        3.523167    0.872104   -0.301110
     12          6           0        3.905244    2.249456    0.241939
     13          6           0        3.195460    3.390307   -0.487760
     14          1           0        3.763007    0.828669   -1.372551
     15          1           0        2.435474    0.741361   -0.218794
     16          1           0        4.992176    2.376859    0.158497
     17          1           0        3.666031    2.289804    1.312343
     18          1           0        2.109232    3.290925   -0.393766
     19          1           0        3.442912    3.378475   -1.554169
     20          1           0        3.483120    4.365868   -0.083540
     21          6           0       -1.048246   -1.717175   -0.542004
     22          6           0       -2.332764   -2.265198   -0.463234
     23          6           0       -3.436163   -1.451701   -0.188857
     24          6           0       -3.217725   -0.088225    0.002213
     25          6           0       -1.950223    0.487563   -0.069876
     26          6           0       -0.861404   -0.344962   -0.345420
     27          1           0       -0.196763   -2.356509   -0.755600
     28          1           0       -2.480854   -3.330534   -0.615461
     29          1           0       -4.441442   -1.849686   -0.122237
     30          1           0       -1.834060    1.553142    0.086540
     31          1           0        0.135032    0.083393   -0.406002
     32          7           0       -4.378125    0.783061    0.293302
     33          8           0       -4.159120    1.981247    0.457693
     34          8           0       -5.484680    0.251290    0.351553
 ---------------------------------------------------------------------

 SCF Done:  E(RHF) =  -669.535534775     A.U. after   15 cycles
 E2 =    -0.2091580948D+01 EUMP2 =    -0.67162711572305D+03

 The electronic state is 1-A.
 Alpha  occ. eigenvalues --  -20.60739 -20.60734 -15.85792 -11.31155 -11.27725
 Alpha  occ. eigenvalues --  -11.27720 -11.27460 -11.26739 -11.26711 -11.22648
 Alpha  occ. eigenvalues --  -11.22440 -11.22345 -11.22278 -11.21907 -11.21738
 Alpha  occ. eigenvalues --   -1.59815  -1.39368  -1.19326  -1.09358  -1.08721
 Alpha  occ. eigenvalues --   -1.04731  -1.04381  -0.96815  -0.95557  -0.87827
 Alpha  occ. eigenvalues --   -0.86131  -0.82391  -0.80452  -0.79200  -0.77437
 Alpha  occ. eigenvalues --   -0.72011  -0.71138  -0.70435  -0.66031  -0.64978
 Alpha  occ. eigenvalues --   -0.64715  -0.62090  -0.61769  -0.60189  -0.58434
 Alpha  occ. eigenvalues --   -0.56106  -0.55224  -0.53483  -0.53259  -0.53059
 Alpha  occ. eigenvalues --   -0.52817  -0.50750  -0.48790  -0.48766  -0.48745
 Alpha  occ. eigenvalues --   -0.47493  -0.46720  -0.46620  -0.44774  -0.44656
 Alpha  occ. eigenvalues --   -0.37306  -0.36334
 Alpha virt. eigenvalues --    0.05095   0.11306   0.16585   0.18346   0.22694
 Alpha virt. eigenvalues --    0.22911   0.24695   0.26241   0.26654   0.27163
 Alpha virt. eigenvalues --    0.29341   0.30770   0.30969   0.31280   0.31733

 Mulliken charges:
               1
     1  C   -0.298455
     2  C   -0.300213
     3  C   -0.476158
     4  H    0.154132
     5  H    0.152249
     6  H    0.153952
     7  H    0.141634
     8  H    0.157544
     9  H    0.158827
    10  H    0.160231
    11  C   -0.305394
    12  C   -0.300180
    13  C   -0.475382
    14  H    0.152414
    15  H    0.143746
    16  H    0.155411
    17  H    0.154207
    18  H    0.151275
    19  H    0.156859
    20  H    0.164743
    21  C   -0.175984
    22  C   -0.218539
    23  C   -0.171127
    24  C    0.158942
    25  C   -0.174050
    26  C   -0.227808
    27  H    0.228050
    28  H    0.223389
    29  H    0.275461
    30  H    0.275837
    31  H    0.237402
    32  N    0.488049
    33  O   -0.460453
    34  O   -0.460608
 Sum of Mulliken charges =  -0.00000

 Dipole moment (field-independent basis, Debye):
    X=              4.3619    Y=             -3.0191    Z=             -0.9962  Tot=              5.3976
 Quadrupole moment (field-independent basis, Debye-Ang):
   XX=           -117.9551   YY=            -91.7583   ZZ=            -95.3324
   XY=             12.9966   XZ=              2.9196   YZ=              0.6673

 Normal termination of Gaussian 16 at Thu May  6 16:59:52 2021.
