 Gaussian 16, Revision A.03,
 Gaussian 16:  EM64L-G16RevA.03 25-Dec-2016

 -------------
 #p 6-31g* mp2
 -------------

 ------------------------------------------------------
 Input file generated by CHIRIPA (05-May-2021 14:57:25)
 ------------------------------------------------------
 Symbolic Z-matrix:
 Charge =  0 Multiplicity = 1

                         Standard orientation:
 ---------------------------------------------------------------------
 Center     Atomic      Atomic             Coordinates (Angstroms)
 Number     Number       Type             X           Y           Z
 ---------------------------------------------------------------------
      1          6           0        4.722746    1.345372   -0.210327
      2          6           0        3.830488    1.547764    0.847706
      3          6           0        2.797788    0.636984    1.089695
      4          6           0        2.686163   -0.470272    0.250164
      5          6           0        3.559340   -0.699563   -0.812040
      6          6           0        4.584568    0.224330   -1.035368
      7          1           0        5.522070    2.057981   -0.391061
      8          1           0        3.935390    2.417486    1.490065
      9          1           0        2.093089    0.769279    1.901677
     10          1           0        3.429386   -1.575964   -1.435299
     11          1           0        5.276046    0.064593   -1.857796
     12          7           0        1.596844   -1.441416    0.496469
     13          8           0        1.519932   -2.408959   -0.257575
     14          8           0        0.840575   -1.216666    1.438903
     15          6           0       -3.287020   -2.176369   -0.136728
     16          6           0       -2.165683   -1.675711   -0.806404
     17          6           0       -1.922281   -0.299806   -0.853202
     18          6           0       -2.824963    0.550610   -0.216612
     19          6           0       -3.951076    0.082380    0.458606
     20          6           0       -4.174573   -1.297275    0.492531
     21          1           0       -3.468369   -3.246660   -0.105374
     22          1           0       -1.474698   -2.356072   -1.295987
     23          1           0       -1.062030    0.114775   -1.364582
     24          1           0       -4.621962    0.785396    0.937247
     25          1           0       -5.046240   -1.683263    1.013351
     26          7           0       -2.577821    2.009203   -0.259340
     27          8           0       -3.388218    2.737485    0.309430
     28          8           0       -1.578393    2.396550   -0.860792
 ---------------------------------------------------------------------

 SCF Done:  E(RHF) =  -868.340001979     A.U. after   16 cycles
 E2 =    -0.2599739598D+01 EUMP2 =    -0.87093974157704D+03

 The electronic state is 1-A.
 Alpha  occ. eigenvalues --  -20.61323 -20.61249 -20.60157 -20.60143 -15.86289
 Alpha  occ. eigenvalues --  -15.85190 -11.31346 -11.30228 -11.27916 -11.27839
 Alpha  occ. eigenvalues --  -11.27561 -11.26845 -11.26777 -11.26767 -11.26717
 Alpha  occ. eigenvalues --  -11.26371 -11.25758 -11.25537  -1.60352  -1.59232
 Alpha  occ. eigenvalues --   -1.39911  -1.38796  -1.19488  -1.18336  -1.08946
 Alpha  occ. eigenvalues --   -1.07794  -1.04839  -1.03690  -0.95832  -0.94701
 Alpha  occ. eigenvalues --   -0.86258  -0.85112  -0.82675  -0.81547  -0.77757
 Alpha  occ. eigenvalues --   -0.76641  -0.72526  -0.71681  -0.71421  -0.70597
 Alpha  occ. eigenvalues --   -0.70541  -0.69479  -0.65145  -0.64843  -0.64000
 Alpha  occ. eigenvalues --   -0.63689  -0.62194  -0.61063  -0.55359  -0.54217
 Alpha  occ. eigenvalues --   -0.53186  -0.52931  -0.52021  -0.51793  -0.49299
 Alpha  occ. eigenvalues --   -0.49243  -0.48195  -0.48144  -0.45375  -0.44277
 Alpha  occ. eigenvalues --   -0.37454  -0.36417  -0.36277  -0.35215
 Alpha virt. eigenvalues --    0.04714   0.05876   0.11238   0.12403   0.16282
 Alpha virt. eigenvalues --    0.17471   0.21385   0.22469   0.27321   0.28096
 Alpha virt. eigenvalues --    0.28454   0.29191   0.31001   0.32062   0.32493

 Mulliken charges:
               1
     1  C   -0.169064
     2  C   -0.216974
     3  C   -0.166911
     4  C    0.156132
     5  C   -0.171821
     6  C   -0.218176
     7  H    0.227329
     8  H    0.226678
     9  H    0.277739
    10  H    0.272963
    11  H    0.223721
    12  N    0.486780
    13  O   -0.470483
    14  O   -0.455020
    15  C   -0.169945
    16  C   -0.208000
    17  C   -0.170172
    18  C    0.159121
    19  C   -0.172898
    20  C   -0.217726
    21  H    0.224612
    22  H    0.235303
    23  H    0.267487
    24  H    0.271246
    25  H    0.219636
    26  N    0.488135
    27  O   -0.463441
    28  O   -0.466253
 Sum of Mulliken charges =  -0.00000

 Dipole moment (field-independent basis, Debye):
    X=              3.2566    Y=             -1.7957    Z=             -0.6054  Tot=              3.7679
 Quadrupole moment (field-independent basis, Debye-Ang):
   XX=            -76.3573   YY=           -113.2640   ZZ=           -101.7573
   XY=             21.0787   XZ=             -5.5206   YZ=              5.5661

 Normal termination of Gaussian 16 at Fri May  7 06:33:52 2021.
