 Gaussian 16, Revision A.03,
 Gaussian 16:  EM64L-G16RevA.03 25-Dec-2016

 -------------
 #p 6-31g* mp2
 -------------

 ------------------------------------------------------
 Input file generated by CHIRIPA (05-May-2021 14:53:14)
 ------------------------------------------------------
 Symbolic Z-matrix:
 Charge =  0 Multiplicity = 1

                         Standard orientation:
 ---------------------------------------------------------------------
 Center     Atomic      Atomic             Coordinates (Angstroms)
 Number     Number       Type             X           Y           Z
 ---------------------------------------------------------------------
      1          6           0        3.152783    0.795186    0.085244
      2          6           0        3.176404    2.101636    0.879356
      3          6           0        1.793321    2.740799    1.007214
      4          1           0        2.742985    0.989135   -0.915453
      5          1           0        2.465650    0.090046    0.573118
      6          1           0        3.864342    2.803611    0.390903
      7          1           0        3.586371    1.904590    1.878213
      8          1           0        1.100473    2.061629    1.514451
      9          1           0        1.380023    2.965758    0.018690
     10          1           0        1.833341    3.673495    1.578472
     11          6           0        4.528051    0.144227   -0.051205
     12          6           0        4.504431   -1.162223   -0.845318
     13          6           0        5.887513   -1.801387   -0.973175
     14          1           0        5.215184    0.849366   -0.539079
     15          1           0        4.937849   -0.049723    0.949492
     16          1           0        4.094463   -0.965177   -1.844175
     17          1           0        3.816492   -1.864199   -0.356864
     18          1           0        6.300811   -2.026346    0.015349
     19          1           0        6.580361   -1.122216   -1.480413
     20          1           0        5.847493   -2.734083   -1.544433
     21          6           0       -1.344367   -1.979019    0.999118
     22          6           0       -0.894791   -0.797094    0.401241
     23          6           0       -1.803326    0.103405   -0.162863
     24          6           0       -3.160418   -0.211110   -0.111173
     25          6           0       -3.639347   -1.380508    0.477405
     26          6           0       -2.712797   -2.266447    1.035228
     27          1           0       -0.631598   -2.672893    1.434887
     28          1           0        0.167366   -0.571271    0.371745
     29          1           0       -1.482638    1.025632   -0.631984
     30          1           0       -4.704307   -1.578193    0.491495
     31          1           0       -3.064812   -3.183589    1.498890
     32          7           0       -4.131779    0.734501   -0.705040
     33          8           0       -5.322187    0.434257   -0.646572
     34          8           0       -3.684330    1.758010   -1.217736
 ---------------------------------------------------------------------

 SCF Done:  E(RHF) =  -669.535677617     A.U. after   15 cycles
 E2 =    -0.2091589015D+01 EUMP2 =    -0.67162726663157D+03

 The electronic state is 1-A.
 Alpha  occ. eigenvalues --  -20.60703 -20.60698 -15.85755 -11.31109 -11.27687
 Alpha  occ. eigenvalues --  -11.27661 -11.27423 -11.26704 -11.26636 -11.22406
 Alpha  occ. eigenvalues --  -11.22330 -11.22324 -11.22137 -11.21774 -11.21653
 Alpha  occ. eigenvalues --   -1.59778  -1.39332  -1.19281  -1.09243  -1.08681
 Alpha  occ. eigenvalues --   -1.04680  -1.04251  -0.96707  -0.95517  -0.87718
 Alpha  occ. eigenvalues --   -0.86083  -0.82350  -0.80319  -0.79101  -0.77387
 Alpha  occ. eigenvalues --   -0.71974  -0.71101  -0.70396  -0.65897  -0.64932
 Alpha  occ. eigenvalues --   -0.64673  -0.62051  -0.61620  -0.60066  -0.58325
 Alpha  occ. eigenvalues --   -0.56000  -0.55193  -0.53356  -0.53187  -0.53006
 Alpha  occ. eigenvalues --   -0.52742  -0.50646  -0.48748  -0.48730  -0.48615
 Alpha  occ. eigenvalues --   -0.47348  -0.46587  -0.46531  -0.44740  -0.44533
 Alpha  occ. eigenvalues --   -0.37269  -0.36279
 Alpha virt. eigenvalues --    0.05125   0.11354   0.16564   0.19569   0.22590
 Alpha virt. eigenvalues --    0.23613   0.24780   0.25994   0.26748   0.28706
 Alpha virt. eigenvalues --    0.29393   0.30018   0.31193   0.31364   0.31644

 Mulliken charges:
               1
     1  C   -0.304803
     2  C   -0.299627
     3  C   -0.479733
     4  H    0.151465
     5  H    0.142029
     6  H    0.156356
     7  H    0.153830
     8  H    0.152399
     9  H    0.156415
    10  H    0.166547
    11  C   -0.297698
    12  C   -0.299759
    13  C   -0.476153
    14  H    0.153644
    15  H    0.151135
    16  H    0.153853
    17  H    0.146919
    18  H    0.155813
    19  H    0.157489
    20  H    0.161817
    21  C   -0.173393
    22  C   -0.227720
    23  C   -0.174214
    24  C    0.158854
    25  C   -0.171248
    26  C   -0.218515
    27  H    0.225186
    28  H    0.237118
    29  H    0.276852
    30  H    0.275304
    31  H    0.223013
    32  N    0.488074
    33  O   -0.460835
    34  O   -0.460417
 Sum of Mulliken charges =  -0.00000

 Dipole moment (field-independent basis, Debye):
    X=              3.6593    Y=             -3.2225    Z=              2.0736  Tot=              5.2986
 Quadrupole moment (field-independent basis, Debye-Ang):
   XX=           -113.7992   YY=            -91.6288   ZZ=            -94.8990
   XY=             13.3870   XZ=             -8.2363   YZ=             -1.4928

 Normal termination of Gaussian 16 at Thu May  6 15:26:55 2021.
