 Gaussian 16, Revision A.03,
 Gaussian 16:  EM64L-G16RevA.03 25-Dec-2016

 -------------
 #p 6-31g* mp2
 -------------

 ------------------------------------------------------
 Input file generated by CHIRIPA (05-May-2021 14:51:07)
 ------------------------------------------------------
 Symbolic Z-matrix:
 Charge =  0 Multiplicity = 1

                         Standard orientation:
 ---------------------------------------------------------------------
 Center     Atomic      Atomic             Coordinates (Angstroms)
 Number     Number       Type             X           Y           Z
 ---------------------------------------------------------------------
      1          6           0       -3.019615   -0.239842    0.398311
      2          6           0       -2.076018   -1.251392   -0.253133
      3          6           0       -0.727831   -1.347676    0.461650
      4          1           0       -2.537575    0.747304    0.409460
      5          1           0       -3.179533   -0.521473    1.448313
      6          1           0       -1.919025   -0.968716   -1.301972
      7          1           0       -2.560438   -2.236206   -0.262906
      8          1           0       -0.865421   -1.652279    1.504189
      9          1           0       -0.220363   -0.377587    0.459219
     10          1           0       -0.068903   -2.076456   -0.020587
     11          6           0       -4.371490   -0.132253   -0.304957
     12          6           0       -5.315086    0.879296    0.346487
     13          6           0       -6.663273    0.975580   -0.368296
     14          1           0       -4.211571    0.149378   -1.354960
     15          1           0       -4.853529   -1.119400   -0.316107
     16          1           0       -4.830666    1.864110    0.356260
     17          1           0       -5.472080    0.596620    1.395326
     18          1           0       -7.170741    0.005492   -0.365865
     19          1           0       -6.525683    1.280183   -1.410835
     20          1           0       -7.322201    1.704361    0.113941
     21          6           0        3.396419    0.881514    0.054700
     22          6           0        4.405369    2.011625   -0.152317
     23          6           0        3.791960    3.396892    0.053983
     24          1           0        2.554911    1.018351   -0.638182
     25          1           0        2.980522    0.951977    1.069323
     26          1           0        4.820261    1.938226   -1.165772
     27          1           0        5.244664    1.871975    0.541007
     28          1           0        3.394222    3.494772    1.069278
     29          1           0        2.967409    3.561399   -0.647198
     30          1           0        4.530646    4.189876   -0.098917
     31          6           0        3.994685   -0.509419   -0.148053
     32          6           0        2.985735   -1.639530    0.058963
     33          6           0        3.599144   -3.024797   -0.147336
     34          1           0        4.410582   -0.579882   -1.162677
     35          1           0        4.836192   -0.646256    0.544829
     36          1           0        2.146439   -1.499880   -0.634360
     37          1           0        2.570843   -1.566130    1.072418
     38          1           0        4.423695   -3.189303    0.553844
     39          1           0        3.996882   -3.122676   -1.162632
     40          1           0        2.860457   -3.817781    0.005564
 ---------------------------------------------------------------------

 SCF Done:  E(RHF) =  -470.732511786     A.U. after   11 cycles
 E2 =    -0.1583035089D+01 EUMP2 =    -0.47231554687508D+03

 The electronic state is 1-A.
 Alpha  occ. eigenvalues --  -11.21594 -11.21588 -11.21555 -11.21466 -11.21382
 Alpha  occ. eigenvalues --  -11.21377 -11.21322 -11.21305 -11.21074 -11.21062
 Alpha  occ. eigenvalues --  -11.21029 -11.20956  -1.08418  -1.08382  -1.03540
 Alpha  occ. eigenvalues --   -1.03455  -0.95979  -0.95923  -0.87024  -0.86916
 Alpha  occ. eigenvalues --   -0.79715  -0.79429  -0.78265  -0.78145  -0.65057
 Alpha  occ. eigenvalues --   -0.65008  -0.60948  -0.60858  -0.59529  -0.59145
 Alpha  occ. eigenvalues --   -0.57677  -0.57435  -0.55253  -0.55227  -0.52750
 Alpha  occ. eigenvalues --   -0.52583  -0.52373  -0.52351  -0.49932  -0.49863
 Alpha  occ. eigenvalues --   -0.47912  -0.47827  -0.46659  -0.46540  -0.45836
 Alpha  occ. eigenvalues --   -0.45727  -0.45651  -0.45601  -0.43797  -0.43620
 Alpha virt. eigenvalues --    0.22008   0.23089   0.23659   0.24605   0.25951
 Alpha virt. eigenvalues --    0.26577   0.26818   0.27031   0.27796   0.29360
 Alpha virt. eigenvalues --    0.30745   0.31177   0.31482   0.31758   0.32231

 Mulliken charges:
               1
     1  C   -0.298482
     2  C   -0.300470
     3  C   -0.478299
     4  H    0.149632
     5  H    0.149412
     6  H    0.151151
     7  H    0.151532
     8  H    0.153939
     9  H    0.156905
    10  H    0.164927
    11  C   -0.298181
    12  C   -0.299608
    13  C   -0.475677
    14  H    0.149350
    15  H    0.149573
    16  H    0.151926
    17  H    0.151886
    18  H    0.155142
    19  H    0.155125
    20  H    0.160210
    21  C   -0.298945
    22  C   -0.299578
    23  C   -0.475693
    24  H    0.149467
    25  H    0.149771
    26  H    0.151899
    27  H    0.152067
    28  H    0.155181
    29  H    0.154848
    30  H    0.160277
    31  C   -0.298020
    32  C   -0.302382
    33  C   -0.476796
    34  H    0.148945
    35  H    0.149187
    36  H    0.155907
    37  H    0.154203
    38  H    0.155093
    39  H    0.154758
    40  H    0.159817
 Sum of Mulliken charges =  -0.00000

 Dipole moment (field-independent basis, Debye):
    X=              0.0101    Y=             -0.0050    Z=              0.0105  Tot=              0.0154
 Quadrupole moment (field-independent basis, Debye-Ang):
   XX=            -85.9395   YY=            -85.4781   ZZ=            -83.6057
   XY=              0.7887   XZ=             -0.3354   YZ=             -0.5543

 Normal termination of Gaussian 16 at Wed May  5 18:03:56 2021.
