 Gaussian 16, Revision A.03,
 Gaussian 16:  EM64L-G16RevA.03 25-Dec-2016

 -------------
 #p 6-31g* mp2
 -------------

 ------------------------------------------------------
 Input file generated by CHIRIPA (05-May-2021 14:57:21)
 ------------------------------------------------------
 Symbolic Z-matrix:
 Charge =  0 Multiplicity = 1

                         Standard orientation:
 ---------------------------------------------------------------------
 Center     Atomic      Atomic             Coordinates (Angstroms)
 Number     Number       Type             X           Y           Z
 ---------------------------------------------------------------------
      1          6           0        4.832032    0.841735   -0.665461
      2          6           0        4.202994   -0.113703   -1.470427
      3          6           0        3.106293   -0.835664   -0.990253
      4          6           0        2.662956   -0.575505    0.305532
      5          6           0        3.268489    0.369969    1.131787
      6          6           0        4.363598    1.080101    0.630792
      7          1           0        5.683358    1.397977   -1.046559
      8          1           0        4.564624   -0.300918   -2.477512
      9          1           0        2.600612   -1.581025   -1.592036
     10          1           0        2.885217    0.534503    2.131512
     11          1           0        4.850157    1.821510    1.258182
     12          7           0        1.502770   -1.333551    0.824892
     13          8           0        1.131422   -1.085699    1.970015
     14          8           0        0.986733   -2.161207    0.077009
     15          6           0       -4.575292   -1.393399   -0.161313
     16          6           0       -4.840257   -0.168533    0.459989
     17          6           0       -3.893966    0.860251    0.433825
     18          6           0       -2.687776    0.628838   -0.225602
     19          6           0       -2.394306   -0.580440   -0.853943
     20          6           0       -3.355312   -1.595088   -0.815144
     21          1           0       -5.316108   -2.187093   -0.136081
     22          1           0       -5.786848   -0.009081    0.968502
     23          1           0       -4.073083    1.818283    0.906591
     24          1           0       -1.441628   -0.709699   -1.353057
     25          1           0       -3.146810   -2.545309   -1.298517
     26          7           0       -1.678191    1.710482   -0.259989
     27          8           0       -0.623193    1.481541   -0.847529
     28          8           0       -1.960993    2.766737    0.301250
 ---------------------------------------------------------------------

 SCF Done:  E(RHF) =  -868.340247853     A.U. after   16 cycles
 E2 =    -0.2599129955D+01 EUMP2 =    -0.87093937780847D+03

 The electronic state is 1-A.
 Alpha  occ. eigenvalues --  -20.60578 -20.60518 -20.60270 -20.60238 -15.85579
 Alpha  occ. eigenvalues --  -15.85297 -11.30632 -11.30364 -11.27226 -11.27166
 Alpha  occ. eigenvalues --  -11.26981 -11.26923 -11.26847 -11.26682 -11.26192
 Alpha  occ. eigenvalues --  -11.26151 -11.25959 -11.25841  -1.59602  -1.59325
 Alpha  occ. eigenvalues --   -1.39174  -1.38891  -1.18783  -1.18532  -1.08248
 Alpha  occ. eigenvalues --   -1.07999  -1.04171  -1.03893  -0.95140  -0.94875
 Alpha  occ. eigenvalues --   -0.85594  -0.85324  -0.82004  -0.81721  -0.77074
 Alpha  occ. eigenvalues --   -0.76787  -0.71834  -0.71549  -0.70911  -0.70576
 Alpha  occ. eigenvalues --   -0.69951  -0.69673  -0.64476  -0.64213  -0.64205
 Alpha  occ. eigenvalues --   -0.63921  -0.61549  -0.61248  -0.54723  -0.54463
 Alpha  occ. eigenvalues --   -0.52473  -0.52297  -0.52229  -0.52002  -0.48588
 Alpha  occ. eigenvalues --   -0.48546  -0.48293  -0.48261  -0.44654  -0.44369
 Alpha  occ. eigenvalues --   -0.36741  -0.36515  -0.35736  -0.35455
 Alpha virt. eigenvalues --    0.05462   0.05735   0.11915   0.12179   0.16987
 Alpha virt. eigenvalues --    0.17271   0.21880   0.22275   0.27761   0.28120
 Alpha virt. eigenvalues --    0.28679   0.29215   0.31286   0.31847   0.32773

 Mulliken charges:
               1
     1  C   -0.169117
     2  C   -0.217513
     3  C   -0.167271
     4  C    0.166286
     5  C   -0.165969
     6  C   -0.217278
     7  H    0.224245
     8  H    0.221089
     9  H    0.270135
    10  H    0.275033
    11  H    0.222740
    12  N    0.490673
    13  O   -0.459140
    14  O   -0.471958
    15  C   -0.170127
    16  C   -0.219020
    17  C   -0.170633
    18  C    0.157938
    19  C   -0.162298
    20  C   -0.216978
    21  H    0.223344
    22  H    0.220321
    23  H    0.272445
    24  H    0.278467
    25  H    0.224842
    26  N    0.489887
    27  O   -0.467569
    28  O   -0.462574
 Sum of Mulliken charges =  -0.00000

 Dipole moment (field-independent basis, Debye):
    X=              0.6515    Y=             -1.1430    Z=             -1.6596  Tot=              2.1178
 Quadrupole moment (field-independent basis, Debye-Ang):
   XX=            -63.4994   YY=           -111.1101   ZZ=           -101.6679
   XY=             11.8368   XZ=             -4.6944   YZ=              7.1884

 Normal termination of Gaussian 16 at Thu May  6 14:28:53 2021.
