 Gaussian 16, Revision A.03,
 Gaussian 16:  EM64L-G16RevA.03 25-Dec-2016

 -------------
 #p 6-31g* mp2
 -------------

 ------------------------------------------------------
 Input file generated by CHIRIPA (05-May-2021 14:57:21)
 ------------------------------------------------------
 Symbolic Z-matrix:
 Charge =  0 Multiplicity = 1

                         Standard orientation:
 ---------------------------------------------------------------------
 Center     Atomic      Atomic             Coordinates (Angstroms)
 Number     Number       Type             X           Y           Z
 ---------------------------------------------------------------------
      1          6           0       -1.388250    1.863971    1.332668
      2          6           0       -1.709061    0.645229    1.939521
      3          6           0       -2.604276   -0.238076    1.328857
      4          6           0       -3.162622    0.130988    0.106019
      5          6           0       -2.862960    1.338046   -0.523665
      6          6           0       -1.965207    2.205887    0.105176
      7          1           0       -0.691840    2.544137    1.814106
      8          1           0       -1.262514    0.377065    2.892794
      9          1           0       -2.870257   -1.187942    1.776548
     10          1           0       -3.324170    1.577683   -1.474074
     11          1           0       -1.717908    3.151711   -0.368432
     12          7           0       -4.111689   -0.795942   -0.550085
     13          8           0       -4.590025   -0.447425   -1.627288
     14          8           0       -4.359262   -1.853435    0.025288
     15          6           0        0.530136   -0.745004   -0.363359
     16          6           0        1.367219   -1.631361    0.322342
     17          6           0        2.740659   -1.385842    0.411399
     18          6           0        3.245581   -0.239165   -0.199729
     19          6           0        2.437433    0.662910   -0.889980
     20          6           0        1.066969    0.397289   -0.966268
     21          1           0       -0.535630   -0.943536   -0.427580
     22          1           0        0.953077   -2.519274    0.791535
     23          1           0        3.411517   -2.055286    0.936005
     24          1           0        2.879446    1.539662   -1.347526
     25          1           0        0.419271    1.087401   -1.499445
     26          7           0        4.698006    0.031395   -0.112207
     27          8           0        5.118211    1.048679   -0.659195
     28          8           0        5.388709   -0.778947    0.501724
 ---------------------------------------------------------------------

 SCF Done:  E(RHF) =  -868.335296831     A.U. after   16 cycles
 E2 =    -0.2605176771D+01 EUMP2 =    -0.87094047360239D+03

 The electronic state is 1-A.
 Alpha  occ. eigenvalues --  -20.61875 -20.61865 -20.60978 -20.60972 -15.86936
 Alpha  occ. eigenvalues --  -15.86034 -11.32457 -11.31350 -11.29042 -11.28959
 Alpha  occ. eigenvalues --  -11.28629 -11.28005 -11.27958 -11.27954 -11.27901
 Alpha  occ. eigenvalues --  -11.27515 -11.26889 -11.26845  -1.60957  -1.60058
 Alpha  occ. eigenvalues --   -1.40500  -1.39613  -1.20665  -1.19532  -1.09963
 Alpha  occ. eigenvalues --   -1.08908  -1.06040  -1.04943  -0.96773  -0.95758
 Alpha  occ. eigenvalues --   -0.87389  -0.86326  -0.83582  -0.82607  -0.78642
 Alpha  occ. eigenvalues --   -0.77673  -0.73125  -0.72347  -0.72249  -0.71615
 Alpha  occ. eigenvalues --   -0.71388  -0.70639  -0.66227  -0.65956  -0.65171
 Alpha  occ. eigenvalues --   -0.64966  -0.63337  -0.62311  -0.56401  -0.55900
 Alpha  occ. eigenvalues --   -0.54147  -0.54052  -0.53084  -0.52897  -0.49905
 Alpha  occ. eigenvalues --   -0.49884  -0.49010  -0.49006  -0.45862  -0.45031
 Alpha  occ. eigenvalues --   -0.38911  -0.37933  -0.36892  -0.36470
 Alpha virt. eigenvalues --    0.03809   0.04894   0.09774   0.11188   0.15278
 Alpha virt. eigenvalues --    0.16454   0.20233   0.21566   0.25738   0.27270
 Alpha virt. eigenvalues --    0.27591   0.28143   0.29776   0.31196   0.31577

 Mulliken charges:
               1
     1  C   -0.164253
     2  C   -0.211049
     3  C   -0.185828
     4  C    0.154250
     5  C   -0.177200
     6  C   -0.224389
     7  H    0.232897
     8  H    0.229245
     9  H    0.277732
    10  H    0.279387
    11  H    0.227530
    12  N    0.487323
    13  O   -0.456857
    14  O   -0.458336
    15  C   -0.166345
    16  C   -0.226446
    17  C   -0.171072
    18  C    0.156741
    19  C   -0.174205
    20  C   -0.221416
    21  H    0.234010
    22  H    0.223227
    23  H    0.275414
    24  H    0.273499
    25  H    0.220017
    26  N    0.488095
    27  O   -0.461570
    28  O   -0.460400
 Sum of Mulliken charges =  -0.00000

 Dipole moment (field-independent basis, Debye):
    X=             -2.0569    Y=              2.4382    Z=              2.1745  Tot=              3.8606
 Quadrupole moment (field-independent basis, Debye-Ang):
   XX=           -160.6943   YY=            -98.2134   ZZ=           -100.5036
   XY=            -13.0127   XZ=             -6.1639   YZ=             -4.2072

 Normal termination of Gaussian 16 at Thu May  6 19:30:45 2021.
