 Gaussian 16, Revision A.03,
 Gaussian 16:  EM64L-G16RevA.03 25-Dec-2016

 -------------
 #p 6-31g* mp2
 -------------

 ------------------------------------------------------
 Input file generated by CHIRIPA (05-May-2021 14:57:22)
 ------------------------------------------------------
 Symbolic Z-matrix:
 Charge =  0 Multiplicity = 1

                         Standard orientation:
 ---------------------------------------------------------------------
 Center     Atomic      Atomic             Coordinates (Angstroms)
 Number     Number       Type             X           Y           Z
 ---------------------------------------------------------------------
      1          6           0        1.198022    2.004122    0.215750
      2          6           0        0.900321    0.665647   -0.060620
      3          6           0        1.925844   -0.261445   -0.268830
      4          6           0        3.243784    0.186402   -0.192960
      5          6           0        3.572484    1.513219    0.080544
      6          6           0        2.530804    2.422898    0.285327
      7          1           0        0.395096    2.717546    0.376161
      8          1           0       -0.133815    0.337589   -0.115260
      9          1           0        1.723690   -1.303593   -0.484418
     10          1           0        4.613052    1.810411    0.128631
     11          1           0        2.764971    3.461751    0.499788
     12          7           0        4.338012   -0.785851   -0.411569
     13          8           0        5.490938   -0.366111   -0.339339
     14          8           0        4.022022   -1.949233   -0.651005
     15          6           0       -1.371200   -1.595242    1.550931
     16          6           0       -1.847077   -0.350649    1.976429
     17          6           0       -2.784787    0.350083    1.212083
     18          6           0       -3.227042   -0.225931    0.022164
     19          6           0       -2.771893   -1.464084   -0.428511
     20          6           0       -1.834310   -2.147015    0.351932
     21          1           0       -0.642814   -2.132673    2.150945
     22          1           0       -1.489191    0.080294    2.907154
     23          1           0       -3.169941    1.315252    1.517895
     24          1           0       -3.147318   -1.868069   -1.360858
     25          1           0       -1.466493   -3.113410    0.019011
     26          7           0       -4.219686    0.506479   -0.795535
     27          8           0       -4.593555   -0.022604   -1.840012
     28          8           0       -4.605056    1.595757   -0.376489
 ---------------------------------------------------------------------

 SCF Done:  E(RHF) =  -868.336662898     A.U. after   16 cycles
 E2 =    -0.2603689674D+01 EUMP2 =    -0.87094035257188D+03

 The electronic state is 1-A.
 Alpha  occ. eigenvalues --  -20.61709 -20.61695 -20.61074 -20.61057 -15.86765
 Alpha  occ. eigenvalues --  -15.86114 -11.32359 -11.31432 -11.28886 -11.28879
 Alpha  occ. eigenvalues --  -11.28519 -11.27937 -11.27933 -11.27870 -11.27838
 Alpha  occ. eigenvalues --  -11.27618 -11.26975 -11.26755  -1.60779  -1.60143
 Alpha  occ. eigenvalues --   -1.40324  -1.39699  -1.20551  -1.19559  -1.09853
 Alpha  occ. eigenvalues --   -1.08961  -1.05918  -1.04938  -0.96642  -0.95817
 Alpha  occ. eigenvalues --   -0.87262  -0.86342  -0.83444  -0.82645  -0.78491
 Alpha  occ. eigenvalues --   -0.77722  -0.72961  -0.72334  -0.72118  -0.71503
 Alpha  occ. eigenvalues --   -0.71465  -0.70669  -0.66106  -0.65827  -0.65197
 Alpha  occ. eigenvalues --   -0.64996  -0.63207  -0.62382  -0.56294  -0.55536
 Alpha  occ. eigenvalues --   -0.54502  -0.53921  -0.53289  -0.52525  -0.49742
 Alpha  occ. eigenvalues --   -0.49714  -0.49098  -0.49069  -0.45679  -0.45116
 Alpha  occ. eigenvalues --   -0.38641  -0.37795  -0.37371  -0.36342
 Alpha virt. eigenvalues --    0.03939   0.04843   0.09853   0.11267   0.15407
 Alpha virt. eigenvalues --    0.16401   0.20307   0.21634   0.26023   0.27165
 Alpha virt. eigenvalues --    0.27598   0.28505   0.30159   0.30936   0.31649

 Mulliken charges:
               1
     1  C   -0.177160
     2  C   -0.219428
     3  C   -0.178872
     4  C    0.159991
     5  C   -0.172783
     6  C   -0.217613
     7  H    0.225737
     8  H    0.238047
     9  H    0.269133
    10  H    0.275621
    11  H    0.224086
    12  N    0.488076
    13  O   -0.459181
    14  O   -0.462942
    15  C   -0.175875
    16  C   -0.220191
    17  C   -0.182398
    18  C    0.158348
    19  C   -0.172847
    20  C   -0.225268
    21  H    0.233977
    22  H    0.228756
    23  H    0.277328
    24  H    0.280931
    25  H    0.231273
    26  N    0.488161
    27  O   -0.455847
    28  O   -0.459059
 Sum of Mulliken charges =  -0.00000

 Dipole moment (field-independent basis, Debye):
    X=             -0.6543    Y=              0.7522    Z=              3.6993  Tot=              3.8312
 Quadrupole moment (field-independent basis, Debye-Ang):
   XX=           -150.9108   YY=            -97.2312   ZZ=           -103.5379
   XY=             21.1597   XZ=             -5.3514   YZ=              2.1139

 Normal termination of Gaussian 16 at Fri May  7 06:26:09 2021.
