 Gaussian 16, Revision A.03,
 Gaussian 16:  EM64L-G16RevA.03 25-Dec-2016

 -------------
 #p 6-31g* mp2
 -------------

 ------------------------------------------------------
 Input file generated by CHIRIPA (05-May-2021 14:53:18)
 ------------------------------------------------------
 Symbolic Z-matrix:
 Charge =  0 Multiplicity = 1

                         Standard orientation:
 ---------------------------------------------------------------------
 Center     Atomic      Atomic             Coordinates (Angstroms)
 Number     Number       Type             X           Y           Z
 ---------------------------------------------------------------------
      1          6           0        4.111343   -0.400228   -0.394460
      2          6           0        5.068080   -1.556264   -0.100828
      3          6           0        5.186647   -2.536548   -1.268210
      4          1           0        3.119529   -0.805963   -0.636595
      5          1           0        4.457393    0.134535   -1.289822
      6          1           0        4.721099   -2.087844    0.794517
      7          1           0        6.057683   -1.147723    0.140823
      8          1           0        5.554848   -2.026098   -2.164017
      9          1           0        4.210670   -2.971561   -1.506609
     10          1           0        5.875480   -3.354975   -1.036813
     11          6           0        3.982233    0.588232    0.763125
     12          6           0        3.025496    1.744268    0.469493
     13          6           0        2.906929    2.724551    1.636875
     14          1           0        3.636183    0.053469    1.658487
     15          1           0        4.974047    0.993967    1.005260
     16          1           0        2.035893    1.335727    0.227842
     17          1           0        3.372477    2.275848   -0.425852
     18          1           0        3.882906    3.159564    1.875274
     19          1           0        2.538728    2.214102    2.532682
     20          1           0        2.218096    3.542979    1.405478
     21          6           0       -1.931623    1.722816   -1.419416
     22          6           0       -1.216413    0.772964   -0.682682
     23          6           0       -1.887431   -0.226788    0.027796
     24          6           0       -3.280458   -0.247094   -0.020708
     25          6           0       -4.021248    0.685162   -0.745566
     26          6           0       -3.329293    1.675966   -1.448455
     27          1           0       -1.402228    2.495972   -1.968386
     28          1           0       -0.130918    0.806909   -0.658320
     29          1           0       -1.358630   -0.974578    0.606241
     30          1           0       -5.102842    0.625623   -0.750778
     31          1           0       -3.887343    2.412329   -2.019765
     32          7           0       -4.001917   -1.300750    0.727426
     33          8           0       -5.229582   -1.296942    0.668591
     34          8           0       -3.326070   -2.110464    1.358483
 ---------------------------------------------------------------------

 SCF Done:  E(RHF) =  -669.535525332     A.U. after   15 cycles
 E2 =    -0.2091029620D+01 EUMP2 =    -0.67162655495217D+03

 The electronic state is 1-A.
 Alpha  occ. eigenvalues --  -20.60755 -20.60750 -15.85808 -11.31170 -11.27741
 Alpha  occ. eigenvalues --  -11.27737 -11.27477 -11.26754 -11.26727 -11.22554
 Alpha  occ. eigenvalues --  -11.22095 -11.22066 -11.22004 -11.21788 -11.21444
 Alpha  occ. eigenvalues --   -1.59830  -1.39384  -1.19342  -1.09107  -1.08736
 Alpha  occ. eigenvalues --   -1.04747  -1.04167  -0.96583  -0.95572  -0.87600
 Alpha  occ. eigenvalues --   -0.86145  -0.82408  -0.80260  -0.78918  -0.77454
 Alpha  occ. eigenvalues --   -0.72027  -0.71153  -0.70450  -0.65768  -0.64994
 Alpha  occ. eigenvalues --   -0.64748  -0.62135  -0.61528  -0.59967  -0.58202
 Alpha  occ. eigenvalues --   -0.55857  -0.55245  -0.53285  -0.53074  -0.53014
 Alpha  occ. eigenvalues --   -0.52844  -0.50520  -0.48799  -0.48782  -0.48541
 Alpha  occ. eigenvalues --   -0.47291  -0.46449  -0.46358  -0.44790  -0.44422
 Alpha  occ. eigenvalues --   -0.37321  -0.36348
 Alpha virt. eigenvalues --    0.05081   0.11285   0.16559   0.19452   0.22630
 Alpha virt. eigenvalues --    0.23756   0.24689   0.26446   0.27421   0.28341
 Alpha virt. eigenvalues --    0.28808   0.30226   0.31161   0.31312   0.32099

 Mulliken charges:
               1
     1  C   -0.298062
     2  C   -0.300317
     3  C   -0.476209
     4  H    0.144724
     5  H    0.149982
     6  H    0.153964
     7  H    0.153432
     8  H    0.155182
     9  H    0.155790
    10  H    0.162587
    11  C   -0.298398
    12  C   -0.305868
    13  C   -0.475373
    14  H    0.152041
    15  H    0.153139
    16  H    0.144455
    17  H    0.152953
    18  H    0.158686
    19  H    0.158399
    20  H    0.159631
    21  C   -0.173075
    22  C   -0.226381
    23  C   -0.173511
    24  C    0.158810
    25  C   -0.171100
    26  C   -0.218508
    27  H    0.226250
    28  H    0.235662
    29  H    0.275231
    30  H    0.275540
    31  H    0.223340
    32  N    0.488115
    33  O   -0.460514
    34  O   -0.460598
 Sum of Mulliken charges =  -0.00000

 Dipole moment (field-independent basis, Debye):
    X=              2.7328    Y=              3.7229    Z=             -2.5872  Tot=              5.2935
 Quadrupole moment (field-independent basis, Debye-Ang):
   XX=           -106.3154   YY=            -96.6584   ZZ=            -95.1876
   XY=            -14.2446   XZ=             10.3463   YZ=             -0.9034

 Normal termination of Gaussian 16 at Thu May  6 02:49:20 2021.
