 Gaussian 16, Revision A.03,
 Gaussian 16:  EM64L-G16RevA.03 25-Dec-2016

 -------------
 #p 6-31g* mp2
 -------------

 ------------------------------------------------------
 Input file generated by CHIRIPA (05-May-2021 14:51:13)
 ------------------------------------------------------
 Symbolic Z-matrix:
 Charge =  0 Multiplicity = 1

                         Standard orientation:
 ---------------------------------------------------------------------
 Center     Atomic      Atomic             Coordinates (Angstroms)
 Number     Number       Type             X           Y           Z
 ---------------------------------------------------------------------
      1          6           0        2.707236    0.292911   -0.286066
      2          6           0        2.677539    1.483634    0.672726
      3          6           0        3.283466    2.748373    0.063563
      4          1           0        3.746113    0.096435   -0.584525
      5          1           0        2.162901    0.556181   -1.203553
      6          1           0        3.220585    1.217711    1.588697
      7          1           0        1.638632    1.677177    0.969087
      8          1           0        2.737386    3.040954   -0.839097
      9          1           0        4.328328    2.578877   -0.215967
     10          1           0        3.251963    3.587123    0.765964
     11          6           0        2.104958   -0.978861    0.308564
     12          6           0        2.134656   -2.169584   -0.650228
     13          6           0        1.528728   -3.434324   -0.041065
     14          1           0        2.649293   -1.242131    1.226051
     15          1           0        1.066082   -0.782385    0.607023
     16          1           0        3.173562   -2.363128   -0.946589
     17          1           0        1.591609   -1.903661   -1.566199
     18          1           0        0.483867   -3.264827    0.238465
     19          1           0        2.074808   -3.726904    0.861594
     20          1           0        1.560232   -4.273073   -0.743466
     21          6           0       -2.823406   -0.278687    0.139820
     22          6           0       -2.044526   -1.584965   -0.018197
     23          6           0       -2.892877   -2.819741    0.287455
     24          1           0       -3.212864   -0.213138    1.164989
     25          1           0       -3.697373   -0.298197   -0.525909
     26          1           0       -1.171525   -1.562417    0.646617
     27          1           0       -1.656715   -1.647321   -1.043052
     28          1           0       -3.756174   -2.869841   -0.383968
     29          1           0       -3.268226   -2.784453    1.315301
     30          1           0       -2.316408   -3.742422    0.168286
     31          6           0       -1.988788    0.964637   -0.162318
     32          6           0       -2.767669    2.270915   -0.004301
     33          6           0       -1.919318    3.505690   -0.309953
     34          1           0       -1.114821    0.984147    0.503412
     35          1           0       -1.599331    0.899088   -1.187487
     36          1           0       -3.155479    2.333272    1.020555
     37          1           0       -3.640669    2.248367   -0.669114
     38          1           0       -1.543968    3.470404   -1.337800
     39          1           0       -1.056020    3.555791    0.361470
     40          1           0       -2.495787    4.428373   -0.190784
 ---------------------------------------------------------------------

 SCF Done:  E(RHF) =  -470.732364781     A.U. after   11 cycles
 E2 =    -0.1585361938D+01 EUMP2 =    -0.47231772671978D+03

 The electronic state is 1-A.
 Alpha  occ. eigenvalues --  -11.21678 -11.21677 -11.21582 -11.21536 -11.21503
 Alpha  occ. eigenvalues --  -11.21440 -11.21340 -11.21271 -11.21138 -11.21133
 Alpha  occ. eigenvalues --  -11.21040 -11.20965  -1.08545  -1.08360  -1.03642
 Alpha  occ. eigenvalues --   -1.03456  -0.96075  -0.95910  -0.87078  -0.86940
 Alpha  occ. eigenvalues --   -0.79741  -0.79511  -0.78470  -0.78090  -0.65290
 Alpha  occ. eigenvalues --   -0.64888  -0.61140  -0.60832  -0.59438  -0.59246
 Alpha  occ. eigenvalues --   -0.57772  -0.57472  -0.55364  -0.55156  -0.52752
 Alpha  occ. eigenvalues --   -0.52624  -0.52514  -0.52325  -0.50005  -0.49859
 Alpha  occ. eigenvalues --   -0.48160  -0.47758  -0.46959  -0.46450  -0.46371
 Alpha  occ. eigenvalues --   -0.45867  -0.45669  -0.44923  -0.43867  -0.43724
 Alpha virt. eigenvalues --    0.19991   0.21728   0.23679   0.24460   0.25209
 Alpha virt. eigenvalues --    0.25926   0.26196   0.28128   0.29065   0.29475
 Alpha virt. eigenvalues --    0.30546   0.31217   0.31389   0.31793   0.32173

 Mulliken charges:
               1
     1  C   -0.297225
     2  C   -0.302689
     3  C   -0.475669
     4  H    0.149423
     5  H    0.149911
     6  H    0.151676
     7  H    0.153522
     8  H    0.155820
     9  H    0.155118
    10  H    0.159941
    11  C   -0.306833
    12  C   -0.298582
    13  C   -0.483850
    14  H    0.148683
    15  H    0.157749
    16  H    0.151655
    17  H    0.151760
    18  H    0.164524
    19  H    0.154395
    20  H    0.159501
    21  C   -0.297486
    22  C   -0.307539
    23  C   -0.477979
    24  H    0.149864
    25  H    0.149971
    26  H    0.157968
    27  H    0.152697
    28  H    0.155798
    29  H    0.155583
    30  H    0.162462
    31  C   -0.303602
    32  C   -0.299641
    33  C   -0.476563
    34  H    0.153704
    35  H    0.149434
    36  H    0.152251
    37  H    0.152418
    38  H    0.155091
    39  H    0.155976
    40  H    0.160761
 Sum of Mulliken charges =  -0.00000

 Dipole moment (field-independent basis, Debye):
    X=             -0.0695    Y=              0.0112    Z=              0.0002  Tot=              0.0704
 Quadrupole moment (field-independent basis, Debye-Ang):
   XX=            -84.2979   YY=            -86.7068   ZZ=            -83.8056
   XY=             -1.0244   XZ=              0.7954   YZ=              0.4096

 Normal termination of Gaussian 16 at Thu May  6 05:34:45 2021.
