 Gaussian 16, Revision A.03,
 Gaussian 16:  EM64L-G16RevA.03 25-Dec-2016

 -------------
 #p 6-31g* mp2
 -------------

 ------------------------------------------------------
 Input file generated by CHIRIPA (05-May-2021 14:51:13)
 ------------------------------------------------------
 Symbolic Z-matrix:
 Charge =  0 Multiplicity = 1

                         Standard orientation:
 ---------------------------------------------------------------------
 Center     Atomic      Atomic             Coordinates (Angstroms)
 Number     Number       Type             X           Y           Z
 ---------------------------------------------------------------------
      1          6           0       -2.001470   -0.921723   -0.139441
      2          6           0       -1.570223   -2.374549   -0.342687
      3          6           0       -0.058441   -2.523714   -0.516062
      4          1           0       -1.668710   -0.323506   -0.998716
      5          1           0       -1.488332   -0.514208    0.742611
      6          1           0       -2.085078   -2.779629   -1.223284
      7          1           0       -1.904215   -2.969414    0.517081
      8          1           0        0.469569   -2.145530    0.365291
      9          1           0        0.287678   -1.954667   -1.384962
     10          1           0        0.227834   -3.570236   -0.659935
     11          6           0       -3.510056   -0.756380    0.035366
     12          6           0       -3.941302    0.696446    0.238611
     13          6           0       -5.453084    0.845611    0.411986
     14          1           0       -4.023194   -1.163895   -0.846687
     15          1           0       -3.842815   -1.354597    0.894640
     16          1           0       -3.607310    1.291310   -0.621157
     17          1           0       -3.426447    1.101525    1.119208
     18          1           0       -5.799203    0.276563    1.280886
     19          1           0       -5.981094    0.467427   -0.469367
     20          1           0       -5.739359    1.892132    0.555859
     21          6           0        2.901044    0.137991    0.318194
     22          6           0        4.315575   -0.349340    0.002604
     23          6           0        4.591097   -1.753414    0.541545
     24          1           0        2.749876    0.125143    1.406280
     25          1           0        2.174157   -0.568038   -0.106721
     26          1           0        5.039563    0.358131    0.426798
     27          1           0        4.463458   -0.335148   -1.084845
     28          1           0        3.891561   -2.476141    0.109206
     29          1           0        4.470940   -1.778922    1.629439
     30          1           0        5.607869   -2.081974    0.304727
     31          6           0        2.610481    1.540112   -0.214119
     32          6           0        1.195951    2.027444    0.101472
     33          6           0        0.920428    3.431517   -0.437469
     34          1           0        3.337367    2.246142    0.210797
     35          1           0        2.761649    1.552960   -1.302203
     36          1           0        1.048067    2.013253    1.188921
     37          1           0        0.471962    1.319972   -0.322722
     38          1           0        1.040585    3.457026   -1.525363
     39          1           0        1.619963    4.154245   -0.005130
     40          1           0       -0.096344    3.760077   -0.200651
 ---------------------------------------------------------------------

 SCF Done:  E(RHF) =  -470.732669609     A.U. after   11 cycles
 E2 =    -0.1584173421D+01 EUMP2 =    -0.47231684302979D+03

 The electronic state is 1-A.
 Alpha  occ. eigenvalues --  -11.21660 -11.21624 -11.21510 -11.21487 -11.21445
 Alpha  occ. eigenvalues --  -11.21384 -11.21289 -11.21189 -11.21132 -11.21088
 Alpha  occ. eigenvalues --  -11.21008 -11.20997  -1.08482  -1.08325  -1.03578
 Alpha  occ. eigenvalues --   -1.03442  -0.96043  -0.95885  -0.87072  -0.86895
 Alpha  occ. eigenvalues --   -0.79672  -0.79507  -0.78400  -0.78024  -0.65103
 Alpha  occ. eigenvalues --   -0.64974  -0.60981  -0.60843  -0.59400  -0.59265
 Alpha  occ. eigenvalues --   -0.57739  -0.57429  -0.55320  -0.55188  -0.52724
 Alpha  occ. eigenvalues --   -0.52621  -0.52572  -0.52208  -0.49980  -0.49824
 Alpha  occ. eigenvalues --   -0.48082  -0.47816  -0.46702  -0.46562  -0.46141
 Alpha  occ. eigenvalues --   -0.45781  -0.45625  -0.45040  -0.43830  -0.43684
 Alpha virt. eigenvalues --    0.21403   0.22970   0.23881   0.24100   0.25840
 Alpha virt. eigenvalues --    0.26158   0.27058   0.27599   0.28069   0.30189
 Alpha virt. eigenvalues --    0.30603   0.31207   0.31538   0.31786   0.32179

 Mulliken charges:
               1
     1  C   -0.301584
     2  C   -0.299518
     3  C   -0.481116
     4  H    0.150490
     5  H    0.152595
     6  H    0.151899
     7  H    0.152296
     8  H    0.161129
     9  H    0.154625
    10  H    0.160691
    11  C   -0.298065
    12  C   -0.299830
    13  C   -0.475715
    14  H    0.149499
    15  H    0.149798
    16  H    0.151928
    17  H    0.152248
    18  H    0.155224
    19  H    0.155201
    20  H    0.160366
    21  C   -0.308494
    22  C   -0.298643
    23  C   -0.476599
    24  H    0.147502
    25  H    0.162342
    26  H    0.151332
    27  H    0.151343
    28  H    0.156343
    29  H    0.154560
    30  H    0.159893
    31  C   -0.297279
    32  C   -0.305346
    33  C   -0.475531
    34  H    0.148862
    35  H    0.148662
    36  H    0.150674
    37  H    0.158637
    38  H    0.154511
    39  H    0.154898
    40  H    0.160171
 Sum of Mulliken charges =  -0.00000

 Dipole moment (field-independent basis, Debye):
    X=             -0.0693    Y=             -0.0567    Z=             -0.0003  Tot=              0.0895
 Quadrupole moment (field-independent basis, Debye-Ang):
   XX=            -86.1690   YY=            -85.7708   ZZ=            -83.1103
   XY=              0.6919   XZ=              0.3760   YZ=              0.5202

 Normal termination of Gaussian 16 at Wed May  5 19:59:10 2021.
