 Gaussian 16, Revision A.03,
 Gaussian 16:  EM64L-G16RevA.03 25-Dec-2016

 -------------
 #p 6-31g* mp2
 -------------

 ------------------------------------------------------
 Input file generated by CHIRIPA (05-May-2021 14:51:13)
 ------------------------------------------------------
 Symbolic Z-matrix:
 Charge =  0 Multiplicity = 1

                         Standard orientation:
 ---------------------------------------------------------------------
 Center     Atomic      Atomic             Coordinates (Angstroms)
 Number     Number       Type             X           Y           Z
 ---------------------------------------------------------------------
      1          6           0       -3.998789    0.345894   -0.602360
      2          6           0       -5.036058   -0.694525   -0.178583
      3          6           0       -6.034301   -1.020719   -1.289844
      4          1           0       -4.515685    1.263869   -0.913945
      5          1           0       -3.458538   -0.023561   -1.484985
      6          1           0       -5.573244   -0.323820    0.703814
      7          1           0       -4.516623   -1.610064    0.132211
      8          1           0       -5.515858   -1.414673   -2.169968
      9          1           0       -6.578482   -0.121121   -1.595117
     10          1           0       -6.766676   -1.766527   -0.965409
     11          6           0       -2.993854    0.682478    0.497888
     12          6           0       -1.956585    1.722896    0.074112
     13          6           0       -0.958342    2.049090    1.185373
     14          1           0       -3.534104    1.051933    1.380514
     15          1           0       -2.476958   -0.235497    0.809473
     16          1           0       -2.476019    2.638435   -0.236682
     17          1           0       -1.419399    1.352192   -0.808285
     18          1           0       -0.414161    1.149492    1.490646
     19          1           0       -1.476785    2.443044    2.065497
     20          1           0       -0.225967    2.794898    0.860938
     21          6           0        3.061687   -1.110539    0.249435
     22          6           0        1.728344   -0.706985    0.879774
     23          6           0        0.869991   -1.910973    1.268921
     24          1           0        2.868269   -1.727234   -0.638947
     25          1           0        3.616055   -1.744429    0.955306
     26          1           0        1.177259   -0.072907    0.173469
     27          1           0        1.924956   -0.091019    1.766649
     28          1           0        1.396643   -2.541868    1.992252
     29          1           0        0.644699   -2.523654    0.390020
     30          1           0       -0.078483   -1.599599    1.717589
     31          6           0        3.930956    0.082168   -0.144964
     32          6           0        5.264298   -0.321386   -0.775302
     33          6           0        6.122652    0.882602   -1.164449
     34          1           0        3.376588    0.716058   -0.850834
     35          1           0        4.124374    0.698863    0.743419
     36          1           0        5.067688   -0.937352   -1.662177
     37          1           0        5.815383   -0.955464   -0.068997
     38          1           0        6.347945    1.495283   -0.285549
     39          1           0        5.596000    1.513497   -1.887781
     40          1           0        7.071126    0.571228   -1.613118
 ---------------------------------------------------------------------

 SCF Done:  E(RHF) =  -470.732614865     A.U. after   11 cycles
 E2 =    -0.1583612822D+01 EUMP2 =    -0.47231622768702D+03

 The electronic state is 1-A.
 Alpha  occ. eigenvalues --  -11.21625 -11.21613 -11.21589 -11.21576 -11.21425
 Alpha  occ. eigenvalues --  -11.21392 -11.21365 -11.21332 -11.21159 -11.21079
 Alpha  occ. eigenvalues --  -11.21062 -11.20927  -1.08471  -1.08401  -1.03608
 Alpha  occ. eigenvalues --   -1.03467  -0.96042  -0.95926  -0.87045  -0.86953
 Alpha  occ. eigenvalues --   -0.79702  -0.79510  -0.78296  -0.78206  -0.65150
 Alpha  occ. eigenvalues --   -0.64998  -0.61102  -0.60836  -0.59405  -0.59282
 Alpha  occ. eigenvalues --   -0.57722  -0.57485  -0.55313  -0.55198  -0.52721
 Alpha  occ. eigenvalues --   -0.52641  -0.52443  -0.52366  -0.49995  -0.49888
 Alpha  occ. eigenvalues --   -0.47984  -0.47799  -0.46658  -0.46601  -0.45840
 Alpha  occ. eigenvalues --   -0.45753  -0.45697  -0.45620  -0.43816  -0.43755
 Alpha virt. eigenvalues --    0.20453   0.23121   0.23584   0.24775   0.25931
 Alpha virt. eigenvalues --    0.26446   0.26852   0.27484   0.28299   0.29118
 Alpha virt. eigenvalues --    0.30353   0.31098   0.31342   0.31849   0.31985

 Mulliken charges:
               1
     1  C   -0.298094
     2  C   -0.299747
     3  C   -0.475686
     4  H    0.149678
     5  H    0.149335
     6  H    0.151899
     7  H    0.152128
     8  H    0.155113
     9  H    0.155136
    10  H    0.160252
    11  C   -0.301071
    12  C   -0.300237
    13  C   -0.483861
    14  H    0.149576
    15  H    0.151845
    16  H    0.151952
    17  H    0.151099
    18  H    0.167021
    19  H    0.154148
    20  H    0.159456
    21  C   -0.297523
    22  C   -0.304741
    23  C   -0.480379
    24  H    0.149431
    25  H    0.149520
    26  H    0.156412
    27  H    0.152900
    28  H    0.156172
    29  H    0.155400
    30  H    0.162528
    31  C   -0.298331
    32  C   -0.299690
    33  C   -0.475714
    34  H    0.149532
    35  H    0.149939
    36  H    0.151881
    37  H    0.151971
    38  H    0.155266
    39  H    0.155193
    40  H    0.160288
 Sum of Mulliken charges =  -0.00000

 Dipole moment (field-independent basis, Debye):
    X=              0.0359    Y=             -0.0158    Z=              0.0111  Tot=              0.0407
 Quadrupole moment (field-independent basis, Debye-Ang):
   XX=            -85.4235   YY=            -85.0156   ZZ=            -84.4131
   XY=             -1.2502   XZ=             -0.0715   YZ=              0.2364

 Normal termination of Gaussian 16 at Wed May  5 21:34:15 2021.
