 Gaussian 16, Revision A.03,
 Gaussian 16:  EM64L-G16RevA.03 25-Dec-2016

 -------------
 #p 6-31g* mp2
 -------------

 ------------------------------------------------------
 Input file generated by CHIRIPA (05-May-2021 14:51:08)
 ------------------------------------------------------
 Symbolic Z-matrix:
 Charge =  0 Multiplicity = 1

                         Standard orientation:
 ---------------------------------------------------------------------
 Center     Atomic      Atomic             Coordinates (Angstroms)
 Number     Number       Type             X           Y           Z
 ---------------------------------------------------------------------
      1          6           0       -3.998088   -0.670864   -0.306930
      2          6           0       -2.891392   -1.654449    0.074870
      3          6           0       -3.195425   -3.086611   -0.365890
      4          1           0       -4.944577   -1.001218    0.142479
      5          1           0       -4.143037   -0.697420   -1.395819
      6          1           0       -2.747623   -1.625032    1.162565
      7          1           0       -1.947389   -1.321609   -0.375342
      8          1           0       -3.318215   -3.137379   -1.452603
      9          1           0       -4.122996   -3.442526    0.094043
     10          1           0       -2.391298   -3.773018   -0.082896
     11          6           0       -3.708655    0.764996    0.126962
     12          6           0       -4.815351    1.748581   -0.254838
     13          6           0       -4.511318    3.180743    0.185922
     14          1           0       -3.563706    0.791552    1.215851
     15          1           0       -2.762166    1.095350   -0.322447
     16          1           0       -5.759355    1.415742    0.195374
     17          1           0       -4.959120    1.719164   -1.342533
     18          1           0       -3.583747    3.536658   -0.274010
     19          1           0       -4.388528    3.231511    1.272635
     20          1           0       -5.315445    3.867150   -0.097072
     21          6           0        4.536427    0.170814    0.353414
     22          6           0        5.499975    0.609636   -0.749761
     23          6           0        6.862242    1.042623   -0.207042
     24          1           0        4.403383    0.996957    1.065264
     25          1           0        4.987857   -0.657571    0.916782
     26          1           0        5.046273    1.436031   -1.311759
     27          1           0        5.630592   -0.217583   -1.459172
     28          1           0        7.339232    0.220765    0.336677
     29          1           0        6.751593    1.883774    0.484928
     30          1           0        7.535343    1.352281   -1.012590
     31          6           0        3.170316   -0.264946   -0.173446
     32          6           0        2.206768   -0.703768    0.929729
     33          6           0        0.844501   -1.136755    0.387009
     34          1           0        2.718886    0.563439   -0.736814
     35          1           0        3.303360   -1.091090   -0.885297
     36          1           0        2.076152    0.123451    1.639139
     37          1           0        2.660471   -1.530163    1.491726
     38          1           0        0.955150   -1.977907   -0.304960
     39          1           0        0.367511   -0.314896   -0.156709
     40          1           0        0.171400   -1.446412    1.192557
 ---------------------------------------------------------------------

 SCF Done:  E(RHF) =  -470.732771564     A.U. after   11 cycles
 E2 =    -0.1582906977D+01 EUMP2 =    -0.47231567854122D+03

 The electronic state is 1-A.
 Alpha  occ. eigenvalues --  -11.21605 -11.21584 -11.21577 -11.21428 -11.21406
 Alpha  occ. eigenvalues --  -11.21355 -11.21347 -11.21280 -11.21074 -11.21060
 Alpha  occ. eigenvalues --  -11.21050 -11.20983  -1.08434  -1.08365  -1.03550
 Alpha  occ. eigenvalues --   -1.03447  -0.95998  -0.95910  -0.87038  -0.86913
 Alpha  occ. eigenvalues --   -0.79726  -0.79422  -0.78275  -0.78136  -0.65070
 Alpha  occ. eigenvalues --   -0.64996  -0.60947  -0.60852  -0.59466  -0.59187
 Alpha  occ. eigenvalues --   -0.57603  -0.57516  -0.55275  -0.55216  -0.52748
 Alpha  occ. eigenvalues --   -0.52577  -0.52418  -0.52332  -0.49957  -0.49847
 Alpha  occ. eigenvalues --   -0.47954  -0.47818  -0.46675  -0.46518  -0.45871
 Alpha  occ. eigenvalues --   -0.45732  -0.45686  -0.45513  -0.43785  -0.43655
 Alpha virt. eigenvalues --    0.22058   0.23015   0.23755   0.24655   0.25458
 Alpha virt. eigenvalues --    0.26649   0.26696   0.27571   0.27826   0.29243
 Alpha virt. eigenvalues --    0.30365   0.31074   0.31425   0.31956   0.32298

 Mulliken charges:
               1
     1  C   -0.297876
     2  C   -0.306664
     3  C   -0.475734
     4  H    0.149015
     5  H    0.148984
     6  H    0.150036
     7  H    0.164615
     8  H    0.154626
     9  H    0.154482
    10  H    0.160087
    11  C   -0.298263
    12  C   -0.299562
    13  C   -0.475625
    14  H    0.149342
    15  H    0.149023
    16  H    0.152004
    17  H    0.151849
    18  H    0.154878
    19  H    0.155106
    20  H    0.160184
    21  C   -0.298247
    22  C   -0.299610
    23  C   -0.475704
    24  H    0.149680
    25  H    0.149541
    26  H    0.151858
    27  H    0.151905
    28  H    0.155192
    29  H    0.155198
    30  H    0.160245
    31  C   -0.298414
    32  C   -0.300813
    33  C   -0.477234
    34  H    0.149260
    35  H    0.149515
    36  H    0.152050
    37  H    0.151742
    38  H    0.154725
    39  H    0.154160
    40  H    0.164445
 Sum of Mulliken charges =  -0.00000

 Dipole moment (field-independent basis, Debye):
    X=              0.0276    Y=             -0.0052    Z=              0.0032  Tot=              0.0282
 Quadrupole moment (field-independent basis, Debye-Ang):
   XX=            -85.7995   YY=            -85.1927   ZZ=            -84.1032
   XY=             -0.7361   XZ=             -0.7119   YZ=             -0.4338

 Normal termination of Gaussian 16 at Thu May  6 03:39:53 2021.
