 Gaussian 16, Revision A.03,
 Gaussian 16:  EM64L-G16RevA.03 25-Dec-2016

 -------------
 #p 6-31g* mp2
 -------------

 ------------------------------------------------------
 Input file generated by CHIRIPA (05-May-2021 14:53:15)
 ------------------------------------------------------
 Symbolic Z-matrix:
 Charge =  0 Multiplicity = 1

                         Standard orientation:
 ---------------------------------------------------------------------
 Center     Atomic      Atomic             Coordinates (Angstroms)
 Number     Number       Type             X           Y           Z
 ---------------------------------------------------------------------
      1          6           0        3.888281   -0.076969    0.299077
      2          6           0        2.942069    1.060885   -0.085576
      3          6           0        1.555672    0.914658    0.542369
      4          1           0        3.444382   -1.033977   -0.007571
      5          1           0        3.982224   -0.112340    1.393298
      6          1           0        2.851024    1.094978   -1.178811
      7          1           0        3.388361    2.015311    0.221852
      8          1           0        1.626847    0.902958    1.634797
      9          1           0        1.086457   -0.022604    0.226175
     10          1           0        0.895490    1.738661    0.254208
     11          6           0        5.278188    0.055154   -0.320947
     12          6           0        6.224400   -1.082700    0.063706
     13          6           0        7.610797   -0.936472   -0.564239
     14          1           0        5.184245    0.090526   -1.415167
     15          1           0        5.722087    1.012163   -0.014299
     16          1           0        5.778109   -2.037125   -0.243722
     17          1           0        6.315445   -1.116793    1.156942
     18          1           0        8.080013    0.000789   -0.248045
     19          1           0        7.539623   -0.924773   -1.656667
     20          1           0        8.270979   -1.760476   -0.276078
     21          6           0       -2.181792    2.095290    0.242023
     22          6           0       -2.021519    1.040308    1.146371
     23          6           0       -2.791172   -0.120656    1.026607
     24          6           0       -3.715889   -0.193220   -0.014029
     25          6           0       -3.898784    0.840840   -0.930850
     26          6           0       -3.118263    1.992370   -0.791879
     27          1           0       -1.579686    2.993490    0.342519
     28          1           0       -1.295011    1.117464    1.950287
     29          1           0       -2.687572   -0.952428    1.712785
     30          1           0       -4.631102    0.734711   -1.721966
     31          1           0       -3.244881    2.810106   -1.495669
     32          7           0       -4.536439   -1.417287   -0.150984
     33          8           0       -5.344277   -1.456550   -1.076454
     34          8           0       -4.356211   -2.314270    0.669731
 ---------------------------------------------------------------------

 SCF Done:  E(RHF) =  -669.535080027     A.U. after   15 cycles
 E2 =    -0.2091803727D+01 EUMP2 =    -0.67162688375386D+03

 The electronic state is 1-A.
 Alpha  occ. eigenvalues --  -20.60737 -20.60732 -15.85789 -11.31150 -11.27707
 Alpha  occ. eigenvalues --  -11.27685 -11.27440 -11.26738 -11.26686 -11.22203
 Alpha  occ. eigenvalues --  -11.21890 -11.21883 -11.21847 -11.21733 -11.21310
 Alpha  occ. eigenvalues --   -1.59813  -1.39366  -1.19316  -1.08875  -1.08713
 Alpha  occ. eigenvalues --   -1.04716  -1.04003  -0.96476  -0.95551  -0.87514
 Alpha  occ. eigenvalues --   -0.86100  -0.82381  -0.80083  -0.78662  -0.77423
 Alpha  occ. eigenvalues --   -0.72008  -0.71135  -0.70437  -0.65497  -0.64970
 Alpha  occ. eigenvalues --   -0.64719  -0.62066  -0.61395  -0.59862  -0.58074
 Alpha  occ. eigenvalues --   -0.55754  -0.55228  -0.53449  -0.52961  -0.52836
 Alpha  occ. eigenvalues --   -0.52676  -0.50401  -0.48767  -0.48763  -0.48389
 Alpha  occ. eigenvalues --   -0.47092  -0.46211  -0.46116  -0.44773  -0.44265
 Alpha  occ. eigenvalues --   -0.37258  -0.36288
 Alpha virt. eigenvalues --    0.05069   0.11293   0.16480   0.20712   0.22529
 Alpha virt. eigenvalues --    0.23962   0.25899   0.26435   0.26703   0.27572
 Alpha virt. eigenvalues --    0.28673   0.29684   0.31085   0.31681   0.32337

 Mulliken charges:
               1
     1  C   -0.299172
     2  C   -0.300682
     3  C   -0.477239
     4  H    0.151803
     5  H    0.149368
     6  H    0.154074
     7  H    0.151371
     8  H    0.150243
     9  H    0.161488
    10  H    0.153778
    11  C   -0.298606
    12  C   -0.300055
    13  C   -0.475951
    14  H    0.150364
    15  H    0.149521
    16  H    0.153169
    17  H    0.152086
    18  H    0.155108
    19  H    0.155698
    20  H    0.161382
    21  C   -0.172056
    22  C   -0.212649
    23  C   -0.173829
    24  C    0.158736
    25  C   -0.171414
    26  C   -0.219082
    27  H    0.224897
    28  H    0.226782
    29  H    0.275411
    30  H    0.275331
    31  H    0.223172
    32  N    0.488052
    33  O   -0.460591
    34  O   -0.460508
 Sum of Mulliken charges =  -0.00000

 Dipole moment (field-independent basis, Debye):
    X=              3.0014    Y=              4.2688    Z=              0.4546  Tot=              5.2381
 Quadrupole moment (field-independent basis, Debye-Ang):
   XX=           -116.5898   YY=            -96.0579   ZZ=            -91.3880
   XY=            -17.6786   XZ=              0.7930   YZ=             -1.5859

 Normal termination of Gaussian 16 at Wed May  5 17:09:15 2021.
