 Gaussian 16, Revision A.03,
 Gaussian 16:  EM64L-G16RevA.03 25-Dec-2016

 -------------
 #p 6-31g* mp2
 -------------

 ------------------------------------------------------
 Input file generated by CHIRIPA (05-May-2021 14:53:18)
 ------------------------------------------------------
 Symbolic Z-matrix:
 Charge =  0 Multiplicity = 1

                         Standard orientation:
 ---------------------------------------------------------------------
 Center     Atomic      Atomic             Coordinates (Angstroms)
 Number     Number       Type             X           Y           Z
 ---------------------------------------------------------------------
      1          6           0        3.570079    0.823560   -0.106535
      2          6           0        3.263868    1.708589    1.102160
      3          6           0        2.016964    2.570731    0.902823
      4          1           0        3.699234    1.457927   -0.994140
      5          1           0        2.704540    0.177171   -0.307576
      6          1           0        4.130261    2.352142    1.301709
      7          1           0        3.135617    1.072056    1.987029
      8          1           0        1.138201    1.942130    0.726086
      9          1           0        2.138496    3.229489    0.036873
     10          1           0        1.816572    3.195443    1.778859
     11          6           0        4.813769   -0.044234    0.077579
     12          6           0        5.119980   -0.929263   -1.131116
     13          6           0        6.366884   -1.791405   -0.931779
     14          1           0        5.679308    0.602155    0.278621
     15          1           0        4.684614   -0.678600    0.965185
     16          1           0        5.248231   -0.292730   -2.015984
     17          1           0        4.253587   -1.572816   -1.330665
     18          1           0        6.245352   -2.450163   -0.065829
     19          1           0        7.245647   -1.162804   -0.755042
     20          1           0        6.567276   -2.416116   -1.807814
     21          6           0       -1.264422   -1.180585    1.258739
     22          6           0       -2.549404   -1.598118    1.620686
     23          6           0       -3.670609   -1.119197    0.936520
     24          6           0       -3.469310   -0.219721   -0.109286
     25          6           0       -2.201824    0.215124   -0.493575
     26          6           0       -1.095030   -0.276890    0.204623
     27          1           0       -0.399041   -1.557708    1.795666
     28          1           0       -2.683964   -2.299858    2.438917
     29          1           0       -4.676672   -1.425808    1.195839
     30          1           0       -2.099391    0.915527   -1.313551
     31          1           0       -0.098277    0.049114   -0.078659
     32          7           0       -4.648651    0.294223   -0.841009
     33          8           0       -4.444540    1.085924   -1.758715
     34          8           0       -5.754798   -0.104382   -0.482972
 ---------------------------------------------------------------------

 SCF Done:  E(RHF) =  -669.535351137     A.U. after   15 cycles
 E2 =    -0.2091434619D+01 EUMP2 =    -0.67162678575543D+03

 The electronic state is 1-A.
 Alpha  occ. eigenvalues --  -20.60755 -20.60750 -15.85809 -11.31185 -11.27766
 Alpha  occ. eigenvalues --  -11.27759 -11.27515 -11.26777 -11.26756 -11.22456
 Alpha  occ. eigenvalues --  -11.22320 -11.22239 -11.22115 -11.21926 -11.21601
 Alpha  occ. eigenvalues --   -1.59831  -1.39384  -1.19365  -1.09232  -1.08758
 Alpha  occ. eigenvalues --   -1.04772  -1.04274  -0.96727  -0.95589  -0.87739
 Alpha  occ. eigenvalues --   -0.86171  -0.82423  -0.80339  -0.79045  -0.77466
 Alpha  occ. eigenvalues --   -0.72028  -0.71154  -0.70474  -0.65908  -0.65017
 Alpha  occ. eigenvalues --   -0.64779  -0.62188  -0.61608  -0.60087  -0.58331
 Alpha  occ. eigenvalues --   -0.56041  -0.55271  -0.53384  -0.53214  -0.53063
 Alpha  occ. eigenvalues --   -0.52845  -0.50668  -0.48806  -0.48781  -0.48625
 Alpha  occ. eigenvalues --   -0.47369  -0.46568  -0.46503  -0.44787  -0.44538
 Alpha  occ. eigenvalues --   -0.37344  -0.36363
 Alpha virt. eigenvalues --    0.05070   0.11187   0.16497   0.18974   0.22638
 Alpha virt. eigenvalues --    0.23688   0.25020   0.26388   0.27155   0.28308
 Alpha virt. eigenvalues --    0.28853   0.30171   0.31107   0.31369   0.31927

 Mulliken charges:
               1
     1  C   -0.300361
     2  C   -0.300684
     3  C   -0.479157
     4  H    0.153643
     5  H    0.141036
     6  H    0.156560
     7  H    0.150038
     8  H    0.148575
     9  H    0.158924
    10  H    0.165381
    11  C   -0.298324
    12  C   -0.300101
    13  C   -0.476076
    14  H    0.152776
    15  H    0.148603
    16  H    0.153935
    17  H    0.150513
    18  H    0.154977
    19  H    0.156667
    20  H    0.162300
    21  C   -0.172329
    22  C   -0.218588
    23  C   -0.170692
    24  C    0.158742
    25  C   -0.172404
    26  C   -0.224348
    27  H    0.225308
    28  H    0.223411
    29  H    0.275703
    30  H    0.276438
    31  H    0.232186
    32  N    0.488082
    33  O   -0.460205
    34  O   -0.460530
 Sum of Mulliken charges =  -0.00000

 Dipole moment (field-independent basis, Debye):
    X=              4.3282    Y=             -1.7538    Z=              2.5786  Tot=              5.3346
 Quadrupole moment (field-independent basis, Debye-Ang):
   XX=           -121.6830   YY=            -92.6529   ZZ=            -93.9052
   XY=              8.5538   XZ=            -11.7825   YZ=             -2.5332

 Normal termination of Gaussian 16 at Thu May  6 09:10:29 2021.
