 Gaussian 16, Revision A.03,
 Gaussian 16:  EM64L-G16RevA.03 25-Dec-2016

 -------------
 #p 6-31g* mp2
 -------------

 ------------------------------------------------------
 Input file generated by CHIRIPA (05-May-2021 14:57:22)
 ------------------------------------------------------
 Symbolic Z-matrix:
 Charge =  0 Multiplicity = 1

                         Standard orientation:
 ---------------------------------------------------------------------
 Center     Atomic      Atomic             Coordinates (Angstroms)
 Number     Number       Type             X           Y           Z
 ---------------------------------------------------------------------
      1          6           0       -1.767249    2.437553    1.249203
      2          6           0       -1.845016    2.403528   -0.146976
      3          6           0       -2.186356    1.221239   -0.810471
      4          6           0       -2.444684    0.086502   -0.043054
      5          6           0       -2.375434    0.088631    1.349243
      6          6           0       -2.032238    1.282033    1.991548
      7          1           0       -1.501367    3.360300    1.756392
      8          1           0       -1.639748    3.299390   -0.726061
      9          1           0       -2.253825    1.166863   -1.890244
     10          1           0       -2.585599   -0.820525    1.899410
     11          1           0       -1.972604    1.305519    3.075954
     12          7           0       -2.807028   -1.171017   -0.734250
     13          8           0       -3.029934   -2.157115   -0.035280
     14          8           0       -2.861265   -1.146751   -1.961893
     15          6           0        3.161551    2.010454   -0.744251
     16          6           0        1.821420    1.646582   -0.912075
     17          6           0        1.379980    0.372582   -0.542476
     18          6           0        2.309888   -0.516519   -0.005763
     19          6           0        3.651623   -0.183687    0.173849
     20          6           0        4.070774    1.095771   -0.202779
     21          1           0        3.495815    3.002248   -1.034095
     22          1           0        1.113085    2.354882   -1.332333
     23          1           0        0.348255    0.064677   -0.661453
     24          1           0        4.334310   -0.911411    0.595482
     25          1           0        5.112141    1.375611   -0.071297
     26          7           0        1.854354   -1.868135    0.389236
     27          8           0        2.693373   -2.633152    0.859802
     28          8           0        0.666913   -2.136921    0.220791
 ---------------------------------------------------------------------

 SCF Done:  E(RHF) =  -868.335654811     A.U. after   16 cycles
 E2 =    -0.2605077078D+01 EUMP2 =    -0.87094073188869D+03

 The electronic state is 1-A.
 Alpha  occ. eigenvalues --  -20.60685 -20.60662 -20.60578 -20.60492 -15.85720
 Alpha  occ. eigenvalues --  -15.85610 -11.31404 -11.31141 -11.28114 -11.27938
 Alpha  occ. eigenvalues --  -11.27867 -11.27764 -11.27644 -11.27565 -11.27252
 Alpha  occ. eigenvalues --  -11.27052 -11.26805 -11.26795  -1.59743  -1.59588
 Alpha  occ. eigenvalues --   -1.39297  -1.39135  -1.19682  -1.19345  -1.08951
 Alpha  occ. eigenvalues --   -1.08749  -1.05149  -1.04746  -0.95711  -0.95557
 Alpha  occ. eigenvalues --   -0.86495  -0.86163  -0.82557  -0.82379  -0.77536
 Alpha  occ. eigenvalues --   -0.77414  -0.71978  -0.71828  -0.71071  -0.70886
 Alpha  occ. eigenvalues --   -0.70708  -0.70476  -0.65281  -0.65129  -0.65011
 Alpha  occ. eigenvalues --   -0.64785  -0.62454  -0.62172  -0.55569  -0.55368
 Alpha  occ. eigenvalues --   -0.53567  -0.53196  -0.53044  -0.52645  -0.48707
 Alpha  occ. eigenvalues --   -0.48695  -0.48617  -0.48543  -0.44693  -0.44428
 Alpha  occ. eigenvalues --   -0.37673  -0.37373  -0.36786  -0.36272
 Alpha virt. eigenvalues --    0.05025   0.05104   0.10793   0.11300   0.16339
 Alpha virt. eigenvalues --    0.16573   0.20321   0.21845   0.25767   0.28043
 Alpha virt. eigenvalues --    0.28219   0.28480   0.29789   0.31663   0.32245

 Mulliken charges:
               1
     1  C   -0.170573
     2  C   -0.218311
     3  C   -0.193733
     4  C    0.160971
     5  C   -0.163701
     6  C   -0.218026
     7  H    0.225731
     8  H    0.219228
     9  H    0.275860
    10  H    0.283615
    11  H    0.226624
    12  N    0.493102
    13  O   -0.449043
    14  O   -0.464450
    15  C   -0.171571
    16  C   -0.222713
    17  C   -0.169969
    18  C    0.155421
    19  C   -0.170004
    20  C   -0.219679
    21  H    0.223239
    22  H    0.215058
    23  H    0.286297
    24  H    0.275720
    25  H    0.222758
    26  N    0.487791
    27  O   -0.460346
    28  O   -0.459294
 Sum of Mulliken charges =  -0.00000

 Dipole moment (field-independent basis, Debye):
    X=              2.6157    Y=              8.8027    Z=              1.3159  Tot=              9.2769
 Quadrupole moment (field-independent basis, Debye-Ang):
   XX=            -99.9564   YY=           -108.9258   ZZ=           -101.4797
   XY=             -1.1228   XZ=             -8.6019   YZ=             -1.8336

 Normal termination of Gaussian 16 at Fri May  7 00:12:16 2021.
