 Gaussian 16, Revision A.03,
 Gaussian 16:  EM64L-G16RevA.03 25-Dec-2016

 -------------
 #p 6-31g* mp2
 -------------

 ------------------------------------------------------
 Input file generated by CHIRIPA (05-May-2021 14:57:24)
 ------------------------------------------------------
 Symbolic Z-matrix:
 Charge =  0 Multiplicity = 1

                         Standard orientation:
 ---------------------------------------------------------------------
 Center     Atomic      Atomic             Coordinates (Angstroms)
 Number     Number       Type             X           Y           Z
 ---------------------------------------------------------------------
      1          6           0        1.657581   -0.026744    1.084248
      2          6           0        2.013253   -1.045387    0.194088
      3          6           0        3.310838   -1.116813   -0.321391
      4          6           0        4.231630   -0.148742    0.076440
      5          6           0        3.907724    0.878323    0.961604
      6          6           0        2.604283    0.930173    1.464494
      7          1           0        0.647311    0.021138    1.479795
      8          1           0        1.280106   -1.789898   -0.102972
      9          1           0        3.613064   -1.894678   -1.012046
     10          1           0        4.660421    1.606189    1.239228
     11          1           0        2.330880    1.722389    2.155645
     12          7           0        5.608425   -0.213995   -0.462611
     13          8           0        6.401188    0.650949   -0.096502
     14          8           0        5.868725   -1.128849   -1.241022
     15          6           0       -5.756841   -1.613936    0.310901
     16          6           0       -4.403801   -1.967308    0.280365
     17          6           0       -3.424385   -1.004911    0.017525
     18          6           0       -3.835328    0.307357   -0.211318
     19          6           0       -5.175431    0.690571   -0.187640
     20          6           0       -6.137667   -0.288461    0.077213
     21          1           0       -6.511002   -2.368010    0.515862
     22          1           0       -4.105132   -2.995917    0.461481
     23          1           0       -2.369879   -1.251001   -0.012066
     24          1           0       -5.442443    1.724065   -0.372069
     25          1           0       -7.187719   -0.011148    0.100304
     26          7           0       -2.807559    1.335009   -0.490640
     27          8           0       -3.195533    2.484259   -0.688972
     28          8           0       -1.633479    0.971773   -0.505951
 ---------------------------------------------------------------------

 SCF Done:  E(RHF) =  -868.338554760     A.U. after   16 cycles
 E2 =    -0.2598909390D+01 EUMP2 =    -0.87093746415056D+03

 The electronic state is 1-A.
 Alpha  occ. eigenvalues --  -20.61716 -20.61656 -20.60198 -20.60192 -15.86727
 Alpha  occ. eigenvalues --  -15.85250 -11.31995 -11.30468 -11.28612 -11.28499
 Alpha  occ. eigenvalues --  -11.28225 -11.27545 -11.27486 -11.27078 -11.27040
 Alpha  occ. eigenvalues --  -11.26682 -11.26045 -11.25961  -1.60752  -1.59277
 Alpha  occ. eigenvalues --   -1.40314  -1.38835  -1.20147  -1.18632  -1.09550
 Alpha  occ. eigenvalues --   -1.08029  -1.05537  -1.04035  -0.96408  -0.94891
 Alpha  occ. eigenvalues --   -0.86937  -0.85432  -0.83248  -0.81746  -0.78321
 Alpha  occ. eigenvalues --   -0.76834  -0.72952  -0.72070  -0.71473  -0.71248
 Alpha  occ. eigenvalues --   -0.70599  -0.69685  -0.65799  -0.65532  -0.64287
 Alpha  occ. eigenvalues --   -0.64054  -0.62897  -0.61410  -0.56016  -0.54464
 Alpha  occ. eigenvalues --   -0.53863  -0.53627  -0.52336  -0.52141  -0.49716
 Alpha  occ. eigenvalues --   -0.49680  -0.48234  -0.48218  -0.45736  -0.44275
 Alpha  occ. eigenvalues --   -0.38101  -0.37135  -0.36531  -0.35642
 Alpha virt. eigenvalues --    0.04193   0.05735   0.10519   0.12026   0.15707
 Alpha virt. eigenvalues --    0.17277   0.19941   0.21924   0.25848   0.27044
 Alpha virt. eigenvalues --    0.28297   0.28927   0.30760   0.31672   0.32105

 Mulliken charges:
               1
     1  C   -0.159832
     2  C   -0.216406
     3  C   -0.171348
     4  C    0.157437
     5  C   -0.170911
     6  C   -0.218838
     7  H    0.229932
     8  H    0.215557
     9  H    0.272471
    10  H    0.273779
    11  H    0.223314
    12  N    0.488333
    13  O   -0.461950
    14  O   -0.462916
    15  C   -0.170191
    16  C   -0.217742
    17  C   -0.171148
    18  C    0.158968
    19  C   -0.170395
    20  C   -0.218039
    21  H    0.228325
    22  H    0.224397
    23  H    0.267280
    24  H    0.277520
    25  H    0.226266
    26  N    0.489532
    27  O   -0.455081
    28  O   -0.468313
 Sum of Mulliken charges =  -0.00000

 Dipole moment (field-independent basis, Debye):
    X=             -8.9475    Y=             -3.2670    Z=              2.9078  Tot=              9.9593
 Quadrupole moment (field-independent basis, Debye-Ang):
   XX=           -115.6411   YY=           -101.8618   ZZ=           -105.0364
   XY=             13.1619   XZ=              5.7943   YZ=              2.9017

 Normal termination of Gaussian 16 at Thu May  6 06:38:32 2021.
