 Gaussian 16, Revision A.03,
 Gaussian 16:  EM64L-G16RevA.03 25-Dec-2016

 -------------
 #p 6-31g* mp2
 -------------

 ------------------------------------------------------
 Input file generated by CHIRIPA (05-May-2021 14:53:12)
 ------------------------------------------------------
 Symbolic Z-matrix:
 Charge =  0 Multiplicity = 1

                         Standard orientation:
 ---------------------------------------------------------------------
 Center     Atomic      Atomic             Coordinates (Angstroms)
 Number     Number       Type             X           Y           Z
 ---------------------------------------------------------------------
      1          6           0        4.729894    0.271662   -0.181732
      2          6           0        5.865937   -0.054747    0.788241
      3          6           0        7.120254    0.781333    0.532404
      4          1           0        5.077133    0.108845   -1.211228
      5          1           0        4.482958    1.339270   -0.100313
      6          1           0        6.109722   -1.121717    0.706012
      7          1           0        5.515893    0.108682    1.815556
      8          1           0        6.899127    1.848731    0.634215
      9          1           0        7.496330    0.611342   -0.481633
     10          1           0        7.919696    0.531770    1.237012
     11          6           0        3.469127   -0.556044    0.061366
     12          6           0        2.333084   -0.229635   -0.908607
     13          6           0        1.078767   -1.065716   -0.652770
     14          1           0        3.716063   -1.623653   -0.020053
     15          1           0        3.121888   -0.393228    1.090862
     16          1           0        2.683128   -0.393064   -1.935922
     17          1           0        2.089299    0.837334   -0.826378
     18          1           0        0.702691   -0.895725    0.361267
     19          1           0        1.299894   -2.133114   -0.754581
     20          1           0        0.279325   -0.816153   -1.357377
     21          6           0       -3.143847   -2.406850    0.196829
     22          6           0       -3.839841   -1.664597    1.156606
     23          6           0       -3.879209   -0.269012    1.083520
     24          6           0       -3.208437    0.354512    0.032535
     25          6           0       -2.506431   -0.357238   -0.939006
     26          6           0       -2.480532   -1.751957   -0.846074
     27          1           0       -3.118495   -3.490638    0.261313
     28          1           0       -4.355895   -2.170518    1.967641
     29          1           0       -4.410464    0.330125    1.813055
     30          1           0       -2.001647    0.175316   -1.735873
     31          1           0       -1.939221   -2.325832   -1.592864
     32          7           0       -3.242984    1.831497   -0.055342
     33          8           0       -2.643889    2.356992   -0.991066
     34          8           0       -3.868502    2.435695    0.813166
 ---------------------------------------------------------------------

 SCF Done:  E(RHF) =  -669.534066420     A.U. after   15 cycles
 E2 =    -0.2092406035D+01 EUMP2 =    -0.67162647245484D+03

 The electronic state is 1-A.
 Alpha  occ. eigenvalues --  -20.60753 -20.60747 -15.85806 -11.31151 -11.27715
 Alpha  occ. eigenvalues --  -11.27710 -11.27449 -11.26730 -11.26702 -11.21774
 Alpha  occ. eigenvalues --  -11.21656 -11.21533 -11.21466 -11.21430 -11.21091
 Alpha  occ. eigenvalues --   -1.59828  -1.39382  -1.19328  -1.08722  -1.08553
 Alpha  occ. eigenvalues --   -1.04746  -1.03682  -0.96164  -0.95560  -0.87191
 Alpha  occ. eigenvalues --   -0.86126  -0.82403  -0.79754  -0.78353  -0.77447
 Alpha  occ. eigenvalues --   -0.72025  -0.71152  -0.70446  -0.65180  -0.64989
 Alpha  occ. eigenvalues --   -0.64736  -0.62152  -0.61077  -0.59526  -0.57758
 Alpha  occ. eigenvalues --   -0.55448  -0.55230  -0.53377  -0.52846  -0.52562
 Alpha  occ. eigenvalues --   -0.52542  -0.50077  -0.48781  -0.48780  -0.48068
 Alpha  occ. eigenvalues --   -0.46761  -0.45901  -0.45810  -0.44792  -0.43960
 Alpha  occ. eigenvalues --   -0.37308  -0.36224
 Alpha virt. eigenvalues --    0.05082   0.11279   0.16520   0.20794   0.22826
 Alpha virt. eigenvalues --    0.24095   0.26351   0.26545   0.27281   0.28059
 Alpha virt. eigenvalues --    0.28691   0.30631   0.31293   0.31526   0.32151

 Mulliken charges:
               1
     1  C   -0.298720
     2  C   -0.299729
     3  C   -0.475860
     4  H    0.149543
     5  H    0.152008
     6  H    0.150993
     7  H    0.152316
     8  H    0.156373
     9  H    0.155108
    10  H    0.160253
    11  C   -0.298894
    12  C   -0.301140
    13  C   -0.473419
    14  H    0.147802
    15  H    0.150510
    16  H    0.151131
    17  H    0.158137
    18  H    0.159822
    19  H    0.150315
    20  H    0.151452
    21  C   -0.172262
    22  C   -0.218711
    23  C   -0.171845
    24  C    0.156735
    25  C   -0.168628
    26  C   -0.212948
    27  H    0.225456
    28  H    0.223163
    29  H    0.275285
    30  H    0.274832
    31  H    0.224121
    32  N    0.488157
    33  O   -0.460781
    34  O   -0.460575
 Sum of Mulliken charges =  -0.00000

 Dipole moment (field-independent basis, Debye):
    X=              0.1688    Y=             -5.1734    Z=              0.3484  Tot=              5.1879
 Quadrupole moment (field-independent basis, Debye-Ang):
   XX=            -95.3818   YY=            -98.9208   ZZ=            -91.2718
   XY=             16.2791   XZ=             -3.8248   YZ=              0.5580

 Normal termination of Gaussian 16 at Wed May  5 21:44:24 2021.
