 Gaussian 16, Revision A.03,
 Gaussian 16:  EM64L-G16RevA.03 25-Dec-2016

 -------------
 #p 6-31g* mp2
 -------------

 ------------------------------------------------------
 Input file generated by CHIRIPA (05-May-2021 14:55:23)
 ------------------------------------------------------
 Symbolic Z-matrix:
 Charge =  0 Multiplicity = 1

                         Standard orientation:
 ---------------------------------------------------------------------
 Center     Atomic      Atomic             Coordinates (Angstroms)
 Number     Number       Type             X           Y           Z
 ---------------------------------------------------------------------
      1          6           0        0.294310    2.618494    0.207854
      2          6           0        0.398852    1.727159    1.280753
      3          6           0        1.321334    0.677279    1.244308
      4          6           0        2.127181    0.547720    0.114213
      5          6           0        2.046732    1.419497   -0.970602
      6          6           0        1.117133    2.462095   -0.912424
      7          1           0       -0.425060    3.431238    0.244606
      8          1           0       -0.238872    1.846192    2.152065
      9          1           0        1.423187   -0.027130    2.060918
     10          1           0        2.696044    1.275241   -1.825588
     11          1           0        1.038136    3.152812   -1.747119
     12          7           0        3.107538   -0.559885    0.064127
     13          8           0        3.806011   -0.652415   -0.942953
     14          8           0        3.158906   -1.314525    1.032898
     15          6           0       -2.998568   -0.424069   -0.456341
     16          6           0       -4.239832   -0.185380    0.404053
     17          6           0       -5.195709    0.838757   -0.208512
     18          1           0       -2.472459    0.529287   -0.602176
     19          1           0       -3.311800   -0.763899   -1.453234
     20          1           0       -3.924302    0.152573    1.399466
     21          1           0       -4.762942   -1.139448    0.548016
     22          1           0       -5.538859    0.504745   -1.193035
     23          1           0       -4.695454    1.804107   -0.336748
     24          1           0       -6.076080    0.994095    0.422898
     25          6           0       -2.033384   -1.445415    0.142823
     26          6           0       -0.792120   -1.684104   -0.717571
     27          6           0        0.163758   -2.708241   -0.105006
     28          1           0       -1.720152   -1.105585    1.139717
     29          1           0       -2.559493   -2.398770    0.288658
     30          1           0       -0.269009   -0.730037   -0.861534
     31          1           0       -1.107649   -2.022057   -1.712983
     32          1           0       -0.336498   -3.673591    0.023231
     33          1           0        0.506908   -2.374229    0.879517
     34          1           0        1.044128   -2.863579   -0.736416
 ---------------------------------------------------------------------

 SCF Done:  E(RHF) =  -669.534326764     A.U. after   15 cycles
 E2 =    -0.2096800374D+01 EUMP2 =    -0.67163112713876D+03

 The electronic state is 1-A.
 Alpha  occ. eigenvalues --  -20.60896 -20.60888 -15.85918 -11.31300 -11.27900
 Alpha  occ. eigenvalues --  -11.27888 -11.27681 -11.26952 -11.26942 -11.21923
 Alpha  occ. eigenvalues --  -11.21564 -11.21466 -11.21420 -11.21294 -11.20527
 Alpha  occ. eigenvalues --   -1.59955  -1.39511  -1.19532  -1.08908  -1.08518
 Alpha  occ. eigenvalues --   -1.04931  -1.03558  -0.96006  -0.95727  -0.87007
 Alpha  occ. eigenvalues --   -0.86318  -0.82564  -0.79643  -0.78327  -0.77592
 Alpha  occ. eigenvalues --   -0.72157  -0.71315  -0.70625  -0.65210  -0.65159
 Alpha  occ. eigenvalues --   -0.64925  -0.62278  -0.61013  -0.59389  -0.57600
 Alpha  occ. eigenvalues --   -0.55452  -0.55294  -0.53259  -0.53013  -0.52645
 Alpha  occ. eigenvalues --   -0.52412  -0.49977  -0.48918  -0.48900  -0.47921
 Alpha  occ. eigenvalues --   -0.46720  -0.45855  -0.45722  -0.44776  -0.43778
 Alpha  occ. eigenvalues --   -0.37453  -0.36513
 Alpha virt. eigenvalues --    0.04868   0.11040   0.16311   0.20695   0.22897
 Alpha virt. eigenvalues --    0.24080   0.25896   0.26752   0.27367   0.28059
 Alpha virt. eigenvalues --    0.28751   0.30398   0.31363   0.31563   0.31893

 Mulliken charges:
               1
     1  C   -0.171735
     2  C   -0.216287
     3  C   -0.172175
     4  C    0.160702
     5  C   -0.172875
     6  C   -0.217076
     7  H    0.226752
     8  H    0.224528
     9  H    0.275670
    10  H    0.276445
    11  H    0.224685
    12  N    0.489719
    13  O   -0.460007
    14  O   -0.457990
    15  C   -0.299235
    16  C   -0.298924
    17  C   -0.474720
    18  H    0.146383
    19  H    0.150459
    20  H    0.147062
    21  H    0.154174
    22  H    0.156956
    23  H    0.150151
    24  H    0.160685
    25  C   -0.294608
    26  C   -0.307386
    27  C   -0.483881
    28  H    0.141708
    29  H    0.150518
    30  H    0.156644
    31  H    0.150759
    32  H    0.154268
    33  H    0.160251
    34  H    0.168380
 Sum of Mulliken charges =  -0.00000

 Dipole moment (field-independent basis, Debye):
    X=             -3.2523    Y=              3.9018    Z=              0.1615  Tot=              5.0820
 Quadrupole moment (field-independent basis, Debye-Ang):
   XX=           -110.2363   YY=            -90.3380   ZZ=            -90.6486
   XY=              7.8586   XZ=             -1.5287   YZ=             -0.4855

 Normal termination of Gaussian 16 at Wed May  5 23:57:54 2021.
