 Gaussian 16, Revision A.03,
 Gaussian 16:  EM64L-G16RevA.03 25-Dec-2016

 -------------
 #p 6-31g* mp2
 -------------

 ------------------------------------------------------
 Input file generated by CHIRIPA (05-May-2021 14:57:23)
 ------------------------------------------------------
 Symbolic Z-matrix:
 Charge =  0 Multiplicity = 1

                         Standard orientation:
 ---------------------------------------------------------------------
 Center     Atomic      Atomic             Coordinates (Angstroms)
 Number     Number       Type             X           Y           Z
 ---------------------------------------------------------------------
      1          6           0       -4.089513   -1.489829    1.137126
      2          6           0       -3.377251   -0.614987    1.964081
      3          6           0       -2.639461    0.438186    1.415408
      4          6           0       -2.635996    0.587819    0.029447
      5          6           0       -3.335387   -0.267207   -0.820889
      6          6           0       -4.066349   -1.313458   -0.250274
      7          1           0       -4.659994   -2.305271    1.571871
      8          1           0       -3.393427   -0.749545    3.041892
      9          1           0       -2.079006    1.130108    2.032296
     10          1           0       -3.300148   -0.107647   -1.891738
     11          1           0       -4.618552   -1.991337   -0.894941
     12          7           0       -1.858545    1.699102   -0.563023
     13          8           0       -1.871629    1.809463   -1.787068
     14          8           0       -1.250816    2.438722    0.207862
     15          6           0        4.472118    1.125323    0.925441
     16          6           0        3.340947    1.662487    0.302201
     17          6           0        2.388062    0.824272   -0.284275
     18          6           0        2.599006   -0.552580   -0.228848
     19          6           0        3.715706   -1.118071    0.384742
     20          6           0        4.655565   -0.260798    0.964652
     21          1           0        5.207283    1.783871    1.378479
     22          1           0        3.195875    2.738581    0.270234
     23          1           0        1.503246    1.213388   -0.773260
     24          1           0        3.832864   -2.194844    0.400665
     25          1           0        5.533093   -0.680769    1.447989
     26          7           0        1.597125   -1.450049   -0.846248
     27          8           0        1.806148   -2.659621   -0.783958
     28          8           0        0.621799   -0.926919   -1.380766
 ---------------------------------------------------------------------

 SCF Done:  E(RHF) =  -868.340432598     A.U. after   16 cycles
 E2 =    -0.2599625052D+01 EUMP2 =    -0.87094005764971D+03

 The electronic state is 1-A.
 Alpha  occ. eigenvalues --  -20.60517 -20.60463 -20.60456 -20.60430 -15.85498
 Alpha  occ. eigenvalues --  -15.85497 -11.30645 -11.30575 -11.27281 -11.27198
 Alpha  occ. eigenvalues --  -11.27080 -11.27055 -11.26967 -11.26888 -11.26266
 Alpha  occ. eigenvalues --  -11.26173 -11.26095 -11.26079  -1.59541  -1.59527
 Alpha  occ. eigenvalues --   -1.39100  -1.39088  -1.18821  -1.18735  -1.08272
 Alpha  occ. eigenvalues --   -1.08197  -1.04171  -1.04122  -0.95130  -0.95079
 Alpha  occ. eigenvalues --   -0.85593  -0.85540  -0.81957  -0.81937  -0.77030
 Alpha  occ. eigenvalues --   -0.76991  -0.71767  -0.71742  -0.70896  -0.70719
 Alpha  occ. eigenvalues --   -0.69926  -0.69895  -0.64473  -0.64420  -0.64178
 Alpha  occ. eigenvalues --   -0.64153  -0.61492  -0.61489  -0.54730  -0.54674
 Alpha  occ. eigenvalues --   -0.52554  -0.52435  -0.52242  -0.52238  -0.48519
 Alpha  occ. eigenvalues --   -0.48489  -0.48485  -0.48447  -0.44564  -0.44547
 Alpha  occ. eigenvalues --   -0.36844  -0.36683  -0.35767  -0.35690
 Alpha virt. eigenvalues --    0.05438   0.05567   0.11862   0.11972   0.16997
 Alpha virt. eigenvalues --    0.17057   0.21921   0.22094   0.27890   0.27975
 Alpha virt. eigenvalues --    0.28693   0.29040   0.31345   0.31653   0.33109

 Mulliken charges:
               1
     1  C   -0.169376
     2  C   -0.218751
     3  C   -0.172239
     4  C    0.164837
     5  C   -0.160595
     6  C   -0.217691
     7  H    0.223997
     8  H    0.220268
     9  H    0.270752
    10  H    0.277545
    11  H    0.223320
    12  N    0.490207
    13  O   -0.455811
    14  O   -0.474334
    15  C   -0.171090
    16  C   -0.220721
    17  C   -0.172811
    18  C    0.155449
    19  C   -0.172060
    20  C   -0.219733
    21  H    0.224038
    22  H    0.229159
    23  H    0.290347
    24  H    0.272482
    25  H    0.220655
    26  N    0.488720
    27  O   -0.463904
    28  O   -0.462663
 Sum of Mulliken charges =  -0.00000

 Dipole moment (field-independent basis, Debye):
    X=              0.6387    Y=             -0.7166    Z=              4.0360  Tot=              4.1486
 Quadrupole moment (field-independent basis, Debye-Ang):
   XX=            -71.6741   YY=           -110.5573   ZZ=           -102.0426
   XY=             14.0181   XZ=              2.0342   YZ=             -0.6836

 Normal termination of Gaussian 16 at Wed May  5 19:23:21 2021.
