 Gaussian 16, Revision A.03,
 Gaussian 16:  EM64L-G16RevA.03 25-Dec-2016

 -------------
 #p 6-31g* mp2
 -------------

 ------------------------------------------------------
 Input file generated by CHIRIPA (05-May-2021 14:57:26)
 ------------------------------------------------------
 Symbolic Z-matrix:
 Charge =  0 Multiplicity = 1

                         Standard orientation:
 ---------------------------------------------------------------------
 Center     Atomic      Atomic             Coordinates (Angstroms)
 Number     Number       Type             X           Y           Z
 ---------------------------------------------------------------------
      1          6           0       -3.290362    1.939435   -1.086704
      2          6           0       -3.897675    0.682819   -1.179485
      3          6           0       -3.454460   -0.380220   -0.386985
      4          6           0       -2.396781   -0.150314    0.491508
      5          6           0       -1.771199    1.090103    0.606846
      6          6           0       -2.230930    2.138715   -0.195406
      7          1           0       -3.641077    2.759626   -1.706125
      8          1           0       -4.720642    0.525156   -1.870798
      9          1           0       -3.906532   -1.363268   -0.438608
     10          1           0       -0.952911    1.216709    1.305268
     11          1           0       -1.757387    3.113548   -0.121233
     12          7           0       -1.918827   -1.268069    1.335654
     13          8           0       -0.985250   -1.039720    2.101766
     14          8           0       -2.486834   -2.351349    1.215201
     15          6           0        1.498525   -2.012085   -1.576368
     16          6           0        2.752770   -2.116385   -0.966031
     17          6           0        3.303869   -1.026778   -0.285154
     18          6           0        2.570010    0.157337   -0.234052
     19          6           0        1.318027    0.292414   -0.832035
     20          6           0        0.786412   -0.810138   -1.507544
     21          1           0        1.077986   -2.863547   -2.103205
     22          1           0        3.308060   -3.048594   -1.017865
     23          1           0        4.272792   -1.080028    0.196271
     24          1           0        0.788231    1.234759   -0.763339
     25          1           0       -0.187868   -0.726254   -1.980605
     26          7           0        3.143120    1.317708    0.483921
     27          8           0        2.476543    2.349877    0.514569
     28          8           0        4.248050    1.173067    1.002423
 ---------------------------------------------------------------------

 SCF Done:  E(RHF) =  -868.337859633     A.U. after   16 cycles
 E2 =    -0.2603283328D+01 EUMP2 =    -0.87094114296155D+03

 The electronic state is 1-A.
 Alpha  occ. eigenvalues --  -20.61193 -20.61145 -20.60769 -20.60719 -15.86223
 Alpha  occ. eigenvalues --  -15.85788 -11.31703 -11.30958 -11.28329 -11.28195
 Alpha  occ. eigenvalues --  -11.28021 -11.27552 -11.27495 -11.27330 -11.27232
 Alpha  occ. eigenvalues --  -11.27228 -11.26510 -11.26463  -1.60243  -1.59811
 Alpha  occ. eigenvalues --   -1.39792  -1.39378  -1.19917  -1.19117  -1.09259
 Alpha  occ. eigenvalues --   -1.08548  -1.05325  -1.04509  -0.96076  -0.95419
 Alpha  occ. eigenvalues --   -0.86679  -0.85933  -0.82888  -0.82275  -0.77932
 Alpha  occ. eigenvalues --   -0.77350  -0.72439  -0.72024  -0.71582  -0.71120
 Alpha  occ. eigenvalues --   -0.70968  -0.70246  -0.65528  -0.65256  -0.64793
 Alpha  occ. eigenvalues --   -0.64538  -0.62634  -0.61889  -0.55759  -0.55049
 Alpha  occ. eigenvalues --   -0.53662  -0.53350  -0.52760  -0.52624  -0.49212
 Alpha  occ. eigenvalues --   -0.49185  -0.48790  -0.48745  -0.45171  -0.44826
 Alpha  occ. eigenvalues --   -0.37978  -0.37120  -0.36972  -0.35886
 Alpha virt. eigenvalues --    0.04497   0.05198   0.10553   0.11694   0.15915
 Alpha virt. eigenvalues --    0.16743   0.20836   0.21807   0.26402   0.27544
 Alpha virt. eigenvalues --    0.27846   0.28864   0.30476   0.31457   0.32123

 Mulliken charges:
               1
     1  C   -0.171682
     2  C   -0.220278
     3  C   -0.176197
     4  C    0.159174
     5  C   -0.181166
     6  C   -0.226091
     7  H    0.228713
     8  H    0.224906
     9  H    0.275924
    10  H    0.286457
    11  H    0.233479
    12  N    0.488994
    13  O   -0.455039
    14  O   -0.462980
    15  C   -0.166481
    16  C   -0.216332
    17  C   -0.168006
    18  C    0.162599
    19  C   -0.171048
    20  C   -0.224601
    21  H    0.226684
    22  H    0.224208
    23  H    0.275561
    24  H    0.267919
    25  H    0.223089
    26  N    0.489317
    27  O   -0.469634
    28  O   -0.457489
 Sum of Mulliken charges =  -0.00000

 Dipole moment (field-independent basis, Debye):
    X=             -3.6828    Y=             -0.2373    Z=             -5.3743  Tot=              6.5193
 Quadrupole moment (field-independent basis, Debye-Ang):
   XX=           -101.6893   YY=           -104.6441   ZZ=           -106.8149
   XY=            -21.0166   XZ=              3.0415   YZ=              3.7649

 Normal termination of Gaussian 16 at Fri May  7 06:38:45 2021.
