 Gaussian 16, Revision A.03,
 Gaussian 16:  EM64L-G16RevA.03 25-Dec-2016

 -------------
 #p 6-31g* mp2
 -------------

 ------------------------------------------------------
 Input file generated by CHIRIPA (05-May-2021 14:57:24)
 ------------------------------------------------------
 Symbolic Z-matrix:
 Charge =  0 Multiplicity = 1

                         Standard orientation:
 ---------------------------------------------------------------------
 Center     Atomic      Atomic             Coordinates (Angstroms)
 Number     Number       Type             X           Y           Z
 ---------------------------------------------------------------------
      1          6           0       -6.387079    0.983923    0.020789
      2          6           0       -5.286325    1.813244    0.259722
      3          6           0       -3.987443    1.297404    0.222806
      4          6           0       -3.825137   -0.058494   -0.057350
      5          6           0       -4.901673   -0.910325   -0.299721
      6          6           0       -6.191585   -0.372823   -0.257679
      7          1           0       -7.392598    1.393053    0.051458
      8          1           0       -5.435146    2.867293    0.476234
      9          1           0       -3.117478    1.916885    0.403970
     10          1           0       -4.721678   -1.957020   -0.512909
     11          1           0       -7.044579   -1.019248   -0.443636
     12          7           0       -2.454817   -0.616057   -0.099144
     13          8           0       -2.338540   -1.814010   -0.348193
     14          8           0       -1.522984    0.155435    0.117937
     15          6           0        5.921794    1.618026   -0.322074
     16          6           0        4.613851    2.074109   -0.127660
     17          6           0        3.569445    1.168138    0.079658
     18          6           0        3.870119   -0.193053    0.086477
     19          6           0        5.162892   -0.678485   -0.104261
     20          6           0        6.191664    0.245605   -0.309775
     21          1           0        6.727041    2.328844   -0.482422
     22          1           0        4.401325    3.139376   -0.136708
     23          1           0        2.547737    1.493844    0.232779
     24          1           0        5.343763   -1.746426   -0.089945
     25          1           0        7.206471   -0.111464   -0.460485
     26          7           0        2.772728   -1.161754    0.305000
     27          8           0        3.063783   -2.355873    0.306536
     28          8           0        1.642319   -0.708560    0.470605
 ---------------------------------------------------------------------

 SCF Done:  E(RHF) =  -868.334496381     A.U. after   16 cycles
 E2 =    -0.2600539112D+01 EUMP2 =    -0.87093503549334D+03

 The electronic state is 1-A.
 Alpha  occ. eigenvalues --  -20.59758 -20.59741 -20.59454 -20.59328 -15.84832
 Alpha  occ. eigenvalues --  -15.84444 -11.30578 -11.30258 -11.27210 -11.27177
 Alpha  occ. eigenvalues --  -11.27005 -11.26904 -11.26853 -11.26734 -11.26304
 Alpha  occ. eigenvalues --  -11.26278 -11.26015 -11.25999  -1.58815  -1.58478
 Alpha  occ. eigenvalues --   -1.38367  -1.38012  -1.18785  -1.18482  -1.08105
 Alpha  occ. eigenvalues --   -1.07801  -1.04247  -1.03949  -0.94876  -0.94549
 Alpha  occ. eigenvalues --   -0.85627  -0.85326  -0.81717  -0.81369  -0.76698
 Alpha  occ. eigenvalues --   -0.76344  -0.71087  -0.70561  -0.70177  -0.69894
 Alpha  occ. eigenvalues --   -0.69834  -0.69586  -0.64430  -0.64255  -0.64112
 Alpha  occ. eigenvalues --   -0.63962  -0.61594  -0.61287  -0.54734  -0.54451
 Alpha  occ. eigenvalues --   -0.52554  -0.52346  -0.52260  -0.52048  -0.47837
 Alpha  occ. eigenvalues --   -0.47764  -0.47394  -0.47347  -0.43701  -0.43315
 Alpha  occ. eigenvalues --   -0.36787  -0.36497  -0.35869  -0.35575
 Alpha virt. eigenvalues --    0.05847   0.06188   0.11780   0.12073   0.17274
 Alpha virt. eigenvalues --    0.17597   0.21861   0.22143   0.27742   0.28021
 Alpha virt. eigenvalues --    0.28776   0.29096   0.31379   0.31658   0.33022

 Mulliken charges:
               1
     1  C   -0.172084
     2  C   -0.218405
     3  C   -0.171621
     4  C    0.159471
     5  C   -0.171403
     6  C   -0.218431
     7  H    0.223233
     8  H    0.220646
     9  H    0.273259
    10  H    0.276076
    11  H    0.221821
    12  N    0.486951
    13  O   -0.456203
    14  O   -0.452635
    15  C   -0.172289
    16  C   -0.218873
    17  C   -0.172013
    18  C    0.158639
    19  C   -0.171817
    20  C   -0.218738
    21  H    0.221978
    22  H    0.220046
    23  H    0.280032
    24  H    0.274387
    25  H    0.220343
    26  N    0.486577
    27  O   -0.466699
    28  O   -0.442249
 Sum of Mulliken charges =  -0.00000

 Dipole moment (field-independent basis, Debye):
    X=             -1.1130    Y=              5.2666    Z=             -0.5871  Tot=              5.4148
 Quadrupole moment (field-independent basis, Debye-Ang):
   XX=            -39.3564   YY=           -100.2474   ZZ=           -106.5318
   XY=              4.5827   XZ=             -2.7512   YZ=              1.8067

 Normal termination of Gaussian 16 at Thu May  6 22:45:49 2021.
