 Gaussian 16, Revision A.03,
 Gaussian 16:  EM64L-G16RevA.03 25-Dec-2016

 -------------
 #p 6-31g* mp2
 -------------

 ------------------------------------------------------
 Input file generated by CHIRIPA (05-May-2021 14:53:17)
 ------------------------------------------------------
 Symbolic Z-matrix:
 Charge =  0 Multiplicity = 1

                         Standard orientation:
 ---------------------------------------------------------------------
 Center     Atomic      Atomic             Coordinates (Angstroms)
 Number     Number       Type             X           Y           Z
 ---------------------------------------------------------------------
      1          6           0       -3.587256   -0.420944   -0.210374
      2          6           0       -2.650505   -1.161100    0.744953
      3          6           0       -1.356352   -1.616024    0.069670
      4          1           0       -3.825741   -1.075165   -1.060119
      5          1           0       -3.062702    0.451087   -0.624862
      6          1           0       -3.177135   -2.030693    1.158576
      7          1           0       -2.414375   -0.505110    1.592618
      8          1           0       -0.806628   -0.756768   -0.327927
      9          1           0       -1.573721   -2.291020   -0.764436
     10          1           0       -0.701468   -2.142893    0.770668
     11          6           0       -4.885311    0.040158    0.450055
     12          6           0       -5.822063    0.780313   -0.505273
     13          6           0       -7.116216    1.235238    0.170010
     14          1           0       -5.409865   -0.831874    0.864542
     15          1           0       -4.646826    0.694378    1.299799
     16          1           0       -6.058192    0.124324   -1.352938
     17          1           0       -5.295433    1.649907   -0.918895
     18          1           0       -6.898846    1.910234    1.004116
     19          1           0       -7.665939    0.375982    0.567607
     20          1           0       -7.771099    1.762107   -0.530987
     21          6           0        3.864084    2.599278    0.137355
     22          6           0        2.727263    2.202905   -0.574716
     23          6           0        2.410289    0.847910   -0.709121
     24          6           0        3.255991   -0.088164   -0.115956
     25          6           0        4.395740    0.275292    0.599700
     26          6           0        4.693233    1.635905    0.721262
     27          1           0        4.102751    3.654053    0.236776
     28          1           0        2.081523    2.948876   -1.029239
     29          1           0        1.536470    0.513291   -1.254912
     30          1           0        5.020343   -0.491484    1.041676
     31          1           0        5.576761    1.940824    1.274839
     32          7           0        2.930737   -1.525611   -0.251445
     33          8           0        3.691928   -2.330744    0.280517
     34          8           0        1.920770   -1.819930   -0.887040
 ---------------------------------------------------------------------

 SCF Done:  E(RHF) =  -669.535431875     A.U. after   15 cycles
 E2 =    -0.2091471487D+01 EUMP2 =    -0.67162690336166D+03

 The electronic state is 1-A.
 Alpha  occ. eigenvalues --  -20.60830 -20.60799 -15.85846 -11.31227 -11.27797
 Alpha  occ. eigenvalues --  -11.27792 -11.27541 -11.26817 -11.26807 -11.21463
 Alpha  occ. eigenvalues --  -11.21161 -11.21068 -11.21005 -11.20972 -11.20138
 Alpha  occ. eigenvalues --   -1.59881  -1.39434  -1.19400  -1.08794  -1.08118
 Alpha  occ. eigenvalues --   -1.04805  -1.03136  -0.95656  -0.95526  -0.86559
 Alpha  occ. eigenvalues --   -0.86202  -0.82459  -0.79208  -0.77934  -0.77489
 Alpha  occ. eigenvalues --   -0.72068  -0.71197  -0.70510  -0.65054  -0.64822
 Alpha  occ. eigenvalues --   -0.64751  -0.62160  -0.60543  -0.58954  -0.57169
 Alpha  occ. eigenvalues --   -0.55310  -0.54860  -0.53133  -0.52901  -0.52199
 Alpha  occ. eigenvalues --   -0.51976  -0.49543  -0.48831  -0.48817  -0.47501
 Alpha  occ. eigenvalues --   -0.46276  -0.45469  -0.45406  -0.44794  -0.43335
 Alpha  occ. eigenvalues --   -0.37379  -0.36407
 Alpha virt. eigenvalues --    0.05002   0.11208   0.16487   0.21040   0.23100
 Alpha virt. eigenvalues --    0.24358   0.26084   0.27144   0.27657   0.27877
 Alpha virt. eigenvalues --    0.29059   0.30414   0.31518   0.32052   0.32465

 Mulliken charges:
               1
     1  C   -0.296666
     2  C   -0.302990
     3  C   -0.466099
     4  H    0.150481
     5  H    0.143878
     6  H    0.151245
     7  H    0.147370
     8  H    0.147313
     9  H    0.158038
    10  H    0.166851
    11  C   -0.297600
    12  C   -0.299081
    13  C   -0.475443
    14  H    0.150100
    15  H    0.147966
    16  H    0.152328
    17  H    0.149644
    18  H    0.154262
    19  H    0.155630
    20  H    0.159377
    21  C   -0.170675
    22  C   -0.219083
    23  C   -0.172129
    24  C    0.157901
    25  C   -0.170841
    26  C   -0.218521
    27  H    0.225712
    28  H    0.223581
    29  H    0.278343
    30  H    0.275700
    31  H    0.223583
    32  N    0.488395
    33  O   -0.460445
    34  O   -0.458122
 Sum of Mulliken charges =  -0.00000

 Dipole moment (field-independent basis, Debye):
    X=              1.3162    Y=              4.9433    Z=              0.4509  Tot=              5.1354
 Quadrupole moment (field-independent basis, Debye-Ang):
   XX=            -85.5813   YY=            -95.0727   ZZ=            -94.2202
   XY=             16.5152   XZ=              4.5439   YZ=             -1.2036

 Normal termination of Gaussian 16 at Thu May  6 07:32:19 2021.
