 Gaussian 16, Revision A.03,
 Gaussian 16:  EM64L-G16RevA.03 25-Dec-2016

 -------------
 #p 6-31g* mp2
 -------------

 ------------------------------------------------------
 Input file generated by CHIRIPA (05-May-2021 14:53:17)
 ------------------------------------------------------
 Symbolic Z-matrix:
 Charge =  0 Multiplicity = 1

                         Standard orientation:
 ---------------------------------------------------------------------
 Center     Atomic      Atomic             Coordinates (Angstroms)
 Number     Number       Type             X           Y           Z
 ---------------------------------------------------------------------
      1          6           0       -5.726061    0.217246    0.255371
      2          6           0       -7.037905   -0.566459    0.201924
      3          6           0       -8.232931    0.246514    0.700706
      4          1           0       -5.543493    0.544230    1.288180
      5          1           0       -5.827405    1.129882   -0.348135
      6          1           0       -6.933656   -1.478038    0.804229
      7          1           0       -7.217274   -0.891780   -0.830844
      8          1           0       -8.365266    1.148474    0.094442
      9          1           0       -8.080036    0.558885    1.738804
     10          1           0       -9.160293   -0.332851    0.653833
     11          6           0       -4.522206   -0.582131   -0.240067
     12          6           0       -3.210362    0.201573   -0.186620
     13          6           0       -2.015336   -0.611399   -0.685402
     14          1           0       -4.420861   -1.494767    0.363439
     15          1           0       -4.704774   -0.909116   -1.272876
     16          1           0       -3.030992    0.526894    0.846147
     17          1           0       -3.314611    1.113153   -0.788925
     18          1           0       -2.168231   -0.923770   -1.723500
     19          1           0       -1.883001   -1.513360   -0.079138
     20          1           0       -1.087974   -0.032035   -0.638529
     21          6           0        5.988245   -1.297269    0.587826
     22          6           0        4.868785   -1.867567   -0.027063
     23          6           0        3.763281   -1.079404   -0.360542
     24          6           0        3.811325    0.281728   -0.063384
     25          6           0        4.912032    0.879326    0.548669
     26          6           0        6.006265    0.071943    0.873227
     27          1           0        6.842650   -1.916999    0.843416
     28          1           0        4.852008   -2.930633   -0.249893
     29          1           0        2.883716   -1.494972   -0.837077
     30          1           0        4.899431    1.942014    0.758318
     31          1           0        6.874298    0.517563    1.350705
     32          7           0        2.646945    1.126295   -0.411702
     33          8           0        2.714029    2.322945   -0.139370
     34          8           0        1.689265    0.575624   -0.950449
 ---------------------------------------------------------------------

 SCF Done:  E(RHF) =  -669.536223807     A.U. after   15 cycles
 E2 =    -0.2090577907D+01 EUMP2 =    -0.67162680171369D+03

 The electronic state is 1-A.
 Alpha  occ. eigenvalues --  -20.60933 -20.60928 -15.85967 -11.31277 -11.27841
 Alpha  occ. eigenvalues --  -11.27833 -11.27579 -11.26847 -11.26837 -11.21120
 Alpha  occ. eigenvalues --  -11.20774 -11.20663 -11.20645 -11.20581 -11.19746
 Alpha  occ. eigenvalues --   -1.59995  -1.39550  -1.19446  -1.08853  -1.07725
 Alpha  occ. eigenvalues --   -1.04840  -1.02756  -0.95698  -0.95191  -0.86244
 Alpha  occ. eigenvalues --   -0.86208  -0.82530  -0.78846  -0.77585  -0.77519
 Alpha  occ. eigenvalues --   -0.72194  -0.71307  -0.70555  -0.65102  -0.64844
 Alpha  occ. eigenvalues --   -0.64368  -0.62187  -0.60169  -0.58573  -0.56773
 Alpha  occ. eigenvalues --   -0.55347  -0.54507  -0.53174  -0.52933  -0.51827
 Alpha  occ. eigenvalues --   -0.51623  -0.49175  -0.48948  -0.48935  -0.47142
 Alpha  occ. eigenvalues --   -0.45910  -0.45065  -0.44992  -0.44958  -0.42964
 Alpha  occ. eigenvalues --   -0.37426  -0.36441
 Alpha virt. eigenvalues --    0.04926   0.11214   0.16408   0.21337   0.23523
 Alpha virt. eigenvalues --    0.25150   0.27262   0.27308   0.28108   0.28170
 Alpha virt. eigenvalues --    0.28918   0.30879   0.32108   0.32289   0.32477

 Mulliken charges:
               1
     1  C   -0.297669
     2  C   -0.299002
     3  C   -0.475317
     4  H    0.148773
     5  H    0.149552
     6  H    0.150525
     7  H    0.151130
     8  H    0.155057
     9  H    0.154592
    10  H    0.158552
    11  C   -0.297285
    12  C   -0.298633
    13  C   -0.487260
    14  H    0.146538
    15  H    0.147954
    16  H    0.150132
    17  H    0.153106
    18  H    0.150240
    19  H    0.145647
    20  H    0.189571
    21  C   -0.170580
    22  C   -0.218612
    23  C   -0.170760
    24  C    0.157636
    25  C   -0.170609
    26  C   -0.218633
    27  H    0.225934
    28  H    0.223889
    29  H    0.276482
    30  H    0.275789
    31  H    0.223731
    32  N    0.491888
    33  O   -0.459016
    34  O   -0.463340
 Sum of Mulliken charges =  -0.00000

 Dipole moment (field-independent basis, Debye):
    X=              4.4260    Y=             -2.8870    Z=              1.2056  Tot=              5.4201
 Quadrupole moment (field-independent basis, Debye-Ang):
   XX=            -64.7874   YY=            -93.6431   ZZ=            -94.2594
   XY=             -8.1275   XZ=              6.1331   YZ=              1.7459

 Normal termination of Gaussian 16 at Thu May  6 07:33:59 2021.
