 Gaussian 16, Revision A.03,
 Gaussian 16:  EM64L-G16RevA.03 25-Dec-2016

 -------------
 #p 6-31g* mp2
 -------------

 ------------------------------------------------------
 Input file generated by CHIRIPA (05-May-2021 14:57:24)
 ------------------------------------------------------
 Symbolic Z-matrix:
 Charge =  0 Multiplicity = 1

                         Standard orientation:
 ---------------------------------------------------------------------
 Center     Atomic      Atomic             Coordinates (Angstroms)
 Number     Number       Type             X           Y           Z
 ---------------------------------------------------------------------
      1          6           0       -1.353623   -1.009204    2.216752
      2          6           0       -1.930485    0.264633    2.183745
      3          6           0       -2.717938    0.659540    1.098152
      4          6           0       -2.908596   -0.248791    0.058021
      5          6           0       -2.347336   -1.524826    0.061757
      6          6           0       -1.563519   -1.898301    1.157520
      7          1           0       -0.743322   -1.307654    3.064017
      8          1           0       -1.769185    0.957198    3.004952
      9          1           0       -3.176423    1.639633    1.046880
     10          1           0       -2.526126   -2.193278   -0.771684
     11          1           0       -1.116767   -2.888215    1.180457
     12          7           0       -3.740312    0.157935   -1.096631
     13          8           0       -3.893086   -0.660822   -2.000475
     14          8           0       -4.223689    1.287782   -1.075940
     15          6           0        4.687276   -1.312260   -0.460770
     16          6           0        3.385943   -1.717746   -0.774826
     17          6           0        2.316821   -0.824143   -0.660808
     18          6           0        2.586310    0.473222   -0.227783
     19          6           0        3.871735    0.907206    0.092580
     20          6           0        4.925599   -0.003386   -0.028831
     21          1           0        5.511870   -2.013031   -0.552212
     22          1           0        3.197895   -2.733616   -1.110523
     23          1           0        1.299554   -1.111596   -0.897356
     24          1           0        4.027963    1.926404    0.424614
     25          1           0        5.935203    0.314294    0.215760
     26          7           0        1.462555    1.428233   -0.103164
     27          8           0        1.726339    2.565700    0.280532
     28          8           0        0.339250    1.021218   -0.391542
 ---------------------------------------------------------------------

 SCF Done:  E(RHF) =  -868.337456097     A.U. after   16 cycles
 E2 =    -0.2601847842D+01 EUMP2 =    -0.87093930393906D+03

 The electronic state is 1-A.
 Alpha  occ. eigenvalues --  -20.61114 -20.61065 -20.59905 -20.59874 -15.86125
 Alpha  occ. eigenvalues --  -15.84944 -11.31520 -11.30203 -11.28093 -11.28081
 Alpha  occ. eigenvalues --  -11.27841 -11.27119 -11.27101 -11.26944 -11.26750
 Alpha  occ. eigenvalues --  -11.26674 -11.26013 -11.25785  -1.60162  -1.58960
 Alpha  occ. eigenvalues --   -1.39714  -1.38522  -1.19699  -1.18406  -1.09089
 Alpha  occ. eigenvalues --   -1.07856  -1.05105  -1.03851  -0.95921  -0.94703
 Alpha  occ. eigenvalues --   -0.86497  -0.85283  -0.82756  -0.81564  -0.77798
 Alpha  occ. eigenvalues --   -0.76591  -0.72382  -0.71491  -0.71189  -0.70799
 Alpha  occ. eigenvalues --   -0.70244  -0.69637  -0.65352  -0.65106  -0.64130
 Alpha  occ. eigenvalues --   -0.63937  -0.62448  -0.61242  -0.55601  -0.54446
 Alpha  occ. eigenvalues --   -0.53440  -0.53196  -0.52105  -0.52011  -0.49138
 Alpha  occ. eigenvalues --   -0.49090  -0.47942  -0.47925  -0.45075  -0.43953
 Alpha  occ. eigenvalues --   -0.37688  -0.36731  -0.36376  -0.35350
 Alpha virt. eigenvalues --    0.04716   0.05982   0.10920   0.12238   0.16215
 Alpha virt. eigenvalues --    0.17402   0.21060   0.22099   0.26888   0.27723
 Alpha virt. eigenvalues --    0.28276   0.29009   0.30610   0.31552   0.32121

 Mulliken charges:
               1
     1  C   -0.171355
     2  C   -0.212325
     3  C   -0.153036
     4  C    0.168057
     5  C   -0.172245
     6  C   -0.222045
     7  H    0.219754
     8  H    0.221886
     9  H    0.276048
    10  H    0.269650
    11  H    0.213998
    12  N    0.488348
    13  O   -0.466361
    14  O   -0.459419
    15  C   -0.170742
    16  C   -0.219645
    17  C   -0.172036
    18  C    0.156959
    19  C   -0.171199
    20  C   -0.218807
    21  H    0.226285
    22  H    0.222865
    23  H    0.276301
    24  H    0.275965
    25  H    0.224240
    26  N    0.489610
    27  O   -0.461830
    28  O   -0.458922
 Sum of Mulliken charges =  -0.00000

 Dipole moment (field-independent basis, Debye):
    X=              6.9130    Y=             -4.4590    Z=              3.6105  Tot=              8.9838
 Quadrupole moment (field-independent basis, Debye-Ang):
   XX=           -100.3833   YY=           -101.7520   ZZ=           -104.4353
   XY=             -2.3805   XZ=            -13.1683   YZ=              3.1785

 Normal termination of Gaussian 16 at Thu May  6 06:38:43 2021.
