 Gaussian 16, Revision A.03,
 Gaussian 16:  EM64L-G16RevA.03 25-Dec-2016

 -------------
 #p 6-31g* mp2
 -------------

 ------------------------------------------------------
 Input file generated by CHIRIPA (05-May-2021 14:51:14)
 ------------------------------------------------------
 Symbolic Z-matrix:
 Charge =  0 Multiplicity = 1

                         Standard orientation:
 ---------------------------------------------------------------------
 Center     Atomic      Atomic             Coordinates (Angstroms)
 Number     Number       Type             X           Y           Z
 ---------------------------------------------------------------------
      1          6           0        2.743064   -0.111768   -0.228792
      2          6           0        3.895442   -0.555244   -1.130645
      3          6           0        3.979419   -2.074753   -1.278407
      4          1           0        2.862998   -0.571834    0.761612
      5          1           0        1.797916   -0.494031   -0.638627
      6          1           0        4.837993   -0.171091   -0.719986
      7          1           0        3.772855   -0.093916   -2.118959
      8          1           0        3.054636   -2.471571   -1.709582
      9          1           0        4.125826   -2.549185   -0.302661
     10          1           0        4.810088   -2.369731   -1.927127
     11          6           0        2.646068    1.404647   -0.071288
     12          6           0        1.493689    1.848123    0.830565
     13          6           0        1.409713    3.367632    0.978327
     14          1           0        3.591216    1.786910    0.338547
     15          1           0        2.526134    1.864713   -1.061692
     16          1           0        1.616277    1.386794    1.818879
     17          1           0        0.551139    1.463970    0.419906
     18          1           0        1.263306    3.842064    0.002581
     19          1           0        2.334496    3.764450    1.409502
     20          1           0        0.579044    3.662610    1.627047
     21          6           0       -2.473945   -1.272367    0.528158
     22          6           0       -1.024347   -1.209936    1.010607
     23          6           0       -0.597733   -2.469385    1.765315
     24          1           0       -3.134994   -1.425393    1.392185
     25          1           0       -2.599582   -2.150091   -0.120848
     26          1           0       -0.901146   -0.331814    1.657399
     27          1           0       -0.366688   -1.056849    0.145354
     28          1           0       -0.692207   -3.352590    1.125295
     29          1           0       -1.229702   -2.623436    2.645931
     30          1           0        0.441849   -2.403396    2.101131
     31          6           0       -2.915187   -0.020512   -0.228078
     32          6           0       -4.364784   -0.082943   -0.710527
     33          6           0       -4.791398    1.176506   -1.465234
     34          1           0       -2.789550    0.857212    0.420929
     35          1           0       -2.254138    0.132514   -1.092105
     36          1           0       -5.022443   -0.236030    0.154726
     37          1           0       -4.487985   -0.961064   -1.357318
     38          1           0       -4.159430    1.330557   -2.345851
     39          1           0       -4.696925    2.059711   -0.825215
     40          1           0       -5.830982    1.110517   -1.801051
 ---------------------------------------------------------------------

 SCF Done:  E(RHF) =  -470.732465770     A.U. after   11 cycles
 E2 =    -0.1584324853D+01 EUMP2 =    -0.47231679062311D+03

 The electronic state is 1-A.
 Alpha  occ. eigenvalues --  -11.21623 -11.21600 -11.21502 -11.21500 -11.21420
 Alpha  occ. eigenvalues --  -11.21383 -11.21340 -11.21323 -11.21090 -11.21078
 Alpha  occ. eigenvalues --  -11.21029 -11.21025  -1.08465  -1.08377  -1.03532
 Alpha  occ. eigenvalues --   -1.03489  -0.95983  -0.95950  -0.86996  -0.86968
 Alpha  occ. eigenvalues --   -0.79691  -0.79514  -0.78466  -0.77978  -0.65145
 Alpha  occ. eigenvalues --   -0.64973  -0.60946  -0.60884  -0.59398  -0.59275
 Alpha  occ. eigenvalues --   -0.57652  -0.57503  -0.55291  -0.55225  -0.52693
 Alpha  occ. eigenvalues --   -0.52625  -0.52430  -0.52356  -0.49962  -0.49866
 Alpha  occ. eigenvalues --   -0.48139  -0.47808  -0.46714  -0.46601  -0.46192
 Alpha  occ. eigenvalues --   -0.45779  -0.45605  -0.45030  -0.43780  -0.43740
 Alpha virt. eigenvalues --    0.21322   0.23225   0.23799   0.24158   0.24741
 Alpha virt. eigenvalues --    0.26272   0.26411   0.28003   0.28299   0.29624
 Alpha virt. eigenvalues --    0.30863   0.30992   0.31770   0.31825   0.32109

 Mulliken charges:
               1
     1  C   -0.303212
     2  C   -0.299136
     3  C   -0.475517
     4  H    0.149661
     5  H    0.154302
     6  H    0.151983
     7  H    0.151696
     8  H    0.154682
     9  H    0.155262
    10  H    0.160289
    11  C   -0.298205
    12  C   -0.304191
    13  C   -0.475463
    14  H    0.149195
    15  H    0.149097
    16  H    0.151085
    17  H    0.159266
    18  H    0.154973
    19  H    0.154756
    20  H    0.159515
    21  C   -0.297741
    22  C   -0.306880
    23  C   -0.475861
    24  H    0.149409
    25  H    0.149023
    26  H    0.155546
    27  H    0.157407
    28  H    0.154655
    29  H    0.154684
    30  H    0.160795
    31  C   -0.299111
    32  C   -0.299514
    33  C   -0.475729
    34  H    0.149879
    35  H    0.148549
    36  H    0.152186
    37  H    0.152017
    38  H    0.154999
    39  H    0.155287
    40  H    0.160361
 Sum of Mulliken charges =  -0.00000

 Dipole moment (field-independent basis, Debye):
    X=             -0.0096    Y=             -0.0076    Z=              0.0023  Tot=              0.0125
 Quadrupole moment (field-independent basis, Debye-Ang):
   XX=            -84.6363   YY=            -86.6214   ZZ=            -83.7147
   XY=              0.3618   XZ=              0.0071   YZ=              0.5833

 Normal termination of Gaussian 16 at Wed May  5 18:25:37 2021.
