 Gaussian 16, Revision A.03,
 Gaussian 16:  EM64L-G16RevA.03 25-Dec-2016

 -------------
 #p 6-31g* mp2
 -------------

 ------------------------------------------------------
 Input file generated by CHIRIPA (05-May-2021 14:53:12)
 ------------------------------------------------------
 Symbolic Z-matrix:
 Charge =  0 Multiplicity = 1

                         Standard orientation:
 ---------------------------------------------------------------------
 Center     Atomic      Atomic             Coordinates (Angstroms)
 Number     Number       Type             X           Y           Z
 ---------------------------------------------------------------------
      1          6           0        2.478411    1.392899   -0.487538
      2          6           0        1.637373    2.150567    0.540362
      3          6           0        0.957858    3.387462   -0.047979
      4          1           0        3.239202    2.069708   -0.899935
      5          1           0        1.836554    1.094845   -1.328120
      6          1           0        2.280337    2.445900    1.379404
      7          1           0        0.878619    1.471822    0.950500
      8          1           0        0.293707    3.106913   -0.871870
      9          1           0        1.703389    4.086525   -0.440529
     10          1           0        0.361878    3.913991    0.703974
     11          6           0        3.164059    0.153884    0.085575
     12          6           0        4.005098   -0.603784   -0.942325
     13          6           0        4.684613   -1.840679   -0.353984
     14          1           0        3.805917    0.451938    0.926157
     15          1           0        2.403269   -0.522925    0.497972
     16          1           0        4.763852    0.074961   -1.352463
     17          1           0        3.362134   -0.899116   -1.781368
     18          1           0        3.939082   -2.539742    0.038565
     19          1           0        5.348764   -1.560130    0.469907
     20          1           0        5.280593   -2.367208   -1.105938
     21          6           0       -4.122735    0.735165   -0.786803
     22          6           0       -3.808537   -0.515400   -1.328916
     23          6           0       -2.747606   -1.266239   -0.813926
     24          6           0       -2.018602   -0.733698    0.248262
     25          6           0       -2.307066    0.509121    0.809938
     26          6           0       -3.372319    1.242540    0.279015
     27          1           0       -4.948570    1.311668   -1.193048
     28          1           0       -4.389594   -0.911934   -2.156671
     29          1           0       -2.482676   -2.237165   -1.214592
     30          1           0       -1.709659    0.878062    1.634806
     31          1           0       -3.614055    2.213454    0.702020
     32          7           0       -0.893154   -1.519357    0.801893
     33          8           0       -0.266251   -1.027947    1.737918
     34          8           0       -0.659243   -2.611690    0.289320
 ---------------------------------------------------------------------

 SCF Done:  E(RHF) =  -669.536597311     A.U. after   15 cycles
 E2 =    -0.2093099133D+01 EUMP2 =    -0.67162969644410D+03

 The electronic state is 1-A.
 Alpha  occ. eigenvalues --  -20.61127 -20.61107 -15.86111 -11.31369 -11.27921
 Alpha  occ. eigenvalues --  -11.27915 -11.27642 -11.26913 -11.26900 -11.21027
 Alpha  occ. eigenvalues --  -11.20901 -11.20747 -11.20737 -11.20309 -11.20142
 Alpha  occ. eigenvalues --   -1.60160  -1.39719  -1.19529  -1.08946  -1.07678
 Alpha  occ. eigenvalues --   -1.04912  -1.02869  -0.95798  -0.95331  -0.86351
 Alpha  occ. eigenvalues --   -0.86312  -0.82634  -0.78944  -0.77716  -0.77413
 Alpha  occ. eigenvalues --   -0.72334  -0.71470  -0.70636  -0.65187  -0.64918
 Alpha  occ. eigenvalues --   -0.64300  -0.62267  -0.60265  -0.58735  -0.56928
 Alpha  occ. eigenvalues --   -0.55419  -0.54628  -0.53236  -0.53001  -0.52070
 Alpha  occ. eigenvalues --   -0.51749  -0.49368  -0.49100  -0.49008  -0.47249
 Alpha  occ. eigenvalues --   -0.46029  -0.45415  -0.44990  -0.44441  -0.43087
 Alpha  occ. eigenvalues --   -0.37500  -0.36500
 Alpha virt. eigenvalues --    0.04757   0.11077   0.16254   0.21016   0.23456
 Alpha virt. eigenvalues --    0.24710   0.26742   0.27406   0.27744   0.28574
 Alpha virt. eigenvalues --    0.29046   0.30796   0.31628   0.32040   0.32229

 Mulliken charges:
               1
     1  C   -0.297066
     2  C   -0.308663
     3  C   -0.475789
     4  H    0.146234
     5  H    0.144661
     6  H    0.152031
     7  H    0.162953
     8  H    0.151958
     9  H    0.155339
    10  H    0.152700
    11  C   -0.307479
    12  C   -0.298180
    13  C   -0.476909
    14  H    0.147085
    15  H    0.172057
    16  H    0.146910
    17  H    0.149823
    18  H    0.164234
    19  H    0.153028
    20  H    0.156065
    21  C   -0.170376
    22  C   -0.218520
    23  C   -0.170832
    24  C    0.158346
    25  C   -0.170554
    26  C   -0.218716
    27  H    0.226467
    28  H    0.224130
    29  H    0.275859
    30  H    0.277307
    31  H    0.224798
    32  N    0.487898
    33  O   -0.458695
    34  O   -0.458106
 Sum of Mulliken charges =  -0.00000

 Dipole moment (field-independent basis, Debye):
    X=             -4.1768    Y=              2.5263    Z=             -1.8351  Tot=              5.2149
 Quadrupole moment (field-independent basis, Debye-Ang):
   XX=            -79.2271   YY=            -97.5265   ZZ=            -94.0809
   XY=             -1.3542   XZ=              4.2528   YZ=              5.3019

 Normal termination of Gaussian 16 at Wed May  5 20:07:16 2021.
