 Gaussian 16, Revision A.03,
 Gaussian 16:  EM64L-G16RevA.03 25-Dec-2016

 -------------
 #p 6-31g* mp2
 -------------

 ------------------------------------------------------
 Input file generated by CHIRIPA (05-May-2021 14:53:16)
 ------------------------------------------------------
 Symbolic Z-matrix:
 Charge =  0 Multiplicity = 1

                         Standard orientation:
 ---------------------------------------------------------------------
 Center     Atomic      Atomic             Coordinates (Angstroms)
 Number     Number       Type             X           Y           Z
 ---------------------------------------------------------------------
      1          6           0        3.699221    0.674524    0.239229
      2          6           0        3.814077    2.003895   -0.507474
      3          6           0        2.840918    3.061260    0.014766
      4          1           0        2.669514    0.301176    0.154020
      5          1           0        3.882031    0.845912    1.309090
      6          1           0        3.632468    1.829820   -1.575806
      7          1           0        4.843678    2.374026   -0.420638
      8          1           0        3.024818    3.264021    1.074799
      9          1           0        1.806726    2.716722   -0.086931
     10          1           0        2.940007    4.003562   -0.533055
     11          6           0        4.665732   -0.392626   -0.271432
     12          6           0        4.550876   -1.721997    0.475272
     13          6           0        5.524035   -2.779362   -0.046968
     14          1           0        4.482922   -0.564014   -1.341292
     15          1           0        5.695439   -0.019278   -0.186222
     16          1           0        3.521275   -2.092129    0.388436
     17          1           0        4.732484   -1.547922    1.543603
     18          1           0        6.558226   -2.434825    0.054729
     19          1           0        5.340135   -2.982123   -1.107001
     20          1           0        5.424945   -3.721665    0.500852
     21          6           0       -0.787281    0.324504    0.171477
     22          6           0       -1.372576    0.054856   -1.069991
     23          6           0       -2.745842   -0.187437   -1.169898
     24          6           0       -3.507344   -0.152133   -0.002783
     25          6           0       -2.953542    0.113651    1.248598
     26          6           0       -1.578238    0.352990    1.324775
     27          1           0        0.280296    0.511576    0.239871
     28          1           0       -0.760765    0.032093   -1.967327
     29          1           0       -3.224849   -0.398724   -2.118228
     30          1           0       -3.589300    0.129597    2.125511
     31          1           0       -1.126404    0.562137    2.290254
     32          7           0       -4.962238   -0.407075   -0.095990
     33          8           0       -5.611278   -0.370278    0.947097
     34          8           0       -5.425995   -0.638869   -1.210367
 ---------------------------------------------------------------------

 SCF Done:  E(RHF) =  -669.535417621     A.U. after   15 cycles
 E2 =    -0.2091508605D+01 EUMP2 =    -0.67162692622636D+03

 The electronic state is 1-A.
 Alpha  occ. eigenvalues --  -20.60745 -20.60740 -15.85799 -11.31166 -11.27733
 Alpha  occ. eigenvalues --  -11.27726 -11.27444 -11.26753 -11.26736 -11.22632
 Alpha  occ. eigenvalues --  -11.22559 -11.22381 -11.22269 -11.22123 -11.21692
 Alpha  occ. eigenvalues --   -1.59821  -1.39374  -1.19336  -1.09412  -1.08729
 Alpha  occ. eigenvalues --   -1.04739  -1.04429  -0.96885  -0.95567  -0.87895
 Alpha  occ. eigenvalues --   -0.86135  -0.82404  -0.80498  -0.79234  -0.77445
 Alpha  occ. eigenvalues --   -0.72016  -0.71144  -0.70472  -0.66047  -0.64986
 Alpha  occ. eigenvalues --   -0.64741  -0.62087  -0.61825  -0.60258  -0.58492
 Alpha  occ. eigenvalues --   -0.56193  -0.55269  -0.53533  -0.53315  -0.53059
 Alpha  occ. eigenvalues --   -0.52830  -0.50836  -0.48820  -0.48771  -0.48758
 Alpha  occ. eigenvalues --   -0.47531  -0.46749  -0.46668  -0.44779  -0.44703
 Alpha  occ. eigenvalues --   -0.37311  -0.36344
 Alpha virt. eigenvalues --    0.05064   0.11311   0.16478   0.18924   0.22568
 Alpha virt. eigenvalues --    0.23638   0.24977   0.26280   0.27059   0.27379
 Alpha virt. eigenvalues --    0.29365   0.30424   0.31009   0.31190   0.31745

 Mulliken charges:
               1
     1  C   -0.304073
     2  C   -0.300699
     3  C   -0.478218
     4  H    0.141371
     5  H    0.152453
     6  H    0.152375
     7  H    0.157024
     8  H    0.157433
     9  H    0.148929
    10  H    0.165945
    11  C   -0.297947
    12  C   -0.300398
    13  C   -0.476217
    14  H    0.150229
    15  H    0.153437
    16  H    0.150533
    17  H    0.153058
    18  H    0.156768
    19  H    0.156041
    20  H    0.162678
    21  C   -0.181117
    22  C   -0.222291
    23  C   -0.170680
    24  C    0.158456
    25  C   -0.170626
    26  C   -0.221723
    27  H    0.241764
    28  H    0.223007
    29  H    0.275499
    30  H    0.275534
    31  H    0.224427
    32  N    0.487939
    33  O   -0.460409
    34  O   -0.460500
 Sum of Mulliken charges =  -0.00000

 Dipole moment (field-independent basis, Debye):
    X=              5.3823    Y=              0.9170    Z=              0.3353  Tot=              5.4701
 Quadrupole moment (field-independent basis, Debye-Ang):
   XX=           -130.0928   YY=            -96.0632   ZZ=            -89.4372
   XY=             -3.1216   XZ=             -1.0369   YZ=              0.6316

 Normal termination of Gaussian 16 at Thu May  6 05:55:03 2021.
