 Gaussian 16, Revision A.03,
 Gaussian 16:  EM64L-G16RevA.03 25-Dec-2016

 -------------
 #p 6-31g* mp2
 -------------

 ------------------------------------------------------
 Input file generated by CHIRIPA (05-May-2021 14:53:13)
 ------------------------------------------------------
 Symbolic Z-matrix:
 Charge =  0 Multiplicity = 1

                         Standard orientation:
 ---------------------------------------------------------------------
 Center     Atomic      Atomic             Coordinates (Angstroms)
 Number     Number       Type             X           Y           Z
 ---------------------------------------------------------------------
      1          6           0       -2.858333    0.222929    0.340236
      2          6           0       -3.471382   -0.154565   -1.008709
      3          6           0       -4.495573   -1.284337   -0.897169
      4          1           0       -2.381804   -0.663781    0.780249
      5          1           0       -3.660735    0.520891    1.029268
      6          1           0       -2.667935   -0.450401   -1.695419
      7          1           0       -3.946340    0.733193   -1.445649
      8          1           0       -5.316929   -0.995568   -0.233401
      9          1           0       -4.031260   -2.185887   -0.484589
     10          1           0       -4.921213   -1.538143   -1.873013
     11          6           0       -1.832553    1.350958    0.245080
     12          6           0       -1.219505    1.728452    1.594026
     13          6           0       -0.195313    2.858224    1.482485
     14          1           0       -1.030151    1.052996   -0.443952
     15          1           0       -2.309082    2.237668   -0.194932
     16          1           0       -0.744546    0.840694    2.030966
     17          1           0       -2.022952    2.024288    2.280735
     18          1           0       -0.659626    3.759774    1.069906
     19          1           0        0.626043    2.569455    0.818717
     20          1           0        0.230327    3.112030    2.458330
     21          6           0        0.954571   -2.437543    1.279003
     22          6           0        2.137576   -1.767092    1.606902
     23          6           0        2.633264   -0.755505    0.778933
     24          6           0        1.917241   -0.438583   -0.374392
     25          6           0        0.735711   -1.088271   -0.728208
     26          6           0        0.258641   -2.096594    0.114548
     27          1           0        0.576740   -3.222100    1.927933
     28          1           0        2.680138   -2.029771    2.510600
     29          1           0        3.546573   -0.220318    1.008849
     30          1           0        0.216934   -0.804224   -1.635735
     31          1           0       -0.660361   -2.615582   -0.142611
     32          7           0        2.432149    0.630611   -1.258754
     33          8           0        1.782693    0.891080   -2.269198
     34          8           0        3.475440    1.187930   -0.924724
 ---------------------------------------------------------------------

 SCF Done:  E(RHF) =  -669.534522162     A.U. after   15 cycles
 E2 =    -0.2096226364D+01 EUMP2 =    -0.67163074852535D+03

 The electronic state is 1-A.
 Alpha  occ. eigenvalues --  -20.60915 -20.60907 -15.85955 -11.31316 -11.27897
 Alpha  occ. eigenvalues --  -11.27893 -11.27647 -11.26902 -11.26892 -11.22063
 Alpha  occ. eigenvalues --  -11.21662 -11.21607 -11.21560 -11.21347 -11.20900
 Alpha  occ. eigenvalues --   -1.59983  -1.39535  -1.19513  -1.08900  -1.08633
 Alpha  occ. eigenvalues --   -1.04912  -1.03724  -0.96162  -0.95730  -0.87178
 Alpha  occ. eigenvalues --   -0.86310  -0.82559  -0.79804  -0.78410  -0.77608
 Alpha  occ. eigenvalues --   -0.72169  -0.71319  -0.70622  -0.65372  -0.65136
 Alpha  occ. eigenvalues --   -0.64913  -0.62235  -0.61136  -0.59546  -0.57758
 Alpha  occ. eigenvalues --   -0.55516  -0.55381  -0.53200  -0.53017  -0.52853
 Alpha  occ. eigenvalues --   -0.52559  -0.50115  -0.48930  -0.48928  -0.48106
 Alpha  occ. eigenvalues --   -0.46871  -0.45934  -0.45886  -0.44890  -0.43953
 Alpha  occ. eigenvalues --   -0.37446  -0.36427
 Alpha virt. eigenvalues --    0.04900   0.11006   0.16310   0.19269   0.23131
 Alpha virt. eigenvalues --    0.23581   0.24972   0.26046   0.27650   0.28331
 Alpha virt. eigenvalues --    0.29121   0.30590   0.31038   0.31590   0.32322

 Mulliken charges:
               1
     1  C   -0.301364
     2  C   -0.300824
     3  C   -0.474777
     4  H    0.144429
     5  H    0.150887
     6  H    0.145070
     7  H    0.157857
     8  H    0.158189
     9  H    0.147178
    10  H    0.162683
    11  C   -0.300759
    12  C   -0.302115
    13  C   -0.475140
    14  H    0.153603
    15  H    0.152625
    16  H    0.151316
    17  H    0.150300
    18  H    0.157630
    19  H    0.157075
    20  H    0.158722
    21  C   -0.171910
    22  C   -0.218595
    23  C   -0.170449
    24  C    0.160394
    25  C   -0.174760
    26  C   -0.217805
    27  H    0.226668
    28  H    0.224260
    29  H    0.276458
    30  H    0.278225
    31  H    0.225622
    32  N    0.489027
    33  O   -0.460385
    34  O   -0.459334
 Sum of Mulliken charges =  -0.00000

 Dipole moment (field-independent basis, Debye):
    X=             -1.7356    Y=             -3.7042    Z=              3.0944  Tot=              5.1292
 Quadrupole moment (field-independent basis, Debye-Ang):
   XX=            -98.8061   YY=            -92.0700   ZZ=            -95.7192
   XY=             -7.2505   XZ=              9.4555   YZ=              0.3354

 Normal termination of Gaussian 16 at Wed May  5 15:32:20 2021.
