 Gaussian 16, Revision A.03,
 Gaussian 16:  EM64L-G16RevA.03 25-Dec-2016

 -------------
 #p 6-31g* mp2
 -------------

 ------------------------------------------------------
 Input file generated by CHIRIPA (05-May-2021 14:55:25)
 ------------------------------------------------------
 Symbolic Z-matrix:
 Charge =  0 Multiplicity = 1

                         Standard orientation:
 ---------------------------------------------------------------------
 Center     Atomic      Atomic             Coordinates (Angstroms)
 Number     Number       Type             X           Y           Z
 ---------------------------------------------------------------------
      1          6           0        3.536831    2.000950    0.071894
      2          6           0        4.112987    0.824195    0.561601
      3          6           0        3.430608   -0.392480    0.468810
      4          6           0        2.168138   -0.395974   -0.122330
      5          6           0        1.567508    0.759580   -0.619552
      6          6           0        2.268167    1.964950   -0.516083
      7          1           0        4.074020    2.941702    0.148124
      8          1           0        5.098106    0.849158    1.018724
      9          1           0        3.853185   -1.318376    0.839705
     10          1           0        0.584000    0.703144   -1.070046
     11          1           0        1.818258    2.877273   -0.897257
     12          7           0        1.436058   -1.678029   -0.226216
     13          8           0        0.325080   -1.654471   -0.751393
     14          8           0        1.987093   -2.682187    0.219501
     15          6           0       -2.801441   -0.428254    0.488570
     16          6           0       -3.097630   -1.647543   -0.385267
     17          6           0       -2.836312   -2.969769    0.336695
     18          1           0       -1.754139   -0.466977    0.818123
     19          1           0       -3.417135   -0.478834    1.397282
     20          1           0       -2.482573   -1.593968   -1.292708
     21          1           0       -4.144295   -1.605814   -0.712933
     22          1           0       -3.460505   -3.049427    1.232596
     23          1           0       -1.789341   -3.037514    0.649527
     24          1           0       -3.054511   -3.828190   -0.306238
     25          6           0       -3.057871    0.901024   -0.219236
     26          6           0       -2.761682    2.120313    0.654601
     27          6           0       -3.023000    3.442539   -0.067360
     28          1           0       -2.442177    0.951604   -1.127948
     29          1           0       -4.105173    0.939747   -0.548788
     30          1           0       -1.715017    2.078584    0.982268
     31          1           0       -3.376739    2.066737    1.562042
     32          1           0       -4.069971    3.510284   -0.380192
     33          1           0       -2.398807    3.522197   -0.963261
     34          1           0       -2.804801    4.300960    0.575572
 ---------------------------------------------------------------------

 SCF Done:  E(RHF) =  -669.536232391     A.U. after   15 cycles
 E2 =    -0.2093594731D+01 EUMP2 =    -0.67162982712137D+03

 The electronic state is 1-A.
 Alpha  occ. eigenvalues --  -20.61136 -20.61131 -15.86138 -11.31395 -11.27948
 Alpha  occ. eigenvalues --  -11.27942 -11.27666 -11.26938 -11.26928 -11.21516
 Alpha  occ. eigenvalues --  -11.21187 -11.20997 -11.20444 -11.20239 -11.19477
 Alpha  occ. eigenvalues --   -1.60185  -1.39746  -1.19554  -1.08973  -1.07793
 Alpha  occ. eigenvalues --   -1.04938  -1.02778  -0.95827  -0.95263  -0.86342
 Alpha  occ. eigenvalues --   -0.86290  -0.82667  -0.78992  -0.77732  -0.77447
 Alpha  occ. eigenvalues --   -0.72402  -0.71496  -0.70661  -0.65232  -0.64949
 Alpha  occ. eigenvalues --   -0.64392  -0.62276  -0.60114  -0.58779  -0.56838
 Alpha  occ. eigenvalues --   -0.55444  -0.54570  -0.53269  -0.53018  -0.51996
 Alpha  occ. eigenvalues --   -0.51683  -0.49481  -0.49112  -0.48855  -0.47257
 Alpha  occ. eigenvalues --   -0.46052  -0.45469  -0.44944  -0.44516  -0.43054
 Alpha  occ. eigenvalues --   -0.37525  -0.36531
 Alpha virt. eigenvalues --    0.04744   0.11078   0.16225   0.19818   0.22930
 Alpha virt. eigenvalues --    0.25158   0.26163   0.27594   0.27882   0.28472
 Alpha virt. eigenvalues --    0.29350   0.31130   0.32099   0.32245   0.32822

 Mulliken charges:
               1
     1  C   -0.170189
     2  C   -0.218588
     3  C   -0.170174
     4  C    0.157084
     5  C   -0.173280
     6  C   -0.219365
     7  H    0.226571
     8  H    0.224257
     9  H    0.276079
    10  H    0.279176
    11  H    0.225018
    12  N    0.492548
    13  O   -0.462986
    14  O   -0.457338
    15  C   -0.298070
    16  C   -0.295877
    17  C   -0.478434
    18  H    0.153597
    19  H    0.144465
    20  H    0.163989
    21  H    0.142420
    22  H    0.144325
    23  H    0.173978
    24  H    0.156328
    25  C   -0.298916
    26  C   -0.299929
    27  C   -0.474234
    28  H    0.143793
    29  H    0.149682
    30  H    0.146244
    31  H    0.153869
    32  H    0.157629
    33  H    0.148200
    34  H    0.158126
 Sum of Mulliken charges =  -0.00000

 Dipole moment (field-independent basis, Debye):
    X=              2.9178    Y=              4.3511    Z=              0.3274  Tot=              5.2491
 Quadrupole moment (field-independent basis, Debye-Ang):
   XX=            -80.6726   YY=            -98.9727   ZZ=            -94.7327
   XY=              6.9465   XZ=              2.2748   YZ=             -1.3748

 Normal termination of Gaussian 16 at Thu May  6 19:24:04 2021.
