 Gaussian 16, Revision A.03,
 Gaussian 16:  EM64L-G16RevA.03 25-Dec-2016

 -------------
 #p 6-31g* mp2
 -------------

 ------------------------------------------------------
 Input file generated by CHIRIPA (05-May-2021 14:53:18)
 ------------------------------------------------------
 Symbolic Z-matrix:
 Charge =  0 Multiplicity = 1

                         Standard orientation:
 ---------------------------------------------------------------------
 Center     Atomic      Atomic             Coordinates (Angstroms)
 Number     Number       Type             X           Y           Z
 ---------------------------------------------------------------------
      1          6           0       -5.246953   -0.302508    0.057330
      2          6           0       -6.419145   -0.226414   -0.921526
      3          6           0       -7.498645   -1.270178   -0.633375
      4          1           0       -4.807042   -1.308316    0.015204
      5          1           0       -5.623723   -0.168755    1.080829
      6          1           0       -6.040090   -0.358890   -1.942988
      7          1           0       -6.856195    0.779388   -0.877204
      8          1           0       -7.904433   -1.136539    0.374632
      9          1           0       -7.083690   -2.281285   -0.697207
     10          1           0       -8.327091   -1.197904   -1.344933
     11          6           0       -4.159627    0.734676   -0.217803
     12          6           0       -2.987434    0.658582    0.761054
     13          6           0       -1.907934    1.702346    0.472902
     14          1           0       -3.782856    0.600924   -1.241301
     15          1           0       -4.599537    1.740484   -0.175677
     16          1           0       -2.550384   -0.347220    0.716732
     17          1           0       -3.366489    0.791058    1.782515
     18          1           0       -2.322889    2.713453    0.536734
     19          1           0       -1.502146    1.568708   -0.535105
     20          1           0       -1.079489    1.630072    1.184460
     21          6           0        1.441667   -0.270087    1.233314
     22          6           0        1.886843    0.933991    0.677854
     23          6           0        3.122265    1.001756    0.026939
     24          6           0        3.890301   -0.159025   -0.050488
     25          6           0        3.474286   -1.373512    0.492875
     26          6           0        2.235411   -1.417971    1.139217
     27          1           0        0.480621   -0.313676    1.737184
     28          1           0        1.272520    1.827036    0.749420
     29          1           0        3.491192    1.920825   -0.411952
     30          1           0        4.108884   -2.247063    0.405627
     31          1           0        1.892226   -2.354446    1.569666
     32          7           0        5.200016   -0.099621   -0.737161
     33          8           0        5.857906   -1.136354   -0.791944
     34          8           0        5.543880    0.982549   -1.207591
 ---------------------------------------------------------------------

 SCF Done:  E(RHF) =  -669.534969336     A.U. after   15 cycles
 E2 =    -0.2091614133D+01 EUMP2 =    -0.67162658346966D+03

 The electronic state is 1-A.
 Alpha  occ. eigenvalues --  -20.60716 -20.60710 -15.85768 -11.31120 -11.27689
 Alpha  occ. eigenvalues --  -11.27672 -11.27406 -11.26707 -11.26645 -11.22672
 Alpha  occ. eigenvalues --  -11.22342 -11.22180 -11.22121 -11.22015 -11.21509
 Alpha  occ. eigenvalues --   -1.59791  -1.39345  -1.19289  -1.09201  -1.08687
 Alpha  occ. eigenvalues --   -1.04692  -1.04337  -0.96804  -0.95523  -0.87833
 Alpha  occ. eigenvalues --   -0.86084  -0.82356  -0.80422  -0.78964  -0.77407
 Alpha  occ. eigenvalues --   -0.71988  -0.71114  -0.70421  -0.65821  -0.64949
 Alpha  occ. eigenvalues --   -0.64746  -0.62093  -0.61706  -0.60174  -0.58391
 Alpha  occ. eigenvalues --   -0.56054  -0.55185  -0.53594  -0.53213  -0.53010
 Alpha  occ. eigenvalues --   -0.52702  -0.50708  -0.48758  -0.48743  -0.48713
 Alpha  occ. eigenvalues --   -0.47425  -0.46517  -0.46404  -0.44754  -0.44581
 Alpha  occ. eigenvalues --   -0.37262  -0.36290
 Alpha virt. eigenvalues --    0.05118   0.11332   0.16592   0.19841   0.22410
 Alpha virt. eigenvalues --    0.23822   0.25799   0.26022   0.26301   0.27489
 Alpha virt. eigenvalues --    0.28916   0.29793   0.30564   0.31374   0.31872

 Mulliken charges:
               1
     1  C   -0.298904
     2  C   -0.300317
     3  C   -0.476111
     4  H    0.149759
     5  H    0.150155
     6  H    0.153196
     7  H    0.152957
     8  H    0.155584
     9  H    0.155562
    10  H    0.162064
    11  C   -0.299349
    12  C   -0.301182
    13  C   -0.480243
    14  H    0.152132
    15  H    0.151997
    16  H    0.149393
    17  H    0.153887
    18  H    0.161022
    19  H    0.161124
    20  H    0.148442
    21  C   -0.173606
    22  C   -0.220631
    23  C   -0.171667
    24  C    0.158481
    25  C   -0.171237
    26  C   -0.218894
    27  H    0.228102
    28  H    0.227737
    29  H    0.275432
    30  H    0.275258
    31  H    0.223042
    32  N    0.488015
    33  O   -0.460648
    34  O   -0.460552
 Sum of Mulliken charges =  -0.00000

 Dipole moment (field-independent basis, Debye):
    X=             -4.8788    Y=             -0.1842    Z=              2.3471  Tot=              5.4171
 Quadrupole moment (field-independent basis, Debye-Ang):
   XX=           -130.9716   YY=            -89.9721   ZZ=            -95.3100
   XY=             -1.8808   XZ=              9.7702   YZ=             -1.0618

 Normal termination of Gaussian 16 at Thu May  6 10:44:04 2021.
