 Gaussian 16, Revision A.03,
 Gaussian 16:  EM64L-G16RevA.03 25-Dec-2016

 -------------
 #p 6-31g* mp2
 -------------

 ------------------------------------------------------
 Input file generated by CHIRIPA (05-May-2021 14:51:11)
 ------------------------------------------------------
 Symbolic Z-matrix:
 Charge =  0 Multiplicity = 1

                         Standard orientation:
 ---------------------------------------------------------------------
 Center     Atomic      Atomic             Coordinates (Angstroms)
 Number     Number       Type             X           Y           Z
 ---------------------------------------------------------------------
      1          6           0       -4.104450   -0.583455    0.258358
      2          6           0       -5.046135   -0.415641   -0.934560
      3          6           0       -6.083510   -1.534741   -1.030810
      4          1           0       -3.593780   -1.553058    0.180697
      5          1           0       -4.697334   -0.615612    1.182938
      6          1           0       -4.451546   -0.382421   -1.856501
      7          1           0       -5.554480    0.553759   -0.854151
      8          1           0       -6.701404   -1.565988   -0.127576
      9          1           0       -5.592204   -2.507487   -1.135621
     10          1           0       -6.746220   -1.394992   -1.890545
     11          6           0       -3.061716    0.527584    0.368035
     12          6           0       -2.120030    0.359770    1.560952
     13          6           0       -1.082656    1.478870    1.657202
     14          1           0       -2.468831    0.559741   -0.556546
     15          1           0       -3.572385    1.497187    0.445695
     16          1           0       -1.611686   -0.609630    1.480543
     17          1           0       -2.714620    0.326550    2.482893
     18          1           0       -1.573962    2.451616    1.762013
     19          1           0       -0.464762    1.510117    0.753968
     20          1           0       -0.419946    1.339121    2.516938
     21          6           0        3.883278   -0.635344   -0.544227
     22          6           0        4.327959   -1.534369    0.609895
     23          6           0        4.926411   -2.857625    0.131729
     24          1           0        3.146133   -1.172863   -1.156302
     25          1           0        4.744534   -0.434877   -1.196490
     26          1           0        3.466431   -1.731950    1.260547
     27          1           0        5.063988   -0.994576    1.219404
     28          1           0        5.802359   -2.678300   -0.500060
     29          1           0        4.195726   -3.419863   -0.458684
     30          1           0        5.237551   -3.484786    0.972991
     31          6           0        3.282887    0.691215   -0.082165
     32          6           0        2.838207    1.590240   -1.236287
     33          6           0        2.239755    2.913496   -0.758122
     34          1           0        2.421632    0.490748    0.570097
     35          1           0        4.020032    1.228734    0.529910
     36          1           0        2.102178    1.050448   -1.845796
     37          1           0        3.699735    1.787821   -1.886940
     38          1           0        2.970441    3.475734   -0.167709
     39          1           0        1.363807    2.734171   -0.126331
     40          1           0        1.928615    3.540657   -1.599383
 ---------------------------------------------------------------------

 SCF Done:  E(RHF) =  -470.733258886     A.U. after   11 cycles
 E2 =    -0.1582604081D+01 EUMP2 =    -0.47231586296736D+03

 The electronic state is 1-A.
 Alpha  occ. eigenvalues --  -11.21663 -11.21629 -11.21597 -11.21583 -11.21446
 Alpha  occ. eigenvalues --  -11.21389 -11.21386 -11.21327 -11.21141 -11.21093
 Alpha  occ. eigenvalues --  -11.21071 -11.20992  -1.08475  -1.08414  -1.03583
 Alpha  occ. eigenvalues --   -1.03507  -0.96039  -0.95949  -0.87063  -0.86959
 Alpha  occ. eigenvalues --   -0.79670  -0.79547  -0.78290  -0.78220  -0.65143
 Alpha  occ. eigenvalues --   -0.65019  -0.61088  -0.60820  -0.59394  -0.59326
 Alpha  occ. eigenvalues --   -0.57679  -0.57537  -0.55429  -0.55152  -0.52727
 Alpha  occ. eigenvalues --   -0.52650  -0.52532  -0.52305  -0.50089  -0.49801
 Alpha  occ. eigenvalues --   -0.48031  -0.47814  -0.46772  -0.46500  -0.45857
 Alpha  occ. eigenvalues --   -0.45778  -0.45743  -0.45592  -0.43828  -0.43765
 Alpha virt. eigenvalues --    0.21083   0.23092   0.23649   0.24765   0.26098
 Alpha virt. eigenvalues --    0.26774   0.27189   0.27413   0.27967   0.29037
 Alpha virt. eigenvalues --    0.30491   0.31629   0.31684   0.31777   0.32080

 Mulliken charges:
               1
     1  C   -0.298328
     2  C   -0.299694
     3  C   -0.475733
     4  H    0.149580
     5  H    0.149674
     6  H    0.151950
     7  H    0.152072
     8  H    0.155245
     9  H    0.155177
    10  H    0.160370
    11  C   -0.298454
    12  C   -0.299644
    13  C   -0.481933
    14  H    0.149475
    15  H    0.149971
    16  H    0.151647
    17  H    0.152331
    18  H    0.156056
    19  H    0.160171
    20  H    0.160992
    21  C   -0.298150
    22  C   -0.299628
    23  C   -0.475676
    24  H    0.149221
    25  H    0.149544
    26  H    0.151856
    27  H    0.152011
    28  H    0.155208
    29  H    0.155024
    30  H    0.160237
    31  C   -0.300215
    32  C   -0.299221
    33  C   -0.482735
    34  H    0.151307
    35  H    0.149761
    36  H    0.150800
    37  H    0.151957
    38  H    0.155208
    39  H    0.162686
    40  H    0.159884
 Sum of Mulliken charges =  -0.00000

 Dipole moment (field-independent basis, Debye):
    X=             -0.0314    Y=              0.0096    Z=              0.0230  Tot=              0.0400
 Quadrupole moment (field-independent basis, Debye-Ang):
   XX=            -84.3411   YY=            -85.8574   ZZ=            -84.5426
   XY=             -0.1211   XZ=             -0.4502   YZ=              0.0276

 Normal termination of Gaussian 16 at Wed May  5 21:27:35 2021.
