 Gaussian 16, Revision A.03,
 Gaussian 16:  EM64L-G16RevA.03 25-Dec-2016

 -------------
 #p 6-31g* mp2
 -------------

 ------------------------------------------------------
 Input file generated by CHIRIPA (05-May-2021 14:57:25)
 ------------------------------------------------------
 Symbolic Z-matrix:
 Charge =  0 Multiplicity = 1

                         Standard orientation:
 ---------------------------------------------------------------------
 Center     Atomic      Atomic             Coordinates (Angstroms)
 Number     Number       Type             X           Y           Z
 ---------------------------------------------------------------------
      1          6           0       -2.141162    2.672635    0.110921
      2          6           0       -1.239572    1.603327    0.095526
      3          6           0       -1.698322    0.289731   -0.040715
      4          6           0       -3.071444    0.080804   -0.159775
      5          6           0       -3.994723    1.125173   -0.147939
      6          6           0       -3.513440    2.430572   -0.010646
      7          1           0       -1.776042    3.689884    0.217164
      8          1           0       -0.173298    1.788334    0.189746
      9          1           0       -1.022402   -0.556629   -0.055724
     10          1           0       -5.051900    0.909323   -0.243870
     11          1           0       -4.215939    3.259068    0.000986
     12          7           0       -3.569029   -1.305502   -0.304564
     13          8           0       -4.783595   -1.463035   -0.407761
     14          8           0       -2.735048   -2.208307   -0.312110
     15          6           0        1.286070   -1.992136    0.931196
     16          6           0        1.304775   -0.704036    1.476144
     17          6           0        2.244087    0.236545    1.043075
     18          6           0        3.154111   -0.146593    0.059027
     19          6           0        3.160832   -1.422154   -0.503279
     20          6           0        2.212525   -2.346459   -0.055038
     21          1           0        0.552895   -2.716480    1.273507
     22          1           0        0.586482   -0.426078    2.242199
     23          1           0        2.280943    1.240636    1.447873
     24          1           0        3.889557   -1.669885   -1.265517
     25          1           0        2.200344   -3.346093   -0.480042
     26          7           0        4.153281    0.840544   -0.407474
     27          8           0        4.944296    0.478220   -1.275607
     28          8           0        4.126495    1.957893    0.103848
 ---------------------------------------------------------------------

 SCF Done:  E(RHF) =  -868.337762857     A.U. after   16 cycles
 E2 =    -0.2603108200D+01 EUMP2 =    -0.87094087105687D+03

 The electronic state is 1-A.
 Alpha  occ. eigenvalues --  -20.61374 -20.61349 -20.61318 -20.61273 -15.86419
 Alpha  occ. eigenvalues --  -15.86341 -11.31864 -11.31524 -11.28474 -11.28325
 Alpha  occ. eigenvalues --  -11.28092 -11.27976 -11.27968 -11.27786 -11.27420
 Alpha  occ. eigenvalues --  -11.27299 -11.27060 -11.27005  -1.60439  -1.60369
 Alpha  occ. eigenvalues --   -1.39991  -1.39931  -1.20033  -1.19689  -1.09375
 Alpha  occ. eigenvalues --   -1.09118  -1.05478  -1.05026  -0.96201  -0.95973
 Alpha  occ. eigenvalues --   -0.86821  -0.86450  -0.83059  -0.82782  -0.78152
 Alpha  occ. eigenvalues --   -0.77843  -0.72632  -0.72568  -0.71768  -0.71688
 Alpha  occ. eigenvalues --   -0.71014  -0.70790  -0.65680  -0.65442  -0.65305
 Alpha  occ. eigenvalues --   -0.64994  -0.62861  -0.62358  -0.55765  -0.55605
 Alpha  occ. eigenvalues --   -0.53701  -0.53531  -0.53341  -0.53114  -0.49399
 Alpha  occ. eigenvalues --   -0.49383  -0.49327  -0.49296  -0.45381  -0.45375
 Alpha  occ. eigenvalues --   -0.37949  -0.37673  -0.37158  -0.36527
 Alpha virt. eigenvalues --    0.04365   0.04599   0.10429   0.11044   0.15683
 Alpha virt. eigenvalues --    0.16245   0.20430   0.21837   0.25955   0.27346
 Alpha virt. eigenvalues --    0.28128   0.28496   0.30838   0.31016   0.31807

 Mulliken charges:
               1
     1  C   -0.170438
     2  C   -0.227840
     3  C   -0.181168
     4  C    0.157209
     5  C   -0.170208
     6  C   -0.219066
     7  H    0.228870
     8  H    0.226963
     9  H    0.282501
    10  H    0.275967
    11  H    0.224910
    12  N    0.488576
    13  O   -0.457650
    14  O   -0.468053
    15  C   -0.177587
    16  C   -0.228920
    17  C   -0.181319
    18  C    0.159937
    19  C   -0.170692
    20  C   -0.216268
    21  H    0.242323
    22  H    0.230000
    23  H    0.273034
    24  H    0.278622
    25  H    0.231157
    26  N    0.488198
    27  O   -0.456650
    28  O   -0.462409
 Sum of Mulliken charges =  -0.00000

 Dipole moment (field-independent basis, Debye):
    X=             -1.6133    Y=              1.2044    Z=              2.1067  Tot=              2.9140
 Quadrupole moment (field-independent basis, Debye-Ang):
   XX=           -132.8365   YY=           -100.1827   ZZ=           -103.9990
   XY=            -29.5455   XZ=              1.9017   YZ=              1.0112

 Normal termination of Gaussian 16 at Thu May  6 05:09:57 2021.
