 Gaussian 16, Revision A.03,
 Gaussian 16:  EM64L-G16RevA.03 25-Dec-2016

 -------------
 #p 6-31g* mp2
 -------------

 ------------------------------------------------------
 Input file generated by CHIRIPA (05-May-2021 14:51:11)
 ------------------------------------------------------
 Symbolic Z-matrix:
 Charge =  0 Multiplicity = 1

                         Standard orientation:
 ---------------------------------------------------------------------
 Center     Atomic      Atomic             Coordinates (Angstroms)
 Number     Number       Type             X           Y           Z
 ---------------------------------------------------------------------
      1          6           0       -3.367679    0.597838    0.341848
      2          6           0       -3.813229    1.332000   -0.923251
      3          6           0       -4.503418    2.662760   -0.622399
      4          1           0       -4.242054    0.422231    0.983390
      5          1           0       -2.686489    1.244574    0.912031
      6          1           0       -4.492288    0.683535   -1.491571
      7          1           0       -2.937721    1.505710   -1.561943
      8          1           0       -3.830141    3.331000   -0.075815
      9          1           0       -5.393540    2.504154   -0.005044
     10          1           0       -4.813663    3.170758   -1.540847
     11          6           0       -2.676040   -0.734255    0.057432
     12          6           0       -2.230490   -1.468417    1.322531
     13          6           0       -1.540301   -2.799176    1.021679
     14          1           0       -3.357230   -1.380990   -0.512751
     15          1           0       -1.801665   -0.558648   -0.584110
     16          1           0       -3.105998   -1.642126    1.961223
     17          1           0       -1.551431   -0.819952    1.890851
     18          1           0       -0.650178   -2.640570    0.404323
     19          1           0       -2.213577   -3.467417    0.475095
     20          1           0       -1.230056   -3.307174    1.940126
     21          6           0        2.829978   -0.417154   -0.757347
     22          6           0        2.351788   -1.774879   -0.241691
     23          6           0        1.971546   -2.734956   -1.369281
     24          1           0        2.039518    0.033112   -1.373285
     25          1           0        3.694217   -0.567725   -1.419023
     26          1           0        1.489567   -1.621676    0.419913
     27          1           0        3.143405   -2.221879    0.373249
     28          1           0        2.828703   -2.917189   -2.025538
     29          1           0        1.165469   -2.313576   -1.978609
     30          1           0        1.632587   -3.699346   -0.978234
     31          6           0        3.213741    0.553570    0.358067
     32          6           0        3.691931    1.911295   -0.157589
     33          6           0        4.072174    2.871373    0.970001
     34          1           0        2.349503    0.704142    1.019744
     35          1           0        4.004200    0.103304    0.974005
     36          1           0        2.900314    2.358295   -0.772529
     37          1           0        4.554152    1.758092   -0.819193
     38          1           0        4.878250    2.449992    1.579329
     39          1           0        3.215016    3.053606    1.626258
     40          1           0        4.411132    3.835762    0.578954
 ---------------------------------------------------------------------

 SCF Done:  E(RHF) =  -470.733120858     A.U. after   11 cycles
 E2 =    -0.1583136889D+01 EUMP2 =    -0.47231625774741D+03

 The electronic state is 1-A.
 Alpha  occ. eigenvalues --  -11.21637 -11.21634 -11.21626 -11.21623 -11.21446
 Alpha  occ. eigenvalues --  -11.21442 -11.21387 -11.21383 -11.21101 -11.21100
 Alpha  occ. eigenvalues --  -11.21097 -11.21022  -1.08483  -1.08450  -1.03601
 Alpha  occ. eigenvalues --   -1.03520  -0.96053  -0.95964  -0.87042  -0.87003
 Alpha  occ. eigenvalues --   -0.79651  -0.79593  -0.78295  -0.78263  -0.65230
 Alpha  occ. eigenvalues --   -0.64993  -0.61215  -0.60747  -0.59391  -0.59359
 Alpha  occ. eigenvalues --   -0.57698  -0.57544  -0.55462  -0.55120  -0.52726
 Alpha  occ. eigenvalues --   -0.52677  -0.52463  -0.52371  -0.49973  -0.49927
 Alpha  occ. eigenvalues --   -0.47983  -0.47891  -0.46768  -0.46536  -0.45885
 Alpha  occ. eigenvalues --   -0.45791  -0.45751  -0.45649  -0.43822  -0.43806
 Alpha virt. eigenvalues --    0.20277   0.23371   0.23493   0.24782   0.26173
 Alpha virt. eigenvalues --    0.26817   0.26939   0.27870   0.27982   0.28945
 Alpha virt. eigenvalues --    0.31044   0.31234   0.31598   0.31695   0.32115

 Mulliken charges:
               1
     1  C   -0.298271
     2  C   -0.299630
     3  C   -0.475720
     4  H    0.149927
     5  H    0.149242
     6  H    0.152108
     7  H    0.151649
     8  H    0.155139
     9  H    0.155302
    10  H    0.160367
    11  C   -0.298296
    12  C   -0.299903
    13  C   -0.484348
    14  H    0.149944
    15  H    0.148645
    16  H    0.152258
    17  H    0.151216
    18  H    0.165495
    19  H    0.155180
    20  H    0.159990
    21  C   -0.297785
    22  C   -0.305438
    23  C   -0.477466
    24  H    0.148983
    25  H    0.149836
    26  H    0.156058
    27  H    0.152553
    28  H    0.155926
    29  H    0.155096
    30  H    0.161858
    31  C   -0.298272
    32  C   -0.299666
    33  C   -0.475712
    34  H    0.149118
    35  H    0.149948
    36  H    0.151774
    37  H    0.152121
    38  H    0.155319
    39  H    0.155065
    40  H    0.160388
 Sum of Mulliken charges =  -0.00000

 Dipole moment (field-independent basis, Debye):
    X=              0.0155    Y=             -0.0170    Z=             -0.0061  Tot=              0.0238
 Quadrupole moment (field-independent basis, Debye-Ang):
   XX=            -83.2943   YY=            -86.0081   ZZ=            -85.3181
   XY=              0.3047   XZ=             -0.2378   YZ=             -0.6043

 Normal termination of Gaussian 16 at Wed May  5 21:28:28 2021.
