 Gaussian 16, Revision A.03,
 Gaussian 16:  EM64L-G16RevA.03 25-Dec-2016

 -------------
 #p 6-31g* mp2
 -------------

 ------------------------------------------------------
 Input file generated by CHIRIPA (05-May-2021 14:57:24)
 ------------------------------------------------------
 Symbolic Z-matrix:
 Charge =  0 Multiplicity = 1

                         Standard orientation:
 ---------------------------------------------------------------------
 Center     Atomic      Atomic             Coordinates (Angstroms)
 Number     Number       Type             X           Y           Z
 ---------------------------------------------------------------------
      1          6           0       -1.396438    0.027306    1.341201
      2          6           0       -1.785609   -1.128339    0.655962
      3          6           0       -3.017947   -1.182561   -0.002028
      4          6           0       -3.840042   -0.057771    0.045882
      5          6           0       -3.480518    1.108159    0.720152
      6          6           0       -2.243641    1.139905    1.371056
      7          1           0       -0.437366    0.060697    1.849591
      8          1           0       -1.129694   -1.993904    0.631096
      9          1           0       -3.344127   -2.064400   -0.539974
     10          1           0       -4.155801    1.955131    0.727236
     11          1           0       -1.944016    2.038738    1.902440
     12          7           0       -5.147066   -0.103276   -0.646952
     13          8           0       -5.853236    0.901061   -0.589797
     14          8           0       -5.440591   -1.142419   -1.234031
     15          6           0        3.903321   -2.444082    0.097721
     16          6           0        5.018148   -1.637388   -0.153127
     17          6           0        4.875542   -0.254167   -0.297742
     18          6           0        3.597686    0.291416   -0.184992
     19          6           0        2.467622   -0.485768    0.064467
     20          6           0        2.633854   -1.866716    0.205528
     21          1           0        4.023277   -3.517718    0.208681
     22          1           0        6.005241   -2.083035   -0.237345
     23          1           0        5.721544    0.393772   -0.492355
     24          1           0        1.496362   -0.012618    0.143214
     25          1           0        1.766276   -2.490749    0.400297
     26          7           0        3.434210    1.754566   -0.336208
     27          8           0        2.297676    2.210821   -0.232480
     28          8           0        4.445706    2.417424   -0.555596
 ---------------------------------------------------------------------

 SCF Done:  E(RHF) =  -868.337103171     A.U. after   16 cycles
 E2 =    -0.2600541818D+01 EUMP2 =    -0.87093764498897D+03

 The electronic state is 1-A.
 Alpha  occ. eigenvalues --  -20.61459 -20.61435 -20.60908 -20.60894 -15.86507
 Alpha  occ. eigenvalues --  -15.85960 -11.31935 -11.31418 -11.28567 -11.28470
 Alpha  occ. eigenvalues --  -11.28254 -11.28045 -11.27920 -11.27801 -11.27637
 Alpha  occ. eigenvalues --  -11.27481 -11.27203 -11.26939  -1.60523  -1.59976
 Alpha  occ. eigenvalues --   -1.40076  -1.39527  -1.20118  -1.19602  -1.09492
 Alpha  occ. eigenvalues --   -1.09001  -1.05549  -1.05014  -0.96320  -0.95813
 Alpha  occ. eigenvalues --   -0.86936  -0.86425  -0.83163  -0.82640  -0.78213
 Alpha  occ. eigenvalues --   -0.77656  -0.72726  -0.72179  -0.71847  -0.71298
 Alpha  occ. eigenvalues --   -0.71279  -0.70692  -0.65778  -0.65569  -0.65268
 Alpha  occ. eigenvalues --   -0.65051  -0.62906  -0.62342  -0.56038  -0.55557
 Alpha  occ. eigenvalues --   -0.53847  -0.53670  -0.53292  -0.53106  -0.49488
 Alpha  occ. eigenvalues --   -0.49473  -0.48945  -0.48926  -0.45468  -0.44912
 Alpha  occ. eigenvalues --   -0.38079  -0.37602  -0.37151  -0.36594
 Alpha virt. eigenvalues --    0.04332   0.04830   0.10483   0.10982   0.15814
 Alpha virt. eigenvalues --    0.16166   0.18094   0.22200   0.24604   0.26396
 Alpha virt. eigenvalues --    0.27871   0.29175   0.30139   0.31429   0.32626

 Mulliken charges:
               1
     1  C   -0.174269
     2  C   -0.220836
     3  C   -0.169898
     4  C    0.159766
     5  C   -0.169894
     6  C   -0.215004
     7  H    0.224545
     8  H    0.214882
     9  H    0.275573
    10  H    0.278232
    11  H    0.230656
    12  N    0.488013
    13  O   -0.458240
    14  O   -0.460605
    15  C   -0.169971
    16  C   -0.218220
    17  C   -0.169251
    18  C    0.159452
    19  C   -0.178496
    20  C   -0.220683
    21  H    0.227981
    22  H    0.226425
    23  H    0.278015
    24  H    0.276025
    25  H    0.217572
    26  N    0.487743
    27  O   -0.462361
    28  O   -0.457154
 Sum of Mulliken charges =  -0.00000

 Dipole moment (field-independent basis, Debye):
    X=              5.2147    Y=             -4.8026    Z=              2.9464  Tot=              7.6772
 Quadrupole moment (field-independent basis, Debye-Ang):
   XX=           -129.7896   YY=           -103.9189   ZZ=           -105.7995
   XY=            -20.4475   XZ=             -8.8080   YZ=              2.7285

 Normal termination of Gaussian 16 at Fri May  7 12:37:25 2021.
