 Gaussian 16, Revision A.03,
 Gaussian 16:  EM64L-G16RevA.03 25-Dec-2016

 -------------
 #p 6-31g* mp2
 -------------

 ------------------------------------------------------
 Input file generated by CHIRIPA (05-May-2021 14:57:27)
 ------------------------------------------------------
 Symbolic Z-matrix:
 Charge =  0 Multiplicity = 1

                         Standard orientation:
 ---------------------------------------------------------------------
 Center     Atomic      Atomic             Coordinates (Angstroms)
 Number     Number       Type             X           Y           Z
 ---------------------------------------------------------------------
      1          6           0        4.433986   -2.325015   -0.425655
      2          6           0        5.303656   -1.298659   -0.808783
      3          6           0        4.941842    0.040505   -0.634772
      4          6           0        3.697152    0.318519   -0.071973
      5          6           0        2.808762   -0.681764    0.319802
      6          6           0        3.191505   -2.013841    0.136424
      7          1           0        4.723180   -3.362557   -0.564469
      8          1           0        6.269209   -1.537360   -1.245559
      9          1           0        5.595774    0.854753   -0.922506
     10          1           0        1.852854   -0.412613    0.752486
     11          1           0        2.514081   -2.808860    0.434897
     12          7           0        3.303037    1.732480    0.117203
     13          8           0        2.200888    1.951068    0.615323
     14          8           0        4.103743    2.595381   -0.236222
     15          6           0       -1.513389   -0.325806    1.221827
     16          6           0       -2.324791   -1.449364    1.032712
     17          6           0       -3.572630   -1.327998    0.414071
     18          6           0       -3.979504   -0.062248   -0.004999
     19          6           0       -3.193873    1.076058    0.169171
     20          6           0       -1.949750    0.931103    0.790214
     21          1           0       -0.545481   -0.429248    1.703335
     22          1           0       -1.988486   -2.426741    1.366895
     23          1           0       -4.220899   -2.181163    0.255089
     24          1           0       -3.556292    2.037237   -0.174637
     25          1           0       -1.321713    1.805419    0.935766
     26          7           0       -5.298568    0.078724   -0.661197
     27          8           0       -5.634083    1.204927   -1.021382
     28          8           0       -5.971960   -0.939656   -0.802915
 ---------------------------------------------------------------------

 SCF Done:  E(RHF) =  -868.338186302     A.U. after   16 cycles
 E2 =    -0.2599603596D+01 EUMP2 =    -0.87093778989772D+03

 The electronic state is 1-A.
 Alpha  occ. eigenvalues --  -20.61677 -20.61625 -20.60654 -20.60641 -15.86705
 Alpha  occ. eigenvalues --  -15.85699 -11.31985 -11.31074 -11.28637 -11.28483
 Alpha  occ. eigenvalues --  -11.28224 -11.27657 -11.27569 -11.27528 -11.27472
 Alpha  occ. eigenvalues --  -11.27422 -11.26762 -11.26490  -1.60715  -1.59724
 Alpha  occ. eigenvalues --   -1.40278  -1.39277  -1.20138  -1.19229  -1.09537
 Alpha  occ. eigenvalues --   -1.08642  -1.05541  -1.04610  -0.96397  -0.95481
 Alpha  occ. eigenvalues --   -0.86940  -0.86010  -0.83243  -0.82296  -0.78316
 Alpha  occ. eigenvalues --   -0.77324  -0.72936  -0.72025  -0.71918  -0.71275
 Alpha  occ. eigenvalues --   -0.71045  -0.70381  -0.65798  -0.65546  -0.64880
 Alpha  occ. eigenvalues --   -0.64586  -0.62913  -0.61933  -0.56034  -0.55188
 Alpha  occ. eigenvalues --   -0.53851  -0.53620  -0.52959  -0.52682  -0.49698
 Alpha  occ. eigenvalues --   -0.49656  -0.48676  -0.48673  -0.45701  -0.44681
 Alpha  occ. eigenvalues --   -0.38086  -0.37255  -0.37122  -0.36199
 Alpha virt. eigenvalues --    0.04240   0.05145   0.10527   0.11440   0.15763
 Alpha virt. eigenvalues --    0.16498   0.18967   0.22009   0.25153   0.26869
 Alpha virt. eigenvalues --    0.27712   0.29330   0.30441   0.30925   0.32723

 Mulliken charges:
               1
     1  C   -0.169757
     2  C   -0.218286
     3  C   -0.169187
     4  C    0.158806
     5  C   -0.172843
     6  C   -0.219173
     7  H    0.228267
     8  H    0.226478
     9  H    0.277835
    10  H    0.271005
    11  H    0.221652
    12  N    0.489069
    13  O   -0.469696
    14  O   -0.454968
    15  C   -0.176341
    16  C   -0.218732
    17  C   -0.171986
    18  C    0.159420
    19  C   -0.171860
    20  C   -0.219777
    21  H    0.221905
    22  H    0.218133
    23  H    0.274262
    24  H    0.277573
    25  H    0.240997
    26  N    0.487909
    27  O   -0.459096
    28  O   -0.461608
 Sum of Mulliken charges =  -0.00000

 Dipole moment (field-independent basis, Debye):
    X=              6.2955    Y=             -5.3196    Z=              1.5242  Tot=              8.3818
 Quadrupole moment (field-independent basis, Debye-Ang):
   XX=           -127.1518   YY=           -102.9376   ZZ=           -105.5800
   XY=            -14.6539   XZ=            -14.2706   YZ=             -1.0571

 Normal termination of Gaussian 16 at Wed May  5 22:53:06 2021.
