 Gaussian 16, Revision A.03,
 Gaussian 16:  EM64L-G16RevA.03 25-Dec-2016

 -------------
 #p 6-31g* mp2
 -------------

 ------------------------------------------------------
 Input file generated by CHIRIPA (05-May-2021 14:57:24)
 ------------------------------------------------------
 Symbolic Z-matrix:
 Charge =  0 Multiplicity = 1

                         Standard orientation:
 ---------------------------------------------------------------------
 Center     Atomic      Atomic             Coordinates (Angstroms)
 Number     Number       Type             X           Y           Z
 ---------------------------------------------------------------------
      1          6           0       -1.298608   -0.940987   -0.040753
      2          6           0       -2.286398   -1.832235   -0.472573
      3          6           0       -3.631902   -1.452583   -0.478176
      4          6           0       -3.955514   -0.168245   -0.043388
      5          6           0       -2.994363    0.742429    0.392674
      6          6           0       -1.655114    0.341240    0.389733
      7          1           0       -0.255818   -1.244275   -0.039719
      8          1           0       -2.012452   -2.828660   -0.807438
      9          1           0       -4.416919   -2.122526   -0.807333
     10          1           0       -3.298227    1.729065    0.720750
     11          1           0       -0.890111    1.035494    0.725629
     12          7           0       -5.376628    0.245076   -0.044798
     13          8           0       -5.635743    1.382194    0.343092
     14          8           0       -6.204473   -0.575908   -0.433766
     15          6           0        2.591906    2.487731   -0.104329
     16          6           0        3.608879    2.154409   -1.004988
     17          6           0        4.241631    0.909848   -0.932598
     18          6           0        3.830483    0.018711    0.057414
     19          6           0        2.820415    0.321485    0.969214
     20          6           0        2.201608    1.571819    0.878165
     21          1           0        2.105786    3.456778   -0.167812
     22          1           0        3.914051    2.863738   -1.769035
     23          1           0        5.031731    0.625927   -1.617104
     24          1           0        2.537920   -0.406474    1.720008
     25          1           0        1.412106    1.827969    1.578963
     26          7           0        4.492967   -1.301906    0.143927
     27          8           0        4.112411   -2.069383    1.025286
     28          8           0        5.380234   -1.544523   -0.671261
 ---------------------------------------------------------------------

 SCF Done:  E(RHF) =  -868.337499233     A.U. after   16 cycles
 E2 =    -0.2600238230D+01 EUMP2 =    -0.87093773746285D+03

 The electronic state is 1-A.
 Alpha  occ. eigenvalues --  -20.61664 -20.61644 -20.61005 -20.60994 -15.86717
 Alpha  occ. eigenvalues --  -15.86058 -11.32215 -11.31450 -11.28869 -11.28748
 Alpha  occ. eigenvalues --  -11.28538 -11.28081 -11.27998 -11.27922 -11.27747
 Alpha  occ. eigenvalues --  -11.27743 -11.27115 -11.26979  -1.60733  -1.60077
 Alpha  occ. eigenvalues --   -1.40282  -1.39630  -1.20404  -1.19631  -1.09762
 Alpha  occ. eigenvalues --   -1.09012  -1.05832  -1.05050  -0.96571  -0.95840
 Alpha  occ. eigenvalues --   -0.87219  -0.86441  -0.83405  -0.82683  -0.78446
 Alpha  occ. eigenvalues --   -0.77732  -0.72925  -0.72275  -0.72066  -0.71470
 Alpha  occ. eigenvalues --   -0.71402  -0.70714  -0.66047  -0.65896  -0.65282
 Alpha  occ. eigenvalues --   -0.65040  -0.63173  -0.62381  -0.56281  -0.55521
 Alpha  occ. eigenvalues --   -0.54147  -0.53930  -0.53364  -0.53099  -0.49697
 Alpha  occ. eigenvalues --   -0.49676  -0.49036  -0.49028  -0.45659  -0.45030
 Alpha  occ. eigenvalues --   -0.38364  -0.37600  -0.37438  -0.36658
 Alpha virt. eigenvalues --    0.04082   0.04821   0.10044   0.10997   0.15448
 Alpha virt. eigenvalues --    0.16305   0.19022   0.21929   0.24979   0.26641
 Alpha virt. eigenvalues --    0.27891   0.28936   0.29221   0.31083   0.32099

 Mulliken charges:
               1
     1  C   -0.172962
     2  C   -0.218599
     3  C   -0.170363
     4  C    0.158814
     5  C   -0.171821
     6  C   -0.220124
     7  H    0.229033
     8  H    0.227075
     9  H    0.276948
    10  H    0.273937
    11  H    0.215366
    12  N    0.488111
    13  O   -0.461253
    14  O   -0.459102
    15  C   -0.169935
    16  C   -0.217751
    17  C   -0.168996
    18  C    0.158484
    19  C   -0.177386
    20  C   -0.224183
    21  H    0.229296
    22  H    0.228044
    23  H    0.279115
    24  H    0.276404
    25  H    0.221295
    26  N    0.487787
    27  O   -0.460524
    28  O   -0.456710
 Sum of Mulliken charges =  -0.00000

 Dipole moment (field-independent basis, Debye):
    X=              2.9277    Y=              3.1628    Z=             -0.4676  Tot=              4.3351
 Quadrupole moment (field-independent basis, Debye-Ang):
   XX=           -160.1832   YY=           -100.1038   ZZ=           -102.2431
   XY=             25.5302   XZ=             -3.8801   YZ=              0.9691

 Normal termination of Gaussian 16 at Thu May  6 06:39:03 2021.
