 Gaussian 16, Revision A.03,
 Gaussian 16:  EM64L-G16RevA.03 25-Dec-2016

 -------------
 #p 6-31g* mp2
 -------------

 ------------------------------------------------------
 Input file generated by CHIRIPA (05-May-2021 14:51:12)
 ------------------------------------------------------
 Symbolic Z-matrix:
 Charge =  0 Multiplicity = 1

                         Standard orientation:
 ---------------------------------------------------------------------
 Center     Atomic      Atomic             Coordinates (Angstroms)
 Number     Number       Type             X           Y           Z
 ---------------------------------------------------------------------
      1          6           0       -5.050399   -0.044500   -0.198663
      2          6           0       -5.427295   -1.479428    0.171357
      3          6           0       -6.939582   -1.697112    0.229634
      4          1           0       -5.493538    0.644597    0.533264
      5          1           0       -5.495430    0.204739   -1.171917
      6          1           0       -4.980537   -1.726353    1.142980
      7          1           0       -4.983048   -2.165203   -0.561428
      8          1           0       -7.398023   -1.477697   -0.740052
      9          1           0       -7.395497   -1.036353    0.974040
     10          1           0       -7.186606   -2.729573    0.495835
     11          6           0       -3.541947    0.188779   -0.260950
     12          6           0       -3.165051    1.623708   -0.630970
     13          6           0       -1.652764    1.841391   -0.689247
     14          1           0       -3.096916   -0.060460    0.712304
     15          1           0       -3.098807   -0.500318   -0.992878
     16          1           0       -3.609298    2.309482    0.101814
     17          1           0       -3.611809    1.870633   -1.602593
     18          1           0       -1.196849    1.180632   -1.433653
     19          1           0       -1.194323    1.621976    0.280438
     20          1           0       -1.405740    2.873852   -0.955449
     21          6           0        4.783410   -0.658527    0.183090
     22          6           0        6.061605   -0.324960   -0.586933
     23          6           0        7.026388   -1.508084   -0.671823
     24          1           0        5.049214   -0.990157    1.196162
     25          1           0        4.282234   -1.507436   -0.302265
     26          1           0        6.559503    0.523954   -0.101076
     27          1           0        5.792717    0.006097   -1.598227
     28          1           0        6.552237   -2.356415   -1.175922
     29          1           0        7.323380   -1.835615    0.329736
     30          1           0        7.933277   -1.247591   -1.226401
     31          6           0        3.808936    0.514247    0.276523
     32          6           0        2.530741    0.180681    1.046547
     33          6           0        1.565958    1.363805    1.131436
     34          1           0        4.310112    1.363156    0.761879
     35          1           0        3.543132    0.845878   -0.736549
     36          1           0        2.799629   -0.150376    2.057841
     37          1           0        2.032843   -0.668233    0.560689
     38          1           0        1.268966    1.691336    0.129878
     39          1           0        2.040109    2.212136    1.635536
     40          1           0        0.659069    1.103312    1.686014
 ---------------------------------------------------------------------

 SCF Done:  E(RHF) =  -470.732114035     A.U. after   11 cycles
 E2 =    -0.1582847265D+01 EUMP2 =    -0.47231496129959D+03

 The electronic state is 1-A.
 Alpha  occ. eigenvalues --  -11.21587 -11.21587 -11.21558 -11.21525 -11.21382
 Alpha  occ. eigenvalues --  -11.21378 -11.21323 -11.21318 -11.21060 -11.21060
 Alpha  occ. eigenvalues --  -11.20977 -11.20908  -1.08411  -1.08388  -1.03536
 Alpha  occ. eigenvalues --   -1.03452  -0.96042  -0.95855  -0.87120  -0.86820
 Alpha  occ. eigenvalues --   -0.79693  -0.79435  -0.78237  -0.78187  -0.65052
 Alpha  occ. eigenvalues --   -0.65013  -0.60984  -0.60832  -0.59380  -0.59276
 Alpha  occ. eigenvalues --   -0.57611  -0.57510  -0.55395  -0.55112  -0.52839
 Alpha  occ. eigenvalues --   -0.52637  -0.52359  -0.52204  -0.50021  -0.49703
 Alpha  occ. eigenvalues --   -0.47896  -0.47830  -0.46668  -0.46482  -0.45797
 Alpha  occ. eigenvalues --   -0.45723  -0.45691  -0.45620  -0.43743  -0.43711
 Alpha virt. eigenvalues --    0.22439   0.22977   0.23687   0.24824   0.26272
 Alpha virt. eigenvalues --    0.26569   0.27126   0.27397   0.27713   0.29230
 Alpha virt. eigenvalues --    0.29484   0.31222   0.31714   0.31931   0.32246

 Mulliken charges:
               1
     1  C   -0.298191
     2  C   -0.299596
     3  C   -0.475681
     4  H    0.149602
     5  H    0.149523
     6  H    0.151828
     7  H    0.151827
     8  H    0.155160
     9  H    0.155166
    10  H    0.160175
    11  C   -0.297989
    12  C   -0.300477
    13  C   -0.480096
    14  H    0.148839
    15  H    0.149330
    16  H    0.151555
    17  H    0.151134
    18  H    0.152986
    19  H    0.164188
    20  H    0.159216
    21  C   -0.298264
    22  C   -0.299629
    23  C   -0.475684
    24  H    0.149595
    25  H    0.149470
    26  H    0.151902
    27  H    0.151914
    28  H    0.155144
    29  H    0.155150
    30  H    0.160201
    31  C   -0.298696
    32  C   -0.299633
    33  C   -0.479445
    34  H    0.149467
    35  H    0.149845
    36  H    0.151425
    37  H    0.152035
    38  H    0.163156
    39  H    0.154390
    40  H    0.159160
 Sum of Mulliken charges =  -0.00000

 Dipole moment (field-independent basis, Debye):
    X=              0.0290    Y=              0.0139    Z=              0.0096  Tot=              0.0336
 Quadrupole moment (field-independent basis, Debye-Ang):
   XX=            -86.6097   YY=            -85.3362   ZZ=            -83.1094
   XY=              0.4642   XZ=              0.5214   YZ=              0.4768

 Normal termination of Gaussian 16 at Wed May  5 19:53:30 2021.
