 Gaussian 16, Revision A.03,
 Gaussian 16:  EM64L-G16RevA.03 25-Dec-2016

 -------------
 #p 6-31g* mp2
 -------------

 ------------------------------------------------------
 Input file generated by CHIRIPA (05-May-2021 14:55:21)
 ------------------------------------------------------
 Symbolic Z-matrix:
 Charge =  0 Multiplicity = 1

                         Standard orientation:
 ---------------------------------------------------------------------
 Center     Atomic      Atomic             Coordinates (Angstroms)
 Number     Number       Type             X           Y           Z
 ---------------------------------------------------------------------
      1          6           0        3.783091    0.522615   -1.616311
      2          6           0        4.033060    0.767187   -0.261977
      3          6           0        3.175507    0.263447    0.720569
      4          6           0        2.072382   -0.484207    0.311401
      5          6           0        1.796480   -0.745006   -1.029924
      6          6           0        2.667565   -0.231372   -1.995294
      7          1           0        4.454515    0.917775   -2.372905
      8          1           0        4.898625    1.352413    0.035267
      9          1           0        3.345333    0.437675    1.776136
     10          1           0        0.925554   -1.331860   -1.295456
     11          1           0        2.470952   -0.422894   -3.046345
     12          7           0        1.157366   -1.022731    1.342487
     13          8           0        0.192341   -1.678485    0.956027
     14          8           0        1.422527   -0.778875    2.517587
     15          6           0       -2.698376   -0.243290   -0.175508
     16          6           0       -3.865512   -1.094391   -0.676911
     17          6           0       -3.555566   -2.591534   -0.659817
     18          1           0       -1.814012   -0.443205   -0.795894
     19          1           0       -2.439906   -0.553521    0.846425
     20          1           0       -4.122606   -0.781710   -1.697082
     21          1           0       -4.747253   -0.892283   -0.055379
     22          1           0       -3.320010   -2.924596    0.356147
     23          1           0       -2.691814   -2.813395   -1.294885
     24          1           0       -4.403431   -3.181203   -1.022134
     25          6           0       -2.992983    1.255647   -0.186644
     26          6           0       -1.825847    2.106747    0.314759
     27          6           0       -2.135794    3.603890    0.297666
     28          1           0       -3.251454    1.565877   -1.208576
     29          1           0       -3.877346    1.455562    0.433742
     30          1           0       -0.944107    1.904639   -0.306773
     31          1           0       -1.568753    1.794067    1.334931
     32          1           0       -2.999545    3.825752    0.932733
     33          1           0       -2.371350    3.936954   -0.718299
     34          1           0       -1.287928    4.193560    0.659983
 ---------------------------------------------------------------------

 SCF Done:  E(RHF) =  -669.535608577     A.U. after   15 cycles
 E2 =    -0.2092946132D+01 EUMP2 =    -0.67162855470894D+03

 The electronic state is 1-A.
 Alpha  occ. eigenvalues --  -20.60898 -20.60857 -15.85902 -11.31272 -11.27839
 Alpha  occ. eigenvalues --  -11.27822 -11.27567 -11.26848 -11.26836 -11.21132
 Alpha  occ. eigenvalues --  -11.20831 -11.20747 -11.20739 -11.20337 -11.20234
 Alpha  occ. eigenvalues --   -1.59941  -1.39497  -1.19435  -1.08832  -1.07718
 Alpha  occ. eigenvalues --   -1.04837  -1.02892  -0.95674  -0.95319  -0.86341
 Alpha  occ. eigenvalues --   -0.86235  -0.82510  -0.78977  -0.77710  -0.77322
 Alpha  occ. eigenvalues --   -0.72128  -0.71242  -0.70543  -0.65090  -0.64849
 Alpha  occ. eigenvalues --   -0.64359  -0.62186  -0.60304  -0.58706  -0.56926
 Alpha  occ. eigenvalues --   -0.55338  -0.54612  -0.53164  -0.52931  -0.52072
 Alpha  occ. eigenvalues --   -0.51732  -0.49285  -0.48901  -0.48895  -0.47287
 Alpha  occ. eigenvalues --   -0.46020  -0.45474  -0.44920  -0.44353  -0.43108
 Alpha  occ. eigenvalues --   -0.37404  -0.36435
 Alpha virt. eigenvalues --    0.04956   0.11150   0.16446   0.20944   0.23279
 Alpha virt. eigenvalues --    0.24550   0.26011   0.27576   0.27825   0.28593
 Alpha virt. eigenvalues --    0.28906   0.30905   0.31602   0.32246   0.32472

 Mulliken charges:
               1
     1  C   -0.170622
     2  C   -0.218405
     3  C   -0.170708
     4  C    0.159241
     5  C   -0.172106
     6  C   -0.218870
     7  H    0.225916
     8  H    0.223774
     9  H    0.275794
    10  H    0.276946
    11  H    0.223770
    12  N    0.488690
    13  O   -0.458054
    14  O   -0.460599
    15  C   -0.297870
    16  C   -0.300573
    17  C   -0.472692
    18  H    0.143508
    19  H    0.169262
    20  H    0.145236
    21  H    0.149986
    22  H    0.164588
    23  H    0.150594
    24  H    0.154787
    25  C   -0.298185
    26  C   -0.300995
    27  C   -0.474725
    28  H    0.143953
    29  H    0.148727
    30  H    0.145652
    31  H    0.157976
    32  H    0.155838
    33  H    0.152505
    34  H    0.157657
 Sum of Mulliken charges =  -0.00000

 Dipole moment (field-independent basis, Debye):
    X=              3.3750    Y=              1.7589    Z=             -3.4253  Tot=              5.1203
 Quadrupole moment (field-independent basis, Debye-Ang):
   XX=            -80.5917   YY=            -98.0616   ZZ=            -93.9348
   XY=              4.1478   XZ=             -5.3515   YZ=              3.8087

 Normal termination of Gaussian 16 at Wed May  5 20:38:18 2021.
