 Gaussian 16, Revision A.03,
 Gaussian 16:  EM64L-G16RevA.03 25-Dec-2016

 -------------
 #p 6-31g* mp2
 -------------

 ------------------------------------------------------
 Input file generated by CHIRIPA (05-May-2021 14:55:20)
 ------------------------------------------------------
 Symbolic Z-matrix:
 Charge =  0 Multiplicity = 1

                         Standard orientation:
 ---------------------------------------------------------------------
 Center     Atomic      Atomic             Coordinates (Angstroms)
 Number     Number       Type             X           Y           Z
 ---------------------------------------------------------------------
      1          6           0       -3.416333   -1.802521    0.008938
      2          6           0       -2.699614   -1.375651    1.131710
      3          6           0       -2.159259   -0.087206    1.181454
      4          6           0       -2.355626    0.751944    0.085755
      5          6           0       -3.064904    0.355867   -1.047090
      6          6           0       -3.596373   -0.936926   -1.074967
      7          1           0       -3.832642   -2.805104   -0.021211
      8          1           0       -2.558221   -2.045731    1.974945
      9          1           0       -1.600158    0.269049    2.038138
     10          1           0       -3.189295    1.046509   -1.872292
     11          1           0       -4.152542   -1.265736   -1.948240
     12          7           0       -1.788280    2.118264    0.126842
     13          8           0       -1.975257    2.838415   -0.851453
     14          8           0       -1.167359    2.443164    1.136562
     15          6           0        2.381857   -0.801032   -0.118524
     16          6           0        2.016093   -2.285443   -0.091558
     17          6           0        0.506081   -2.522941   -0.126918
     18          1           0        1.910011   -0.298068    0.736656
     19          1           0        1.958739   -0.342667   -1.023105
     20          1           0        2.440949   -2.741172    0.812004
     21          1           0        2.489023   -2.784968   -0.946795
     22          1           0        0.069893   -2.094545   -1.035113
     23          1           0        0.021545   -2.050501    0.733678
     24          1           0        0.267057   -3.590801   -0.106861
     25          6           0        3.887918   -0.547468   -0.083672
     26          6           0        4.253682    0.936942   -0.110638
     27          6           0        5.763694    1.174440   -0.075278
     28          1           0        4.311037   -1.005833    0.820909
     29          1           0        4.359765   -1.050432   -0.938852
     30          1           0        3.780753    1.436467    0.744599
     31          1           0        3.828827    1.392673   -1.014200
     32          1           0        6.248230    0.702000   -0.935875
     33          1           0        6.199883    0.746044    0.832916
     34          1           0        6.002718    2.242300   -0.095335
 ---------------------------------------------------------------------

 SCF Done:  E(RHF) =  -669.534324509     A.U. after   15 cycles
 E2 =    -0.2093197398D+01 EUMP2 =    -0.67162752190743D+03

 The electronic state is 1-A.
 Alpha  occ. eigenvalues --  -20.60779 -20.60774 -15.85831 -11.31199 -11.27757
 Alpha  occ. eigenvalues --  -11.27741 -11.27485 -11.26791 -11.26756 -11.21600
 Alpha  occ. eigenvalues --  -11.21254 -11.21232 -11.21153 -11.21145 -11.20761
 Alpha  occ. eigenvalues --   -1.59852  -1.39406  -1.19370  -1.08761  -1.08268
 Alpha  occ. eigenvalues --   -1.04789  -1.03384  -0.95855  -0.95596  -0.86884
 Alpha  occ. eigenvalues --   -0.86169  -0.82438  -0.79456  -0.78057  -0.77483
 Alpha  occ. eigenvalues --   -0.72051  -0.71172  -0.70472  -0.65029  -0.64905
 Alpha  occ. eigenvalues --   -0.64784  -0.62134  -0.60793  -0.59239  -0.57488
 Alpha  occ. eigenvalues --   -0.55270  -0.55177  -0.53382  -0.52874  -0.52538
 Alpha  occ. eigenvalues --   -0.52025  -0.49809  -0.48809  -0.48805  -0.47732
 Alpha  occ. eigenvalues --   -0.46494  -0.45599  -0.45521  -0.44805  -0.43645
 Alpha  occ. eigenvalues --   -0.37325  -0.36259
 Alpha virt. eigenvalues --    0.05033   0.11220   0.16462   0.21153   0.23028
 Alpha virt. eigenvalues --    0.24410   0.26460   0.27149   0.27658   0.28372
 Alpha virt. eigenvalues --    0.28492   0.30809   0.31617   0.31926   0.32172

 Mulliken charges:
               1
     1  C   -0.169166
     2  C   -0.215010
     3  C   -0.171253
     4  C    0.160558
     5  C   -0.172079
     6  C   -0.218612
     7  H    0.225770
     8  H    0.223837
     9  H    0.274983
    10  H    0.275465
    11  H    0.223510
    12  N    0.488216
    13  O   -0.460451
    14  O   -0.460706
    15  C   -0.298801
    16  C   -0.299828
    17  C   -0.475458
    18  H    0.151433
    19  H    0.150738
    20  H    0.149972
    21  H    0.151191
    22  H    0.156457
    23  H    0.153756
    24  H    0.153610
    25  C   -0.298225
    26  C   -0.300466
    27  C   -0.475853
    28  H    0.148090
    29  H    0.148436
    30  H    0.156458
    31  H    0.154204
    32  H    0.153688
    33  H    0.153862
    34  H    0.161674
 Sum of Mulliken charges =  -0.00000

 Dipole moment (field-independent basis, Debye):
    X=             -2.0751    Y=             -4.7210    Z=             -0.1475  Tot=              5.1590
 Quadrupole moment (field-independent basis, Debye-Ang):
   XX=            -86.4875   YY=           -102.9550   ZZ=            -89.7254
   XY=              9.6849   XZ=              2.1097   YZ=             -1.4769

 Normal termination of Gaussian 16 at Thu May  6 07:42:20 2021.
