 Gaussian 16, Revision A.03,
 Gaussian 16:  EM64L-G16RevA.03 25-Dec-2016

 -------------
 #p 6-31g* mp2
 -------------

 ------------------------------------------------------
 Input file generated by CHIRIPA (05-May-2021 14:53:17)
 ------------------------------------------------------
 Symbolic Z-matrix:
 Charge =  0 Multiplicity = 1

                         Standard orientation:
 ---------------------------------------------------------------------
 Center     Atomic      Atomic             Coordinates (Angstroms)
 Number     Number       Type             X           Y           Z
 ---------------------------------------------------------------------
      1          6           0        3.961374   -0.477884    0.069840
      2          6           0        5.304865   -0.817202   -0.576598
      3          6           0        5.584260   -2.320169   -0.605294
      4          1           0        3.943694   -0.875185    1.093941
      5          1           0        3.158773   -0.990575   -0.478224
      6          1           0        6.104565   -0.302918   -0.028323
      7          1           0        5.319422   -0.418881   -1.599215
      8          1           0        4.807166   -2.845758   -1.169636
      9          1           0        5.596771   -2.729136    0.410182
     10          1           0        6.549675   -2.540214   -1.071571
     11          6           0        3.667789    1.020860    0.105939
     12          6           0        2.324298    1.360178    0.752377
     13          6           0        2.044903    2.863144    0.781072
     14          1           0        4.470390    1.533550    0.654003
     15          1           0        3.685469    1.418160   -0.918163
     16          1           0        2.309741    0.961856    1.774993
     17          1           0        1.524598    0.845893    0.204101
     18          1           0        2.032392    3.272111   -0.234403
     19          1           0        2.821996    3.388733    1.345415
     20          1           0        1.079488    3.083190    1.247350
     21          6           0       -2.675435    2.227833   -0.634176
     22          6           0       -1.578549    1.461420   -0.226780
     23          6           0       -1.735674    0.108604    0.089044
     24          6           0       -3.009600   -0.447983   -0.013991
     25          6           0       -4.121937    0.289337   -0.416923
     26          6           0       -3.941398    1.640381   -0.727783
     27          1           0       -2.544281    3.278045   -0.877589
     28          1           0       -0.594219    1.914989   -0.153181
     29          1           0       -0.903692   -0.507911    0.407056
     30          1           0       -5.090870   -0.190778   -0.480764
     31          1           0       -4.795056    2.233157   -1.043898
     32          7           0       -3.188336   -1.879212    0.317730
     33          8           0       -4.321045   -2.345947    0.218912
     34          8           0       -2.192335   -2.507173    0.670269
 ---------------------------------------------------------------------

 SCF Done:  E(RHF) =  -669.535064422     A.U. after   15 cycles
 E2 =    -0.2092132490D+01 EUMP2 =    -0.67162719691251D+03

 The electronic state is 1-A.
 Alpha  occ. eigenvalues --  -20.60712 -20.60707 -15.85763 -11.31114 -11.27686
 Alpha  occ. eigenvalues --  -11.27657 -11.27411 -11.26700 -11.26603 -11.22616
 Alpha  occ. eigenvalues --  -11.22182 -11.22044 -11.21887 -11.21775 -11.21208
 Alpha  occ. eigenvalues --   -1.59788  -1.39341  -1.19281  -1.09039  -1.08678
 Alpha  occ. eigenvalues --   -1.04692  -1.04156  -0.96599  -0.95518  -0.87614
 Alpha  occ. eigenvalues --   -0.86078  -0.82359  -0.80265  -0.78778  -0.77401
 Alpha  occ. eigenvalues --   -0.71982  -0.71111  -0.70395  -0.65731  -0.64929
 Alpha  occ. eigenvalues --   -0.64705  -0.62245  -0.61402  -0.59959  -0.58173
 Alpha  occ. eigenvalues --   -0.55878  -0.55162  -0.53342  -0.53094  -0.52999
 Alpha  occ. eigenvalues --   -0.52617  -0.50535  -0.48742  -0.48737  -0.48555
 Alpha  occ. eigenvalues --   -0.47295  -0.46320  -0.46202  -0.44751  -0.44387
 Alpha  occ. eigenvalues --   -0.37265  -0.36282
 Alpha virt. eigenvalues --    0.05124   0.11336   0.16590   0.19723   0.22816
 Alpha virt. eigenvalues --    0.23880   0.24908   0.26343   0.26732   0.28650
 Alpha virt. eigenvalues --    0.29281   0.30728   0.31002   0.31277   0.31922

 Mulliken charges:
               1
     1  C   -0.299749
     2  C   -0.300261
     3  C   -0.476350
     4  H    0.152413
     5  H    0.151162
     6  H    0.152231
     7  H    0.151970
     8  H    0.157426
     9  H    0.156740
    10  H    0.161090
    11  C   -0.297710
    12  C   -0.306763
    13  C   -0.484753
    14  H    0.152425
    15  H    0.150296
    16  H    0.158896
    17  H    0.145434
    18  H    0.154887
    19  H    0.164651
    20  H    0.156722
    21  C   -0.173051
    22  C   -0.228453
    23  C   -0.176395
    24  C    0.159425
    25  C   -0.171236
    26  C   -0.218510
    27  H    0.225761
    28  H    0.239702
    29  H    0.276826
    30  H    0.275269
    31  H    0.223048
    32  N    0.488282
    33  O   -0.460810
    34  O   -0.460616
 Sum of Mulliken charges =  -0.00000

 Dipole moment (field-independent basis, Debye):
    X=              0.8859    Y=              5.0224    Z=             -1.1281  Tot=              5.2232
 Quadrupole moment (field-independent basis, Debye-Ang):
   XX=            -92.8883   YY=           -100.8928   ZZ=            -94.4467
   XY=            -15.6410   XZ=              5.3441   YZ=              0.3826

 Normal termination of Gaussian 16 at Thu May  6 17:17:12 2021.
