 Gaussian 16, Revision A.03,
 Gaussian 16:  EM64L-G16RevA.03 25-Dec-2016

 -------------
 #p 6-31g* mp2
 -------------

 ------------------------------------------------------
 Input file generated by CHIRIPA (05-May-2021 14:55:23)
 ------------------------------------------------------
 Symbolic Z-matrix:
 Charge =  0 Multiplicity = 1

                         Standard orientation:
 ---------------------------------------------------------------------
 Center     Atomic      Atomic             Coordinates (Angstroms)
 Number     Number       Type             X           Y           Z
 ---------------------------------------------------------------------
      1          6           0        0.810446   -0.980471    0.860303
      2          6           0        1.395069   -1.467848   -0.313239
      3          6           0        2.637026   -0.988274   -0.739972
      4          6           0        3.269330   -0.016931    0.034608
      5          6           0        2.712626    0.488486    1.208458
      6          6           0        1.469927   -0.005578    1.616074
      7          1           0       -0.154624   -1.358644    1.184374
      8          1           0        0.885197   -2.224966   -0.902177
      9          1           0        3.112360   -1.348087   -1.644411
     10          1           0        3.245016    1.243186    1.774503
     11          1           0        1.018285    0.374760    2.527889
     12          7           0        4.584526    0.498442   -0.407035
     13          8           0        5.121220    1.354223    0.293133
     14          8           0        5.053780    0.036852   -1.445001
     15          6           0       -3.681218    0.829397    0.071627
     16          6           0       -4.486600    1.949632   -0.587478
     17          6           0       -4.022509    3.342123   -0.159246
     18          1           0       -3.759247    0.923824    1.163387
     19          1           0       -2.618569    0.955585   -0.177869
     20          1           0       -5.547588    1.820573   -0.337949
     21          1           0       -4.406802    1.852413   -1.677797
     22          1           0       -2.971097    3.495790   -0.422910
     23          1           0       -4.118365    3.463768    0.924550
     24          1           0       -4.611733    4.127857   -0.642256
     25          6           0       -4.133360   -0.568607   -0.346562
     26          6           0       -3.327979   -1.688842    0.312543
     27          6           0       -3.792069   -3.081333   -0.115689
     28          1           0       -5.196009   -0.694795   -0.097066
     29          1           0       -4.055331   -0.663034   -1.438322
     30          1           0       -3.407777   -1.591623    1.402862
     31          1           0       -2.266990   -1.559783    0.063014
     32          1           0       -3.696213   -3.202978   -1.199486
     33          1           0       -4.843482   -3.235000    0.147975
     34          1           0       -3.202845   -3.867067    0.367321
 ---------------------------------------------------------------------

 SCF Done:  E(RHF) =  -669.535634357     A.U. after   15 cycles
 E2 =    -0.2091288693D+01 EUMP2 =    -0.67162692304992D+03

 The electronic state is 1-A.
 Alpha  occ. eigenvalues --  -20.60748 -20.60743 -15.85802 -11.31166 -11.27737
 Alpha  occ. eigenvalues --  -11.27730 -11.27424 -11.26747 -11.26730 -11.22765
 Alpha  occ. eigenvalues --  -11.22241 -11.22179 -11.22104 -11.22046 -11.21540
 Alpha  occ. eigenvalues --   -1.59824  -1.39378  -1.19336  -1.09255  -1.08726
 Alpha  occ. eigenvalues --   -1.04739  -1.04332  -0.96743  -0.95563  -0.87762
 Alpha  occ. eigenvalues --   -0.86134  -0.82401  -0.80441  -0.79055  -0.77447
 Alpha  occ. eigenvalues --   -0.72020  -0.71148  -0.70445  -0.65882  -0.64984
 Alpha  occ. eigenvalues --   -0.64741  -0.62089  -0.61723  -0.60150  -0.58366
 Alpha  occ. eigenvalues --   -0.56015  -0.55244  -0.53447  -0.53161  -0.53067
 Alpha  occ. eigenvalues --   -0.52827  -0.50683  -0.48796  -0.48775  -0.48703
 Alpha  occ. eigenvalues --   -0.47470  -0.46580  -0.46487  -0.44784  -0.44574
 Alpha  occ. eigenvalues --   -0.37301  -0.36347
 Alpha virt. eigenvalues --    0.05065   0.11285   0.16483   0.20085   0.22460
 Alpha virt. eigenvalues --    0.23714   0.25531   0.25991   0.27134   0.27414
 Alpha virt. eigenvalues --    0.29064   0.30288   0.30772   0.31252   0.32054

 Mulliken charges:
               1
     1  C   -0.175001
     2  C   -0.220778
     3  C   -0.170956
     4  C    0.158328
     5  C   -0.170930
     6  C   -0.219501
     7  H    0.233271
     8  H    0.223223
     9  H    0.275458
    10  H    0.275499
    11  H    0.223904
    12  N    0.488075
    13  O   -0.460451
    14  O   -0.460557
    15  C   -0.300236
    16  C   -0.300112
    17  C   -0.476442
    18  H    0.148256
    19  H    0.149860
    20  H    0.153160
    21  H    0.153715
    22  H    0.156582
    23  H    0.154778
    24  H    0.162667
    25  C   -0.297639
    26  C   -0.305675
    27  C   -0.476065
    28  H    0.152919
    29  H    0.152152
    30  H    0.151553
    31  H    0.144644
    32  H    0.157330
    33  H    0.160005
    34  H    0.158965
 Sum of Mulliken charges =  -0.00000

 Dipole moment (field-independent basis, Debye):
    X=             -4.8357    Y=             -1.7718    Z=              1.5163  Tot=              5.3687
 Quadrupole moment (field-independent basis, Debye-Ang):
   XX=           -124.6366   YY=            -94.3175   ZZ=            -91.1717
   XY=             -5.9837   XZ=              4.7084   YZ=              2.4838

 Normal termination of Gaussian 16 at Wed May  5 17:32:01 2021.
