 Gaussian 16, Revision A.03,
 Gaussian 16:  EM64L-G16RevA.03 25-Dec-2016

 -------------
 #p 6-31g* mp2
 -------------

 ------------------------------------------------------
 Input file generated by CHIRIPA (05-May-2021 14:57:25)
 ------------------------------------------------------
 Symbolic Z-matrix:
 Charge =  0 Multiplicity = 1

                         Standard orientation:
 ---------------------------------------------------------------------
 Center     Atomic      Atomic             Coordinates (Angstroms)
 Number     Number       Type             X           Y           Z
 ---------------------------------------------------------------------
      1          6           0       -1.309871    2.792596    0.184970
      2          6           0       -1.879944    2.240887   -0.967052
      3          6           0       -2.341786    0.921324   -0.968644
      4          6           0       -2.217298    0.178694    0.204511
      5          6           0       -1.654017    0.700033    1.368217
      6          6           0       -1.198923    2.021767    1.346880
      7          1           0       -0.953722    3.818508    0.177300
      8          1           0       -1.967398    2.837177   -1.870842
      9          1           0       -2.787262    0.469201   -1.846456
     10          1           0       -1.580433    0.080900    2.254038
     11          1           0       -0.756632    2.447610    2.243028
     12          7           0       -2.702657   -1.219418    0.214963
     13          8           0       -2.581506   -1.852805    1.261281
     14          8           0       -3.195043   -1.655397   -0.823360
     15          6           0        2.957405    1.973637   -0.076981
     16          6           0        1.835428    1.659440   -0.850911
     17          6           0        1.372159    0.342628   -0.927943
     18          6           0        2.058020   -0.639476   -0.214952
     19          6           0        3.178785   -0.357992    0.564757
     20          6           0        3.624327    0.965695    0.627142
     21          1           0        3.310399    2.999239   -0.022830
     22          1           0        1.315509    2.440174   -1.398802
     23          1           0        0.506130    0.071541   -1.519487
     24          1           0        3.676218   -1.157839    1.099755
     25          1           0        4.495938    1.206786    1.228984
     26          7           0        1.576961   -2.037166   -0.288748
     27          8           0        2.198806   -2.884188    0.348825
     28          8           0        0.587172   -2.259186   -0.982766
 ---------------------------------------------------------------------

 SCF Done:  E(RHF) =  -868.334354085     A.U. after   16 cycles
 E2 =    -0.2606986416D+01 EUMP2 =    -0.87094134050037D+03

 The electronic state is 1-A.
 Alpha  occ. eigenvalues --  -20.60637 -20.60631 -20.60413 -20.60401 -15.85686
 Alpha  occ. eigenvalues --  -15.85497 -11.31397 -11.31224 -11.28026 -11.27968
 Alpha  occ. eigenvalues --  -11.27883 -11.27812 -11.27750 -11.27644 -11.27207
 Alpha  occ. eigenvalues --  -11.27098 -11.26907 -11.26886  -1.59699  -1.59455
 Alpha  occ. eigenvalues --   -1.39253  -1.39007  -1.19668  -1.19401  -1.08947
 Alpha  occ. eigenvalues --   -1.08792  -1.05108  -1.04850  -0.95679  -0.95596
 Alpha  occ. eigenvalues --   -0.86475  -0.86261  -0.82501  -0.82428  -0.77459
 Alpha  occ. eigenvalues --   -0.77427  -0.71915  -0.71718  -0.71120  -0.70741
 Alpha  occ. eigenvalues --   -0.70662  -0.70558  -0.65266  -0.65111  -0.65074
 Alpha  occ. eigenvalues --   -0.64883  -0.62417  -0.62257  -0.55613  -0.55435
 Alpha  occ. eigenvalues --   -0.53998  -0.53178  -0.52991  -0.52525  -0.48662
 Alpha  occ. eigenvalues --   -0.48647  -0.48501  -0.48428  -0.44618  -0.44300
 Alpha  occ. eigenvalues --   -0.38085  -0.37191  -0.36803  -0.36116
 Alpha virt. eigenvalues --    0.04924   0.05235   0.10662   0.11306   0.16236
 Alpha virt. eigenvalues --    0.16783   0.20393   0.21692   0.26368   0.27216
 Alpha virt. eigenvalues --    0.28034   0.28449   0.30526   0.30865   0.32037

 Mulliken charges:
               1
     1  C   -0.173369
     2  C   -0.226077
     3  C   -0.180748
     4  C    0.165412
     5  C   -0.171996
     6  C   -0.211635
     7  H    0.221294
     8  H    0.222051
     9  H    0.279337
    10  H    0.278888
    11  H    0.223410
    12  N    0.493578
    13  O   -0.457292
    14  O   -0.455835
    15  C   -0.175718
    16  C   -0.213585
    17  C   -0.167943
    18  C    0.157018
    19  C   -0.172089
    20  C   -0.219349
    21  H    0.221517
    22  H    0.215131
    23  H    0.276457
    24  H    0.276291
    25  H    0.222549
    26  N    0.488543
    27  O   -0.457938
    28  O   -0.457901
 Sum of Mulliken charges =  -0.00000

 Dipole moment (field-independent basis, Debye):
    X=              3.1695    Y=              9.4498    Z=              0.3367  Tot=              9.9729
 Quadrupole moment (field-independent basis, Debye-Ang):
   XX=           -103.4495   YY=           -110.4795   ZZ=            -99.1017
   XY=             -2.7789   XZ=              4.7384   YZ=             -1.4891

 Normal termination of Gaussian 16 at Fri May  7 08:05:39 2021.
