 Gaussian 16, Revision A.03,
 Gaussian 16:  EM64L-G16RevA.03 25-Dec-2016

 -------------
 #p 6-31g* mp2
 -------------

 ------------------------------------------------------
 Input file generated by CHIRIPA (05-May-2021 14:53:12)
 ------------------------------------------------------
 Symbolic Z-matrix:
 Charge =  0 Multiplicity = 1

                         Standard orientation:
 ---------------------------------------------------------------------
 Center     Atomic      Atomic             Coordinates (Angstroms)
 Number     Number       Type             X           Y           Z
 ---------------------------------------------------------------------
      1          6           0        3.404192    0.947544   -0.348948
      2          6           0        1.940228    0.965914   -0.789919
      3          6           0        1.336453    2.370577   -0.776746
      4          1           0        3.481530    1.371979    0.661408
      5          1           0        3.987081    1.604408   -1.009375
      6          1           0        1.360518    0.308132   -0.129711
      7          1           0        1.866341    0.541209   -1.799267
      8          1           0        1.889553    3.033960   -1.449506
      9          1           0        1.380856    2.799557    0.229537
     10          1           0        0.289438    2.360517   -1.095363
     11          6           0        4.021797   -0.449678   -0.356892
     12          6           0        5.485762   -0.468048    0.084079
     13          6           0        6.089536   -1.872711    0.070906
     14          1           0        3.438908   -1.106543    0.303536
     15          1           0        3.944460   -0.874113   -1.367247
     16          1           0        5.559648   -0.043344    1.093427
     17          1           0        6.065471    0.189734   -0.576129
     18          1           0        6.045134   -2.301692   -0.935376
     19          1           0        5.536437   -2.536094    0.743666
     20          1           0        7.136552   -1.862652    0.389524
     21          6           0       -0.886729    0.663678    1.529952
     22          6           0       -1.856711    1.558815    1.066935
     23          6           0       -2.976740    1.094552    0.370843
     24          6           0       -3.095488   -0.277442    0.154464
     25          6           0       -2.146177   -1.194353    0.603211
     26          6           0       -1.034298   -0.707632    1.297023
     27          1           0       -0.019828    1.033051    2.069807
     28          1           0       -1.744723    2.624321    1.246379
     29          1           0       -3.742762    1.765423    0.001301
     30          1           0       -2.285371   -2.250922    0.409037
     31          1           0       -0.282578   -1.405125    1.655445
     32          7           0       -4.276899   -0.780824   -0.581251
     33          8           0       -4.358249   -1.994263   -0.758968
     34          8           0       -5.099168    0.047597   -0.966255
 ---------------------------------------------------------------------

 SCF Done:  E(RHF) =  -669.534035379     A.U. after   15 cycles
 E2 =    -0.2094031343D+01 EUMP2 =    -0.67162806672220D+03

 The electronic state is 1-A.
 Alpha  occ. eigenvalues --  -20.60791 -20.60785 -15.85846 -11.31225 -11.27810
 Alpha  occ. eigenvalues --  -11.27807 -11.27549 -11.26820 -11.26797 -11.22130
 Alpha  occ. eigenvalues --  -11.22125 -11.22023 -11.21964 -11.21733 -11.21526
 Alpha  occ. eigenvalues --   -1.59867  -1.39420  -1.19421  -1.09054  -1.08796
 Alpha  occ. eigenvalues --   -1.04825  -1.04102  -0.96573  -0.95633  -0.87587
 Alpha  occ. eigenvalues --   -0.86218  -0.82470  -0.80161  -0.78842  -0.77507
 Alpha  occ. eigenvalues --   -0.72065  -0.71191  -0.70556  -0.65701  -0.65071
 Alpha  occ. eigenvalues --   -0.64816  -0.62166  -0.61540  -0.59939  -0.58181
 Alpha  occ. eigenvalues --   -0.55948  -0.55280  -0.53398  -0.53041  -0.52913
 Alpha  occ. eigenvalues --   -0.52838  -0.50531  -0.48824  -0.48818  -0.48477
 Alpha  occ. eigenvalues --   -0.47221  -0.46380  -0.46330  -0.44823  -0.44361
 Alpha  occ. eigenvalues --   -0.37286  -0.36390
 Alpha virt. eigenvalues --    0.05009   0.11097   0.16432   0.19819   0.22803
 Alpha virt. eigenvalues --    0.23965   0.25573   0.25980   0.27222   0.28320
 Alpha virt. eigenvalues --    0.28664   0.30318   0.31077   0.31353   0.32413

 Mulliken charges:
               1
     1  C   -0.298061
     2  C   -0.305050
     3  C   -0.476789
     4  H    0.144467
     5  H    0.152188
     6  H    0.152147
     7  H    0.156092
     8  H    0.158028
     9  H    0.143323
    10  H    0.165850
    11  C   -0.297079
    12  C   -0.299852
    13  C   -0.475852
    14  H    0.143812
    15  H    0.152651
    16  H    0.150867
    17  H    0.153803
    18  H    0.156764
    19  H    0.154063
    20  H    0.161805
    21  C   -0.166269
    22  C   -0.217756
    23  C   -0.172474
    24  C    0.158340
    25  C   -0.170871
    26  C   -0.219028
    27  H    0.227136
    28  H    0.224758
    29  H    0.275942
    30  H    0.275964
    31  H    0.223653
    32  N    0.488124
    33  O   -0.460321
    34  O   -0.460372
 Sum of Mulliken charges =  -0.00000

 Dipole moment (field-independent basis, Debye):
    X=              4.1612    Y=              1.7525    Z=              2.5237  Tot=              5.1726
 Quadrupole moment (field-independent basis, Debye-Ang):
   XX=           -120.6748   YY=            -92.4366   ZZ=            -93.6395
   XY=             -8.1216   XZ=             -7.8270   YZ=             -1.0925

 Normal termination of Gaussian 16 at Wed May  5 16:58:20 2021.
