 Gaussian 16, Revision A.03,
 Gaussian 16:  EM64L-G16RevA.03 25-Dec-2016

 -------------
 #p 6-31g* mp2
 -------------

 ------------------------------------------------------
 Input file generated by CHIRIPA (05-May-2021 14:55:22)
 ------------------------------------------------------
 Symbolic Z-matrix:
 Charge =  0 Multiplicity = 1

                         Standard orientation:
 ---------------------------------------------------------------------
 Center     Atomic      Atomic             Coordinates (Angstroms)
 Number     Number       Type             X           Y           Z
 ---------------------------------------------------------------------
      1          6           0       -1.519193   -1.868891    1.257323
      2          6           0       -2.772550   -1.480448    1.741812
      3          6           0       -3.511372   -0.490675    1.086802
      4          6           0       -2.964098    0.092236   -0.055125
      5          6           0       -1.718131   -0.273168   -0.562409
      6          6           0       -0.996905   -1.265075    0.108783
      7          1           0       -0.952092   -2.638599    1.772436
      8          1           0       -3.180654   -1.947651    2.633562
      9          1           0       -4.484135   -0.170887    1.440192
     10          1           0       -1.337534    0.210773   -1.453681
     11          1           0       -0.023789   -1.564746   -0.269750
     12          7           0       -3.736942    1.141194   -0.757121
     13          8           0       -3.232656    1.639366   -1.761192
     14          8           0       -4.832349    1.445335   -0.289982
     15          6           0        3.333890   -0.593954    0.017838
     16          6           0        3.604111   -1.534195   -1.157284
     17          6           0        3.003443   -2.925137   -0.951680
     18          1           0        3.741109   -1.038682    0.936169
     19          1           0        2.248706   -0.507339    0.167061
     20          1           0        4.688430   -1.617922   -1.305124
     21          1           0        3.196370   -1.087086   -2.072958
     22          1           0        1.917724   -2.861208   -0.826270
     23          1           0        3.418262   -3.395061   -0.054073
     24          1           0        3.208527   -3.580934   -1.803579
     25          6           0        3.928123    0.800404   -0.172903
     26          6           0        3.657903    1.740646    1.002219
     27          6           0        4.258570    3.131588    0.796615
     28          1           0        5.013308    0.713789   -0.322127
     29          1           0        3.520904    1.245134   -1.091235
     30          1           0        4.065644    1.293538    1.917892
     31          1           0        2.573583    1.824373    1.150058
     32          1           0        3.843751    3.601512   -0.100993
     33          1           0        5.344289    3.067660    0.671204
     34          1           0        4.053486    3.787385    1.648513
 ---------------------------------------------------------------------

 SCF Done:  E(RHF) =  -669.535274956     A.U. after   15 cycles
 E2 =    -0.2091749820D+01 EUMP2 =    -0.67162702477630D+03

 The electronic state is 1-A.
 Alpha  occ. eigenvalues --  -20.60769 -20.60764 -15.85823 -11.31189 -11.27768
 Alpha  occ. eigenvalues --  -11.27764 -11.27498 -11.26770 -11.26744 -11.22437
 Alpha  occ. eigenvalues --  -11.22192 -11.22130 -11.22014 -11.21917 -11.21345
 Alpha  occ. eigenvalues --   -1.59845  -1.39398  -1.19365  -1.09109  -1.08755
 Alpha  occ. eigenvalues --   -1.04772  -1.04181  -0.96643  -0.95591  -0.87657
 Alpha  occ. eigenvalues --   -0.86171  -0.82428  -0.80256  -0.78895  -0.77473
 Alpha  occ. eigenvalues --   -0.72041  -0.71168  -0.70467  -0.65824  -0.65015
 Alpha  occ. eigenvalues --   -0.64749  -0.62187  -0.61510  -0.60016  -0.58237
 Alpha  occ. eigenvalues --   -0.55964  -0.55261  -0.53314  -0.53128  -0.53053
 Alpha  occ. eigenvalues --   -0.52866  -0.50601  -0.48818  -0.48796  -0.48540
 Alpha  occ. eigenvalues --   -0.47274  -0.46419  -0.46325  -0.44804  -0.44425
 Alpha  occ. eigenvalues --   -0.37338  -0.36367
 Alpha virt. eigenvalues --    0.05061   0.11201   0.16490   0.19076   0.22757
 Alpha virt. eigenvalues --    0.23687   0.25429   0.26551   0.27120   0.28368
 Alpha virt. eigenvalues --    0.28855   0.30227   0.31066   0.31557   0.31994

 Mulliken charges:
               1
     1  C   -0.173589
     2  C   -0.218656
     3  C   -0.170864
     4  C    0.158982
     5  C   -0.173920
     6  C   -0.227818
     7  H    0.226334
     8  H    0.223525
     9  H    0.275668
    10  H    0.275837
    11  H    0.237953
    12  N    0.488031
    13  O   -0.460525
    14  O   -0.460457
    15  C   -0.302391
    16  C   -0.301252
    17  C   -0.478923
    18  H    0.151038
    19  H    0.144203
    20  H    0.156790
    21  H    0.153284
    22  H    0.145123
    23  H    0.157818
    24  H    0.166191
    25  C   -0.298499
    26  C   -0.300541
    27  C   -0.476270
    28  H    0.151650
    29  H    0.151396
    30  H    0.151661
    31  H    0.153298
    32  H    0.157340
    33  H    0.155496
    34  H    0.162086
 Sum of Mulliken charges =  -0.00000

 Dipole moment (field-independent basis, Debye):
    X=              2.8959    Y=             -3.6526    Z=              2.4775  Tot=              5.2788
 Quadrupole moment (field-independent basis, Debye-Ang):
   XX=           -107.1261   YY=            -96.9081   ZZ=            -92.8822
   XY=             10.9972   XZ=            -10.1990   YZ=             -0.0758

 Normal termination of Gaussian 16 at Thu May  6 01:30:11 2021.
