 Gaussian 16, Revision A.03,
 Gaussian 16:  EM64L-G16RevA.03 25-Dec-2016

 -------------
 #p 6-31g* mp2
 -------------

 ------------------------------------------------------
 Input file generated by CHIRIPA (05-May-2021 14:53:17)
 ------------------------------------------------------
 Symbolic Z-matrix:
 Charge =  0 Multiplicity = 1

                         Standard orientation:
 ---------------------------------------------------------------------
 Center     Atomic      Atomic             Coordinates (Angstroms)
 Number     Number       Type             X           Y           Z
 ---------------------------------------------------------------------
      1          6           0       -2.594096    1.062937   -0.135323
      2          6           0       -1.541815    2.115242   -0.486525
      3          6           0       -2.000091    3.538752   -0.168095
      4          1           0       -3.520433    1.282713   -0.683541
      5          1           0       -2.837514    1.140334    0.933392
      6          1           0       -1.299441    2.034966   -1.553964
      7          1           0       -0.617814    1.892825    0.062445
      8          1           0       -2.223297    3.642033    0.898728
      9          1           0       -2.908797    3.784982   -0.726866
     10          1           0       -1.232692    4.274922   -0.426965
     11          6           0       -2.150624   -0.365122   -0.447910
     12          6           0       -3.202905   -1.417427   -0.096708
     13          6           0       -2.744630   -2.840937   -0.415138
     14          1           0       -1.907206   -0.442520   -1.516625
     15          1           0       -1.224287   -0.584898    0.100308
     16          1           0       -4.126906   -1.195010   -0.645678
     17          1           0       -3.445280   -1.337152    0.970732
     18          1           0       -1.835923   -3.087167    0.143633
     19          1           0       -2.521423   -2.944218   -1.481961
     20          1           0       -3.512028   -3.577107   -0.156268
     21          6           0        2.682278   -0.185730   -2.153635
     22          6           0        3.005318    0.842513   -1.262072
     23          6           0        2.551533    0.804816    0.059747
     24          6           0        1.773275   -0.280981    0.458056
     25          6           0        1.434569   -1.320717   -0.406534
     26          6           0        1.899315   -1.262165   -1.723778
     27          1           0        3.039046   -0.148346   -3.178679
     28          1           0        3.613208    1.679718   -1.593133
     29          1           0        2.786751    1.587368    0.770873
     30          1           0        0.826815   -2.142307   -0.047311
     31          1           0        1.646879   -2.062124   -2.413985
     32          7           0        1.287071   -0.331928    1.854985
     33          8           0        0.602926   -1.299473    2.181239
     34          8           0        1.599334    0.596649    2.597194
 ---------------------------------------------------------------------

 SCF Done:  E(RHF) =  -669.534835395     A.U. after   15 cycles
 E2 =    -0.2095671584D+01 EUMP2 =    -0.67163050697891D+03

 The electronic state is 1-A.
 Alpha  occ. eigenvalues --  -20.60997 -20.60982 -15.85990 -11.31225 -11.27826
 Alpha  occ. eigenvalues --  -11.27800 -11.27550 -11.26800 -11.26783 -11.21412
 Alpha  occ. eigenvalues --  -11.21325 -11.21107 -11.21042 -11.21011 -11.20883
 Alpha  occ. eigenvalues --   -1.60041  -1.39602  -1.19426  -1.08843  -1.08187
 Alpha  occ. eigenvalues --   -1.04811  -1.03330  -0.95796  -0.95691  -0.86821
 Alpha  occ. eigenvalues --   -0.86224  -0.82526  -0.79405  -0.78089  -0.77546
 Alpha  occ. eigenvalues --   -0.72225  -0.71374  -0.70546  -0.65099  -0.64894
 Alpha  occ. eigenvalues --   -0.64699  -0.62176  -0.60706  -0.59162  -0.57427
 Alpha  occ. eigenvalues --   -0.55327  -0.55083  -0.53214  -0.52905  -0.52476
 Alpha  occ. eigenvalues --   -0.52241  -0.49750  -0.49008  -0.48973  -0.47744
 Alpha  occ. eigenvalues --   -0.46452  -0.45663  -0.45494  -0.44754  -0.43567
 Alpha  occ. eigenvalues --   -0.37340  -0.36337
 Alpha virt. eigenvalues --    0.04920   0.11142   0.16401   0.20693   0.23096
 Alpha virt. eigenvalues --    0.23907   0.25985   0.27038   0.27569   0.27800
 Alpha virt. eigenvalues --    0.29276   0.30194   0.31355   0.31924   0.32095

 Mulliken charges:
               1
     1  C   -0.299199
     2  C   -0.300124
     3  C   -0.475431
     4  H    0.147591
     5  H    0.155682
     6  H    0.148018
     7  H    0.151065
     8  H    0.159370
     9  H    0.153924
    10  H    0.157060
    11  C   -0.305310
    12  C   -0.297248
    13  C   -0.480299
    14  H    0.142310
    15  H    0.157440
    16  H    0.149635
    17  H    0.159308
    18  H    0.158516
    19  H    0.148176
    20  H    0.162192
    21  C   -0.170207
    22  C   -0.218022
    23  C   -0.170885
    24  C    0.159818
    25  C   -0.173176
    26  C   -0.219410
    27  H    0.225866
    28  H    0.223623
    29  H    0.275624
    30  H    0.279431
    31  H    0.224142
    32  N    0.489075
    33  O   -0.460201
    34  O   -0.458355
 Sum of Mulliken charges =  -0.00000

 Dipole moment (field-independent basis, Debye):
    X=              1.7880    Y=              0.1634    Z=             -4.7772  Tot=              5.1034
 Quadrupole moment (field-independent basis, Debye-Ang):
   XX=            -88.0177   YY=            -92.6741   ZZ=            -98.8702
   XY=              2.3364   XZ=             -7.6571   YZ=              2.1618

 Normal termination of Gaussian 16 at Thu May  6 20:32:08 2021.
