 Gaussian 16, Revision A.03,
 Gaussian 16:  EM64L-G16RevA.03 25-Dec-2016

 -------------
 #p 6-31g* mp2
 -------------

 ------------------------------------------------------
 Input file generated by CHIRIPA (05-May-2021 14:57:25)
 ------------------------------------------------------
 Symbolic Z-matrix:
 Charge =  0 Multiplicity = 1

                         Standard orientation:
 ---------------------------------------------------------------------
 Center     Atomic      Atomic             Coordinates (Angstroms)
 Number     Number       Type             X           Y           Z
 ---------------------------------------------------------------------
      1          6           0       -3.200979    2.429111   -0.108064
      2          6           0       -4.175438    1.722046   -0.820109
      3          6           0       -4.215418    0.325352   -0.773230
      4          6           0       -3.261296   -0.335151   -0.000781
      5          6           0       -2.278008    0.341022    0.719791
      6          6           0       -2.257038    1.737562    0.658263
      7          1           0       -3.177305    3.514036   -0.150170
      8          1           0       -4.909777    2.256475   -1.416075
      9          1           0       -4.958861   -0.247000   -1.314639
     10          1           0       -1.559284   -0.219504    1.305168
     11          1           0       -1.499112    2.284061    1.212277
     12          7           0       -3.293558   -1.813686    0.056602
     13          8           0       -2.441745   -2.372136    0.744486
     14          8           0       -4.170048   -2.386115   -0.587392
     15          6           0        2.509726    2.486846    0.277084
     16          6           0        1.832966    1.463802    0.949319
     17          6           0        2.237696    0.133008    0.808859
     18          6           0        3.328124   -0.140106   -0.015560
     19          6           0        4.022811    0.857058   -0.698468
     20          6           0        3.600564    2.180748   -0.543218
     21          1           0        2.188518    3.517879    0.391941
     22          1           0        0.985473    1.698576    1.587037
     23          1           0        1.731784   -0.678514    1.317683
     24          1           0        4.864127    0.591978   -1.327226
     25          1           0        4.128033    2.973211   -1.066501
     26          7           0        3.765865   -1.545197   -0.172087
     27          8           0        4.729493   -1.759599   -0.904268
     28          8           0        3.137049   -2.405501    0.440371
 ---------------------------------------------------------------------

 SCF Done:  E(RHF) =  -868.335594449     A.U. after   16 cycles
 E2 =    -0.2600636529D+01 EUMP2 =    -0.87093623097774D+03

 The electronic state is 1-A.
 Alpha  occ. eigenvalues --  -20.61007 -20.60998 -20.60836 -20.60810 -15.86068
 Alpha  occ. eigenvalues --  -15.85889 -11.31634 -11.31481 -11.28317 -11.28189
 Alpha  occ. eigenvalues --  -11.28125 -11.28076 -11.28029 -11.27949 -11.27410
 Alpha  occ. eigenvalues --  -11.27296 -11.27238 -11.27134  -1.60076  -1.59899
 Alpha  occ. eigenvalues --   -1.39625  -1.39444  -1.19835  -1.19700  -1.09191
 Alpha  occ. eigenvalues --   -1.09063  -1.05300  -1.05144  -0.95991  -0.95850
 Alpha  occ. eigenvalues --   -0.86692  -0.86535  -0.82855  -0.82676  -0.77886
 Alpha  occ. eigenvalues --   -0.77653  -0.72280  -0.72103  -0.71402  -0.71227
 Alpha  occ. eigenvalues --   -0.70955  -0.70819  -0.65526  -0.65467  -0.65356
 Alpha  occ. eigenvalues --   -0.65067  -0.62801  -0.62342  -0.55789  -0.55662
 Alpha  occ. eigenvalues --   -0.53611  -0.53511  -0.53423  -0.53149  -0.49056
 Alpha  occ. eigenvalues --   -0.49027  -0.48885  -0.48841  -0.44986  -0.44799
 Alpha  occ. eigenvalues --   -0.37820  -0.37698  -0.36991  -0.36631
 Alpha virt. eigenvalues --    0.04678   0.04907   0.10619   0.10999   0.16036
 Alpha virt. eigenvalues --    0.16360   0.18023   0.22193   0.24675   0.25758
 Alpha virt. eigenvalues --    0.28090   0.29040   0.30174   0.31304   0.32744

 Mulliken charges:
               1
     1  C   -0.170804
     2  C   -0.218110
     3  C   -0.169563
     4  C    0.159530
     5  C   -0.169023
     6  C   -0.217124
     7  H    0.225084
     8  H    0.225168
     9  H    0.277960
    10  H    0.270814
    11  H    0.213639
    12  N    0.488099
    13  O   -0.457865
    14  O   -0.458352
    15  C   -0.170811
    16  C   -0.218978
    17  C   -0.171119
    18  C    0.159252
    19  C   -0.169531
    20  C   -0.218386
    21  H    0.222382
    22  H    0.213621
    23  H    0.279863
    24  H    0.277486
    25  H    0.224287
    26  N    0.487731
    27  O   -0.460100
    28  O   -0.455152
 Sum of Mulliken charges =  -0.00000

 Dipole moment (field-independent basis, Debye):
    X=             -1.4356    Y=              9.9335    Z=              0.1813  Tot=             10.0384
 Quadrupole moment (field-independent basis, Debye-Ang):
   XX=           -109.4398   YY=           -110.4864   ZZ=           -102.2677
   XY=              0.8542   XZ=              2.8731   YZ=             -1.4457

 Normal termination of Gaussian 16 at Thu May  6 14:45:16 2021.
