 Gaussian 16, Revision A.03,
 Gaussian 16:  EM64L-G16RevA.03 25-Dec-2016

 -------------
 #p 6-31g* mp2
 -------------

 ------------------------------------------------------
 Input file generated by CHIRIPA (05-May-2021 14:55:23)
 ------------------------------------------------------
 Symbolic Z-matrix:
 Charge =  0 Multiplicity = 1

                         Standard orientation:
 ---------------------------------------------------------------------
 Center     Atomic      Atomic             Coordinates (Angstroms)
 Number     Number       Type             X           Y           Z
 ---------------------------------------------------------------------
      1          6           0        3.923962   -2.242911    0.155333
      2          6           0        3.139858   -1.824974   -0.924959
      3          6           0        2.716411   -0.496194   -1.022858
      4          6           0        3.097128    0.391962   -0.018107
      5          6           0        3.877665    0.006009    1.070512
      6          6           0        4.289718   -1.327699    1.147871
      7          1           0        4.248480   -3.277053    0.223406
      8          1           0        2.854300   -2.533548   -1.697244
      9          1           0        2.108781   -0.145776   -1.848334
     10          1           0        4.146434    0.735440    1.824906
     11          1           0        4.898600   -1.649458    1.987978
     12          7           0        2.654875    1.801290   -0.110877
     13          8           0        3.003702    2.564262    0.787360
     14          8           0        1.967784    2.116263   -1.080070
     15          6           0       -4.700608    0.206179   -0.034116
     16          6           0       -5.938967   -0.562655    0.427778
     17          6           0       -7.217429    0.272045    0.346488
     18          1           0       -4.588959    1.111128    0.578705
     19          1           0       -4.852848    0.545656   -1.068028
     20          1           0       -5.783875   -0.901770    1.460040
     21          1           0       -6.047574   -1.465977   -0.186087
     22          1           0       -7.399516    0.598608   -0.682493
     23          1           0       -7.134318    1.166020    0.972986
     24          1           0       -8.090345   -0.296944    0.681344
     25          6           0       -3.414634   -0.614979    0.041329
     26          6           0       -2.176275    0.153855   -0.420564
     27          6           0       -0.897814   -0.680844   -0.339275
     28          1           0       -3.262394   -0.954456    1.075241
     29          1           0       -3.526283   -1.519928   -0.571491
     30          1           0       -2.067668    1.057177    0.193301
     31          1           0       -2.331368    0.492970   -1.452826
     32          1           0       -0.980924   -1.574820   -0.965772
     33          1           0       -0.715727   -1.007407    0.689707
     34          1           0       -0.024897   -0.111856   -0.674130
 ---------------------------------------------------------------------

 SCF Done:  E(RHF) =  -669.534945328     A.U. after   15 cycles
 E2 =    -0.2092523966D+01 EUMP2 =    -0.67162746929336D+03

 The electronic state is 1-A.
 Alpha  occ. eigenvalues --  -20.60876 -20.60859 -15.85893 -11.31188 -11.27772
 Alpha  occ. eigenvalues --  -11.27766 -11.27508 -11.26765 -11.26753 -11.21441
 Alpha  occ. eigenvalues --  -11.21278 -11.21187 -11.21129 -11.20912 -11.20889
 Alpha  occ. eigenvalues --   -1.59927  -1.39485  -1.19376  -1.08779  -1.08213
 Alpha  occ. eigenvalues --   -1.04777  -1.03323  -0.95818  -0.95611  -0.86846
 Alpha  occ. eigenvalues --   -0.86168  -0.82458  -0.79392  -0.78019  -0.77516
 Alpha  occ. eigenvalues --   -0.72118  -0.71245  -0.70505  -0.65032  -0.64847
 Alpha  occ. eigenvalues --   -0.64787  -0.62161  -0.60725  -0.59163  -0.57397
 Alpha  occ. eigenvalues --   -0.55285  -0.55099  -0.53287  -0.52900  -0.52291
 Alpha  occ. eigenvalues --   -0.52197  -0.49751  -0.48886  -0.48869  -0.47701
 Alpha  occ. eigenvalues --   -0.46414  -0.45565  -0.45488  -0.44895  -0.43568
 Alpha  occ. eigenvalues --   -0.37334  -0.36311
 Alpha virt. eigenvalues --    0.05006   0.11220   0.16491   0.21278   0.23072
 Alpha virt. eigenvalues --    0.24427   0.26838   0.27073   0.27693   0.27944
 Alpha virt. eigenvalues --    0.28826   0.30378   0.31594   0.31750   0.32120

 Mulliken charges:
               1
     1  C   -0.170546
     2  C   -0.218286
     3  C   -0.171181
     4  C    0.161512
     5  C   -0.170832
     6  C   -0.218734
     7  H    0.225673
     8  H    0.223730
     9  H    0.275849
    10  H    0.275439
    11  H    0.223334
    12  N    0.488734
    13  O   -0.459175
    14  O   -0.461102
    15  C   -0.298293
    16  C   -0.299361
    17  C   -0.475631
    18  H    0.151402
    19  H    0.149913
    20  H    0.151280
    21  H    0.150671
    22  H    0.155279
    23  H    0.155863
    24  H    0.159364
    25  C   -0.298546
    26  C   -0.297545
    27  C   -0.483250
    28  H    0.148222
    29  H    0.146854
    30  H    0.157818
    31  H    0.153251
    32  H    0.147480
    33  H    0.153885
    34  H    0.166930
 Sum of Mulliken charges =  -0.00000

 Dipole moment (field-independent basis, Debye):
    X=              1.6487    Y=             -4.8856    Z=              0.3368  Tot=              5.1672
 Quadrupole moment (field-independent basis, Debye-Ang):
   XX=            -85.7436   YY=            -99.2212   ZZ=            -90.4224
   XY=            -14.1814   XZ=              3.5490   YZ=              1.5637

 Normal termination of Gaussian 16 at Thu May  6 09:26:21 2021.
