 Gaussian 16, Revision A.03,
 Gaussian 16:  EM64L-G16RevA.03 25-Dec-2016

 -------------
 #p 6-31g* mp2
 -------------

 ------------------------------------------------------
 Input file generated by CHIRIPA (05-May-2021 14:53:13)
 ------------------------------------------------------
 Symbolic Z-matrix:
 Charge =  0 Multiplicity = 1

                         Standard orientation:
 ---------------------------------------------------------------------
 Center     Atomic      Atomic             Coordinates (Angstroms)
 Number     Number       Type             X           Y           Z
 ---------------------------------------------------------------------
      1          6           0       -3.003552    0.925675   -0.059723
      2          6           0       -3.761332    2.229346    0.193647
      3          6           0       -2.907116    3.470121   -0.068241
      4          1           0       -2.109706    0.898588    0.578438
      5          1           0       -2.646278    0.913375   -1.098761
      6          1           0       -4.118261    2.238569    1.231497
      7          1           0       -4.653581    2.253246   -0.445052
      8          1           0       -2.562395    3.488224   -1.107203
      9          1           0       -2.024034    3.473464    0.578872
     10          1           0       -3.468447    4.390821    0.119051
     11          6           0       -3.844251   -0.323584    0.197775
     12          6           0       -3.086471   -1.627255   -0.055596
     13          6           0       -3.940688   -2.868030    0.206293
     14          1           0       -4.201526   -0.311284    1.236812
     15          1           0       -4.738098   -0.296497   -0.440386
     16          1           0       -2.194222   -1.651154    0.583103
     17          1           0       -2.729542   -1.636478   -1.093446
     18          1           0       -4.823770   -2.871373   -0.440821
     19          1           0       -4.285408   -2.886133    1.245254
     20          1           0       -3.379357   -3.788730    0.019001
     21          6           0        4.265853    1.710039    0.171783
     22          6           0        2.929569    1.935214   -0.174861
     23          6           0        2.039191    0.864971   -0.302738
     24          6           0        2.521118   -0.423250   -0.075747
     25          6           0        3.846723   -0.679905    0.270939
     26          6           0        4.719365    0.405498    0.393186
     27          1           0        4.950631    2.547318    0.268934
     28          1           0        2.574583    2.947273   -0.347399
     29          1           0        0.999595    1.010788   -0.569939
     30          1           0        4.171273   -1.700008    0.436694
     31          1           0        5.756607    0.227635    0.662517
     32          7           0        1.587903   -1.564293   -0.208145
     33          8           0        2.037231   -2.689732   -0.002898
     34          8           0        0.424790   -1.311597   -0.514657
 ---------------------------------------------------------------------

 SCF Done:  E(RHF) =  -669.535878097     A.U. after   15 cycles
 E2 =    -0.2091642126D+01 EUMP2 =    -0.67162752022319D+03

 The electronic state is 1-A.
 Alpha  occ. eigenvalues --  -20.60889 -20.60884 -15.85919 -11.31250 -11.27819
 Alpha  occ. eigenvalues --  -11.27802 -11.27557 -11.26827 -11.26813 -11.21291
 Alpha  occ. eigenvalues --  -11.21065 -11.20805 -11.20511 -11.20118 -11.19916
 Alpha  occ. eigenvalues --   -1.59956  -1.39510  -1.19421  -1.08826  -1.07702
 Alpha  occ. eigenvalues --   -1.04817  -1.02776  -0.95666  -0.95310  -0.86340
 Alpha  occ. eigenvalues --   -0.86216  -0.82501  -0.78891  -0.77621  -0.77298
 Alpha  occ. eigenvalues --   -0.72131  -0.71273  -0.70528  -0.65075  -0.64819
 Alpha  occ. eigenvalues --   -0.64348  -0.62162  -0.60182  -0.58726  -0.56850
 Alpha  occ. eigenvalues --   -0.55323  -0.54636  -0.53152  -0.52907  -0.52019
 Alpha  occ. eigenvalues --   -0.51718  -0.49308  -0.48928  -0.48903  -0.47159
 Alpha  occ. eigenvalues --   -0.45945  -0.45183  -0.44880  -0.44537  -0.43034
 Alpha  occ. eigenvalues --   -0.37403  -0.36420
 Alpha virt. eigenvalues --    0.04950   0.11227   0.16433   0.21007   0.23256
 Alpha virt. eigenvalues --    0.24892   0.26427   0.27431   0.27603   0.28531
 Alpha virt. eigenvalues --    0.29257   0.31100   0.31994   0.32137   0.32535

 Mulliken charges:
               1
     1  C   -0.297404
     2  C   -0.298662
     3  C   -0.475275
     4  H    0.149266
     5  H    0.149509
     6  H    0.151439
     7  H    0.152017
     8  H    0.152622
     9  H    0.149415
    10  H    0.159833
    11  C   -0.299385
    12  C   -0.298493
    13  C   -0.476747
    14  H    0.145478
    15  H    0.145572
    16  H    0.167844
    17  H    0.157182
    18  H    0.149215
    19  H    0.149834
    20  H    0.163950
    21  C   -0.170600
    22  C   -0.218982
    23  C   -0.172921
    24  C    0.157469
    25  C   -0.170664
    26  C   -0.218674
    27  H    0.225871
    28  H    0.224303
    29  H    0.278339
    30  H    0.275644
    31  H    0.223618
    32  N    0.490444
    33  O   -0.459690
    34  O   -0.461367
 Sum of Mulliken charges =  -0.00000

 Dipole moment (field-independent basis, Debye):
    X=              3.5065    Y=              3.8780    Z=              0.4313  Tot=              5.2460
 Quadrupole moment (field-independent basis, Debye-Ang):
   XX=            -76.7932   YY=            -97.8883   ZZ=            -94.5489
   XY=              5.8414   XZ=              2.4932   YZ=             -1.1849

 Normal termination of Gaussian 16 at Thu May  6 07:22:22 2021.
