 Gaussian 16, Revision A.03,
 Gaussian 16:  EM64L-G16RevA.03 25-Dec-2016

 -------------
 #p 6-31g* mp2
 -------------

 ------------------------------------------------------
 Input file generated by CHIRIPA (05-May-2021 14:51:14)
 ------------------------------------------------------
 Symbolic Z-matrix:
 Charge =  0 Multiplicity = 1

                         Standard orientation:
 ---------------------------------------------------------------------
 Center     Atomic      Atomic             Coordinates (Angstroms)
 Number     Number       Type             X           Y           Z
 ---------------------------------------------------------------------
      1          6           0       -5.278764   -0.097461   -0.206892
      2          6           0       -5.729825   -1.435838    0.379007
      3          6           0       -7.232763   -1.671618    0.226112
      4          1           0       -5.830749    0.715382    0.284580
      5          1           0       -5.550215   -0.060847   -1.271020
      6          1           0       -5.456368   -1.470477    1.441380
      7          1           0       -5.176564   -2.245577   -0.113782
      8          1           0       -7.518390   -1.663784   -0.830750
      9          1           0       -7.799784   -0.884280    0.733249
     10          1           0       -7.533492   -2.634065    0.651693
     11          6           0       -3.778741    0.152687   -0.061683
     12          6           0       -3.327681    1.491064   -0.647581
     13          6           0       -1.824742    1.726845   -0.494687
     14          1           0       -3.507291    0.116074    1.002445
     15          1           0       -3.226757   -0.660156   -0.553154
     16          1           0       -3.880942    2.300803   -0.154792
     17          1           0       -3.601137    1.525704   -1.709955
     18          1           0       -1.257722    0.939507   -1.001823
     19          1           0       -1.539116    1.719010    0.562175
     20          1           0       -1.524014    2.689291   -0.920267
     21          6           0        3.796766    0.103810   -0.039939
     22          6           0        3.127406    1.122973    0.882693
     23          6           0        1.663280    1.375276    0.521482
     24          1           0        3.729463    0.458369   -1.077582
     25          1           0        3.239075   -0.841941    0.004008
     26          1           0        3.687002    2.066094    0.838077
     27          1           0        3.196479    0.766038    1.918281
     28          1           0        1.085566    0.447435    0.584409
     29          1           0        1.578877    1.754876   -0.501934
     30          1           0        1.204286    2.106962    1.193657
     31          6           0        5.260740   -0.159036    0.308513
     32          6           0        5.930100   -1.178199   -0.614118
     33          6           0        7.394225   -1.430501   -0.252908
     34          1           0        5.818430    0.786714    0.264567
     35          1           0        5.328042   -0.513595    1.346157
     36          1           0        5.861027   -0.821265   -1.649706
     37          1           0        5.370504   -2.121320   -0.569502
     38          1           0        7.478628   -1.810104    0.770509
     39          1           0        7.971940   -0.502661   -0.315834
     40          1           0        7.853220   -2.162188   -0.925082
 ---------------------------------------------------------------------

 SCF Done:  E(RHF) =  -470.733067202     A.U. after   11 cycles
 E2 =    -0.1582371681D+01 EUMP2 =    -0.47231543888328D+03

 The electronic state is 1-A.
 Alpha  occ. eigenvalues --  -11.21579 -11.21579 -11.21517 -11.21513 -11.21367
 Alpha  occ. eigenvalues --  -11.21366 -11.21307 -11.21305 -11.21054 -11.21054
 Alpha  occ. eigenvalues --  -11.20942 -11.20921  -1.08392  -1.08377  -1.03508
 Alpha  occ. eigenvalues --   -1.03442  -0.96004  -0.95843  -0.87082  -0.86797
 Alpha  occ. eigenvalues --   -0.79676  -0.79400  -0.78228  -0.78165  -0.65020
 Alpha  occ. eigenvalues --   -0.65012  -0.60892  -0.60859  -0.59315  -0.59276
 Alpha  occ. eigenvalues --   -0.57598  -0.57484  -0.55243  -0.55176  -0.52851
 Alpha  occ. eigenvalues --   -0.52543  -0.52451  -0.52089  -0.49900  -0.49818
 Alpha  occ. eigenvalues --   -0.47996  -0.47699  -0.46594  -0.46544  -0.45812
 Alpha  occ. eigenvalues --   -0.45683  -0.45661  -0.45635  -0.43784  -0.43658
 Alpha virt. eigenvalues --    0.22490   0.23014   0.23570   0.24846   0.26368
 Alpha virt. eigenvalues --    0.26610   0.26676   0.27566   0.27627   0.29398
 Alpha virt. eigenvalues --    0.30366   0.31145   0.31394   0.32018   0.32305

 Mulliken charges:
               1
     1  C   -0.298146
     2  C   -0.299587
     3  C   -0.475671
     4  H    0.149576
     5  H    0.149458
     6  H    0.151811
     7  H    0.151815
     8  H    0.155154
     9  H    0.155148
    10  H    0.160136
    11  C   -0.298159
    12  C   -0.301204
    13  C   -0.474164
    14  H    0.149249
    15  H    0.149287
    16  H    0.151321
    17  H    0.151288
    18  H    0.156214
    19  H    0.157192
    20  H    0.159276
    21  C   -0.298265
    22  C   -0.301558
    23  C   -0.473017
    24  H    0.149420
    25  H    0.149226
    26  H    0.151394
    27  H    0.151326
    28  H    0.155835
    29  H    0.156017
    30  H    0.159910
    31  C   -0.298157
    32  C   -0.299582
    33  C   -0.475671
    34  H    0.149462
    35  H    0.149557
    36  H    0.151850
    37  H    0.151818
    38  H    0.155139
    39  H    0.155152
    40  H    0.160148
 Sum of Mulliken charges =  -0.00000

 Dipole moment (field-independent basis, Debye):
    X=              0.0031    Y=              0.0126    Z=             -0.0007  Tot=              0.0130
 Quadrupole moment (field-independent basis, Debye-Ang):
   XX=            -87.3066   YY=            -84.2069   ZZ=            -83.6010
   XY=              0.1328   XZ=             -0.5642   YZ=             -0.0358

 Normal termination of Gaussian 16 at Wed May  5 18:25:36 2021.
