 Gaussian 16, Revision A.03,
 Gaussian 16:  EM64L-G16RevA.03 25-Dec-2016

 -------------
 #p 6-31g* mp2
 -------------

 ------------------------------------------------------
 Input file generated by CHIRIPA (05-May-2021 14:51:10)
 ------------------------------------------------------
 Symbolic Z-matrix:
 Charge =  0 Multiplicity = 1

                         Standard orientation:
 ---------------------------------------------------------------------
 Center     Atomic      Atomic             Coordinates (Angstroms)
 Number     Number       Type             X           Y           Z
 ---------------------------------------------------------------------
      1          6           0        3.620155    0.462508   -0.006031
      2          6           0        3.295646    1.596285   -0.979287
      3          6           0        2.052566    2.387702   -0.571603
      4          1           0        2.757520   -0.214695    0.058798
      5          1           0        3.764656    0.881754    0.999328
      6          1           0        3.153162    1.175187   -1.982776
      7          1           0        4.159225    2.270763   -1.041952
      8          1           0        2.188050    2.834697    0.418569
      9          1           0        1.176271    1.732895   -0.527601
     10          1           0        1.838898    3.193193   -1.281102
     11          6           0        4.860255   -0.337855   -0.400111
     12          6           0        5.184764   -1.471632    0.573146
     13          6           0        6.427843   -2.263049    0.165462
     14          1           0        4.715753   -0.757101   -1.405470
     15          1           0        5.722889    0.339348   -0.464939
     16          1           0        4.321185   -2.146110    0.635811
     17          1           0        5.327247   -1.050534    1.576635
     18          1           0        7.304139   -1.608243    0.121460
     19          1           0        6.292360   -2.710044   -0.824710
     20          1           0        6.641511   -3.068540    0.874961
     21          6           0       -3.500901   -0.076840    0.394514
     22          6           0       -2.944073    1.297450    0.767678
     23          6           0       -1.463910    1.252103    1.148275
     24          1           0       -3.358973   -0.764647    1.239335
     25          1           0       -2.918438   -0.485737   -0.442705
     26          1           0       -3.528293    1.704235    1.603041
     27          1           0       -3.087515    1.982117   -0.078060
     28          1           0       -0.863665    0.870427    0.316031
     29          1           0       -1.306946    0.590967    2.006683
     30          1           0       -1.086435    2.245149    1.411395
     31          6           0       -4.979509   -0.047812    0.011627
     32          6           0       -5.536337   -1.422104   -0.361537
     33          6           0       -7.016500   -1.376756   -0.742133
     34          1           0       -5.561972    0.361085    0.848846
     35          1           0       -5.121437    0.639995   -0.833194
     36          1           0       -5.392893   -2.106769    0.484201
     37          1           0       -4.952116   -1.828887   -1.196899
     38          1           0       -7.173463   -0.715619   -1.600541
     39          1           0       -7.616745   -0.995080    0.090111
     40          1           0       -7.393975   -2.369802   -1.005254
 ---------------------------------------------------------------------

 SCF Done:  E(RHF) =  -470.733053942     A.U. after   11 cycles
 E2 =    -0.1582360666D+01 EUMP2 =    -0.47231541460799D+03

 The electronic state is 1-A.
 Alpha  occ. eigenvalues --  -11.21605 -11.21586 -11.21575 -11.21547 -11.21406
 Alpha  occ. eigenvalues --  -11.21367 -11.21347 -11.21306 -11.21074 -11.21052
 Alpha  occ. eigenvalues --  -11.21038 -11.20958  -1.08429  -1.08389  -1.03534
 Alpha  occ. eigenvalues --   -1.03476  -0.96005  -0.95904  -0.87050  -0.86895
 Alpha  occ. eigenvalues --   -0.79646  -0.79494  -0.78249  -0.78194  -0.65077
 Alpha  occ. eigenvalues --   -0.65009  -0.61018  -0.60811  -0.59343  -0.59300
 Alpha  occ. eigenvalues --   -0.57599  -0.57540  -0.55440  -0.55076  -0.52742
 Alpha  occ. eigenvalues --   -0.52619  -0.52438  -0.52258  -0.50107  -0.49692
 Alpha  occ. eigenvalues --   -0.47965  -0.47800  -0.46724  -0.46456  -0.45816
 Alpha  occ. eigenvalues --   -0.45741  -0.45695  -0.45605  -0.43772  -0.43740
 Alpha virt. eigenvalues --    0.22221   0.23002   0.23604   0.24729   0.26014
 Alpha virt. eigenvalues --    0.26787   0.26986   0.27548   0.27749   0.29083
 Alpha virt. eigenvalues --    0.29970   0.31372   0.31793   0.31946   0.32263

 Mulliken charges:
               1
     1  C   -0.298099
     2  C   -0.299629
     3  C   -0.480800
     4  H    0.149498
     5  H    0.149663
     6  H    0.151262
     7  H    0.151571
     8  H    0.154907
     9  H    0.162076
    10  H    0.159308
    11  C   -0.298248
    12  C   -0.299619
    13  C   -0.475678
    14  H    0.149312
    15  H    0.149584
    16  H    0.151947
    17  H    0.151932
    18  H    0.155131
    19  H    0.155100
    20  H    0.160169
    21  C   -0.298459
    22  C   -0.299743
    23  C   -0.478366
    24  H    0.149623
    25  H    0.149235
    26  H    0.151887
    27  H    0.152148
    28  H    0.157002
    29  H    0.155027
    30  H    0.162204
    31  C   -0.298271
    32  C   -0.299642
    33  C   -0.475706
    34  H    0.149592
    35  H    0.149690
    36  H    0.151927
    37  H    0.151825
    38  H    0.155194
    39  H    0.155213
    40  H    0.160236
 Sum of Mulliken charges =  -0.00000

 Dipole moment (field-independent basis, Debye):
    X=             -0.0249    Y=              0.0064    Z=              0.0180  Tot=              0.0314
 Quadrupole moment (field-independent basis, Debye-Ang):
   XX=            -86.4263   YY=            -84.8499   ZZ=            -83.6429
   XY=              0.8255   XZ=             -0.0695   YZ=              0.0882

 Normal termination of Gaussian 16 at Wed May  5 16:42:11 2021.
