 Gaussian 16, Revision A.03,
 Gaussian 16:  EM64L-G16RevA.03 25-Dec-2016

 -------------
 #p 6-31g* mp2
 -------------

 ------------------------------------------------------
 Input file generated by CHIRIPA (05-May-2021 14:53:11)
 ------------------------------------------------------
 Symbolic Z-matrix:
 Charge =  0 Multiplicity = 1

                         Standard orientation:
 ---------------------------------------------------------------------
 Center     Atomic      Atomic             Coordinates (Angstroms)
 Number     Number       Type             X           Y           Z
 ---------------------------------------------------------------------
      1          6           0        3.436617   -0.741978    0.741261
      2          6           0        2.042077   -1.219559    0.334861
      3          6           0        1.313952   -1.947810    1.465028
      4          1           0        4.032605   -1.605581    1.066732
      5          1           0        3.349587   -0.076514    1.611306
      6          1           0        2.131585   -1.882825   -0.535014
      7          1           0        1.449401   -0.354743    0.010138
      8          1           0        1.195287   -1.291096    2.332926
      9          1           0        1.881347   -2.827861    1.784677
     10          1           0        0.319129   -2.280551    1.152826
     11          6           0        4.177083   -0.012110   -0.377994
     12          6           0        5.571623    0.465471    0.028405
     13          6           0        6.299748    1.193722   -1.101762
     14          1           0        4.264113   -0.677574   -1.248039
     15          1           0        3.581095    0.851494   -0.703465
     16          1           0        6.164299   -0.399344    0.353129
     17          1           0        5.482115    1.128738    0.898280
     18          1           0        5.732353    2.073773   -1.421411
     19          1           0        6.418413    0.537008   -1.969660
     20          1           0        7.294571    1.526463   -0.789560
     21          6           0       -2.406300    2.677239    0.463401
     22          6           0       -1.384976    1.765065    0.178175
     23          6           0       -1.687905    0.442372   -0.158376
     24          6           0       -3.028994    0.064217   -0.200419
     25          6           0       -4.068977    0.949606    0.078532
     26          6           0       -3.742685    2.267322    0.412759
     27          1           0       -2.161904    3.702805    0.723939
     28          1           0       -0.346233    2.080613    0.216727
     29          1           0       -0.917005   -0.284481   -0.383800
     30          1           0       -5.095076    0.605563    0.031902
     31          1           0       -4.537932    2.973561    0.633786
     32          7           0       -3.362057   -1.333423   -0.555481
     33          8           0       -4.551472   -1.641683   -0.585598
     34          8           0       -2.427393   -2.094171   -0.796937
 ---------------------------------------------------------------------

 SCF Done:  E(RHF) =  -669.535646459     A.U. after   15 cycles
 E2 =    -0.2091982887D+01 EUMP2 =    -0.67162762934642D+03

 The electronic state is 1-A.
 Alpha  occ. eigenvalues --  -20.60805 -20.60799 -15.85845 -11.31162 -11.27746
 Alpha  occ. eigenvalues --  -11.27693 -11.27493 -11.26756 -11.26743 -11.22054
 Alpha  occ. eigenvalues --  -11.21913 -11.21773 -11.21714 -11.21347 -11.21153
 Alpha  occ. eigenvalues --   -1.59870  -1.39425  -1.19343  -1.08788  -1.08749
 Alpha  occ. eigenvalues --   -1.04746  -1.03841  -0.96255  -0.95587  -0.87261
 Alpha  occ. eigenvalues --   -0.86144  -0.82426  -0.79919  -0.78621  -0.77470
 Alpha  occ. eigenvalues --   -0.72067  -0.71186  -0.70468  -0.65447  -0.64996
 Alpha  occ. eigenvalues --   -0.64757  -0.62193  -0.61180  -0.59591  -0.57859
 Alpha  occ. eigenvalues --   -0.55552  -0.55234  -0.53075  -0.52942  -0.52830
 Alpha  occ. eigenvalues --   -0.52624  -0.50199  -0.48830  -0.48819  -0.48208
 Alpha  occ. eigenvalues --   -0.46968  -0.46154  -0.46067  -0.44840  -0.44075
 Alpha  occ. eigenvalues --   -0.37330  -0.36339
 Alpha virt. eigenvalues --    0.05037   0.11286   0.16531   0.19726   0.22744
 Alpha virt. eigenvalues --    0.23855   0.25386   0.26432   0.26917   0.28211
 Alpha virt. eigenvalues --    0.29217   0.30119   0.31424   0.31577   0.32277

 Mulliken charges:
               1
     1  C   -0.298018
     2  C   -0.302097
     3  C   -0.484117
     4  H    0.153364
     5  H    0.147771
     6  H    0.159926
     7  H    0.136142
     8  H    0.152370
     9  H    0.159064
    10  H    0.175120
    11  C   -0.297722
    12  C   -0.299836
    13  C   -0.475747
    14  H    0.152375
    15  H    0.144455
    16  H    0.153783
    17  H    0.150979
    18  H    0.153799
    19  H    0.156633
    20  H    0.161184
    21  C   -0.170455
    22  C   -0.221897
    23  C   -0.178142
    24  C    0.158869
    25  C   -0.170217
    26  C   -0.219065
    27  H    0.225446
    28  H    0.223262
    29  H    0.287231
    30  H    0.275455
    31  H    0.223394
    32  N    0.488321
    33  O   -0.459760
    34  O   -0.461868
 Sum of Mulliken charges =  -0.00000

 Dipole moment (field-independent basis, Debye):
    X=              1.2374    Y=              4.7728    Z=              1.2612  Tot=              5.0893
 Quadrupole moment (field-independent basis, Debye-Ang):
   XX=            -96.9478   YY=            -93.6535   ZZ=            -96.5300
   XY=            -17.1685   XZ=             -4.3091   YZ=             -0.1362

 Normal termination of Gaussian 16 at Thu May  6 00:53:25 2021.
