 Gaussian 16, Revision A.03,
 Gaussian 16:  EM64L-G16RevA.03 25-Dec-2016

 -------------
 #p 6-31g* mp2
 -------------

 ------------------------------------------------------
 Input file generated by CHIRIPA (05-May-2021 14:53:12)
 ------------------------------------------------------
 Symbolic Z-matrix:
 Charge =  0 Multiplicity = 1

                         Standard orientation:
 ---------------------------------------------------------------------
 Center     Atomic      Atomic             Coordinates (Angstroms)
 Number     Number       Type             X           Y           Z
 ---------------------------------------------------------------------
      1          6           0       -1.873849    1.279758    0.209530
      2          6           0       -1.266750    2.383331   -0.657386
      3          6           0        0.033276    2.942178   -0.078236
      4          1           0       -2.059848    1.674766    1.217657
      5          1           0       -1.142491    0.467457    0.322121
      6          1           0       -1.999549    3.192690   -0.769452
      7          1           0       -1.082353    1.985704   -1.663620
      8          1           0        0.783757    2.150873    0.017757
      9          1           0       -0.138650    3.364717    0.917005
     10          1           0        0.450039    3.729723   -0.713800
     11          6           0       -3.173890    0.711049   -0.356324
     12          6           0       -3.780989   -0.392523    0.510592
     13          6           0       -5.081015   -0.951371   -0.068558
     14          1           0       -3.905249    1.523350   -0.468915
     15          1           0       -2.987892    0.316041   -1.364451
     16          1           0       -3.965386    0.005103    1.516826
     17          1           0       -3.048190   -1.201883    0.622658
     18          1           0       -4.909089   -1.373910   -1.063799
     19          1           0       -5.831497   -0.160066   -0.164551
     20          1           0       -5.497779   -1.738915    0.567006
     21          6           0        0.111805   -2.478401   -0.060647
     22          6           0        0.894928   -2.218031   -1.190003
     23          6           0        1.928156   -1.277771   -1.136143
     24          6           0        2.151588   -0.613238    0.068748
     25          6           0        1.388671   -0.850615    1.211070
     26          6           0        0.360737   -1.795066    1.134179
     27          1           0       -0.688775   -3.210444   -0.111432
     28          1           0        0.703878   -2.747210   -2.119258
     29          1           0        2.549712   -1.056758   -1.995351
     30          1           0        1.603079   -0.307228    2.123308
     31          1           0       -0.245844   -1.995235    2.012836
     32          7           0        3.242618    0.384391    0.137958
     33          8           0        3.419234    0.956443    1.211364
     34          8           0        3.900491    0.575392   -0.882512
 ---------------------------------------------------------------------

 SCF Done:  E(RHF) =  -669.534305310     A.U. after   15 cycles
 E2 =    -0.2095771535D+01 EUMP2 =    -0.67163007684463D+03

 The electronic state is 1-A.
 Alpha  occ. eigenvalues --  -20.60895 -20.60885 -15.85931 -11.31340 -11.27910
 Alpha  occ. eigenvalues --  -11.27878 -11.27649 -11.26933 -11.26896 -11.22123
 Alpha  occ. eigenvalues --  -11.21640 -11.21577 -11.21506 -11.21309 -11.20792
 Alpha  occ. eigenvalues --   -1.59962  -1.39513  -1.19533  -1.08918  -1.08605
 Alpha  occ. eigenvalues --   -1.04928  -1.03696  -0.96115  -0.95734  -0.87133
 Alpha  occ. eigenvalues --   -0.86315  -0.82557  -0.79795  -0.78412  -0.77595
 Alpha  occ. eigenvalues --   -0.72151  -0.71309  -0.70610  -0.65285  -0.65162
 Alpha  occ. eigenvalues --   -0.64902  -0.62255  -0.61115  -0.59526  -0.57728
 Alpha  occ. eigenvalues --   -0.55435  -0.55402  -0.53372  -0.52999  -0.52801
 Alpha  occ. eigenvalues --   -0.52521  -0.50085  -0.48917  -0.48908  -0.48100
 Alpha  occ. eigenvalues --   -0.46870  -0.45930  -0.45806  -0.44856  -0.43916
 Alpha  occ. eigenvalues --   -0.37474  -0.36421
 Alpha virt. eigenvalues --    0.04896   0.10989   0.16331   0.20594   0.22877
 Alpha virt. eigenvalues --    0.23978   0.26004   0.26643   0.27558   0.27813
 Alpha virt. eigenvalues --    0.28598   0.30739   0.31111   0.31555   0.31855

 Mulliken charges:
               1
     1  C   -0.308973
     2  C   -0.299288
     3  C   -0.474876
     4  H    0.146495
     5  H    0.161183
     6  H    0.150976
     7  H    0.150182
     8  H    0.152979
     9  H    0.155640
    10  H    0.164145
    11  C   -0.296412
    12  C   -0.299320
    13  C   -0.475592
    14  H    0.150727
    15  H    0.147794
    16  H    0.152571
    17  H    0.141690
    18  H    0.153739
    19  H    0.158297
    20  H    0.158760
    21  C   -0.170030
    22  C   -0.218484
    23  C   -0.171591
    24  C    0.156525
    25  C   -0.171731
    26  C   -0.220026
    27  H    0.227022
    28  H    0.224341
    29  H    0.276471
    30  H    0.277067
    31  H    0.225982
    32  N    0.491190
    33  O   -0.458472
    34  O   -0.458981
 Sum of Mulliken charges =  -0.00000

 Dipole moment (field-independent basis, Debye):
    X=             -3.6783    Y=             -3.5151    Z=             -0.2387  Tot=              5.0935
 Quadrupole moment (field-independent basis, Debye-Ang):
   XX=           -112.5774   YY=            -90.5902   ZZ=            -90.0013
   XY=             -6.3219   XZ=             -2.5298   YZ=              1.1222

 Normal termination of Gaussian 16 at Thu May  6 17:00:22 2021.
