 Gaussian 16, Revision A.03,
 Gaussian 16:  EM64L-G16RevA.03 25-Dec-2016

 -------------
 #p 6-31g* mp2
 -------------

 ------------------------------------------------------
 Input file generated by CHIRIPA (05-May-2021 14:57:21)
 ------------------------------------------------------
 Symbolic Z-matrix:
 Charge =  0 Multiplicity = 1

                         Standard orientation:
 ---------------------------------------------------------------------
 Center     Atomic      Atomic             Coordinates (Angstroms)
 Number     Number       Type             X           Y           Z
 ---------------------------------------------------------------------
      1          6           0       -3.475501   -2.003233   -0.174844
      2          6           0       -3.138578   -1.244879   -1.300856
      3          6           0       -2.733265    0.086225   -1.165089
      4          6           0       -2.675922    0.629550    0.117409
      5          6           0       -3.005220   -0.100223    1.258585
      6          6           0       -3.407865   -1.429497    1.099037
      7          1           0       -3.789321   -3.036556   -0.289549
      8          1           0       -3.190176   -1.687832   -2.291399
      9          1           0       -2.466797    0.696078   -2.019777
     10          1           0       -2.943997    0.368918    2.233047
     11          1           0       -3.668933   -2.016059    1.975297
     12          7           0       -2.248247    2.037762    0.273727
     13          8           0       -2.205992    2.493145    1.414550
     14          8           0       -1.963389    2.659469   -0.747533
     15          6           0        4.775399    1.085666    0.130740
     16          6           0        4.677145   -0.084666    0.890469
     17          6           0        3.557516   -0.913964    0.775389
     18          6           0        2.550253   -0.540844   -0.113145
     19          6           0        2.618973    0.618786   -0.883747
     20          6           0        3.747810    1.433045   -0.752387
     21          1           0        5.648730    1.724043    0.226460
     22          1           0        5.473653   -0.356944    1.577117
     23          1           0        3.455709   -1.825644    1.351490
     24          1           0        1.808847    0.863874   -1.559798
     25          1           0        3.821418    2.341348   -1.343666
     26          7           0        1.360077   -1.410823   -0.243592
     27          8           0        0.486292   -1.059873   -1.033511
     28          8           0        1.323537   -2.427191    0.446552
 ---------------------------------------------------------------------

 SCF Done:  E(RHF) =  -868.339113469     A.U. after   16 cycles
 E2 =    -0.2599940146D+01 EUMP2 =    -0.87093905361454D+03

 The electronic state is 1-A.
 Alpha  occ. eigenvalues --  -20.60889 -20.60880 -20.60053 -20.60039 -15.85920
 Alpha  occ. eigenvalues --  -15.85086 -11.31080 -11.30012 -11.27656 -11.27592
 Alpha  occ. eigenvalues --  -11.27344 -11.26629 -11.26614 -11.26564 -11.26554
 Alpha  occ. eigenvalues --  -11.26261 -11.25553 -11.25463  -1.59956  -1.59131
 Alpha  occ. eigenvalues --   -1.39519  -1.38698  -1.19237  -1.18155  -1.08675
 Alpha  occ. eigenvalues --   -1.07647  -1.04607  -1.03524  -0.95545  -0.94558
 Alpha  occ. eigenvalues --   -0.86020  -0.84969  -0.82387  -0.81426  -0.77454
 Alpha  occ. eigenvalues --   -0.76513  -0.72173  -0.71331  -0.71273  -0.70432
 Alpha  occ. eigenvalues --   -0.70352  -0.69339  -0.64898  -0.64612  -0.63852
 Alpha  occ. eigenvalues --   -0.63586  -0.61957  -0.60931  -0.55129  -0.54091
 Alpha  occ. eigenvalues --   -0.52952  -0.52701  -0.51832  -0.51673  -0.48916
 Alpha  occ. eigenvalues --   -0.48861  -0.48096  -0.48042  -0.44965  -0.44202
 Alpha  occ. eigenvalues --   -0.37215  -0.36197  -0.36084  -0.35010
 Alpha virt. eigenvalues --    0.05051   0.06025   0.11457   0.12590   0.16605
 Alpha virt. eigenvalues --    0.17613   0.21593   0.22514   0.27509   0.28271
 Alpha virt. eigenvalues --    0.28543   0.29373   0.31133   0.31989   0.32645

 Mulliken charges:
               1
     1  C   -0.165263
     2  C   -0.207022
     3  C   -0.155243
     4  C    0.157396
     5  C   -0.172631
     6  C   -0.215991
     7  H    0.222912
     8  H    0.220363
     9  H    0.269674
    10  H    0.270167
    11  H    0.219336
    12  N    0.487698
    13  O   -0.465021
    14  O   -0.467118
    15  C   -0.170034
    16  C   -0.218539
    17  C   -0.170991
    18  C    0.157388
    19  C   -0.169223
    20  C   -0.217694
    21  H    0.226124
    22  H    0.222864
    23  H    0.273814
    24  H    0.277882
    25  H    0.226324
    26  N    0.490194
    27  O   -0.464633
    28  O   -0.462732
 Sum of Mulliken charges =  -0.00000

 Dipole moment (field-independent basis, Debye):
    X=              2.8503    Y=             -2.0297    Z=             -0.2480  Tot=              3.5079
 Quadrupole moment (field-independent basis, Debye-Ang):
   XX=            -76.1069   YY=           -113.7855   ZZ=            -98.4330
   XY=             17.6971   XZ=              3.2277   YZ=             -4.4364

 Normal termination of Gaussian 16 at Thu May  6 21:07:11 2021.
