 Gaussian 16, Revision A.03,
 Gaussian 16:  EM64L-G16RevA.03 25-Dec-2016

 -------------
 #p 6-31g* mp2
 -------------

 ------------------------------------------------------
 Input file generated by CHIRIPA (05-May-2021 14:53:13)
 ------------------------------------------------------
 Symbolic Z-matrix:
 Charge =  0 Multiplicity = 1

                         Standard orientation:
 ---------------------------------------------------------------------
 Center     Atomic      Atomic             Coordinates (Angstroms)
 Number     Number       Type             X           Y           Z
 ---------------------------------------------------------------------
      1          6           0       -2.605672    1.335812    0.182707
      2          6           0       -1.248797    1.968740   -0.127579
      3          6           0       -0.999636    3.251723    0.665937
      4          1           0       -3.400361    2.062786   -0.033907
      5          1           0       -2.664315    1.119900    1.258504
      6          1           0       -1.192191    2.182123   -1.202697
      7          1           0       -0.457255    1.240108    0.089617
      8          1           0       -1.029177    3.051143    1.741807
      9          1           0       -1.768289    3.998511    0.442150
     10          1           0       -0.024055    3.687419    0.428722
     11          6           0       -2.869344    0.052419   -0.602855
     12          6           0       -4.226218   -0.580509   -0.292569
     13          6           0       -4.475379   -1.863492   -1.086085
     14          1           0       -2.810700    0.268330   -1.678652
     15          1           0       -2.074654   -0.674555   -0.386241
     16          1           0       -5.017760    0.148122   -0.509765
     17          1           0       -4.282824   -0.793893    0.782549
     18          1           0       -3.706727   -2.610281   -0.862298
     19          1           0       -4.445838   -1.662913   -2.161955
     20          1           0       -5.450960   -2.299189   -0.848870
     21          6           0        3.606392    0.776215   -1.408558
     22          6           0        3.044107    1.398108   -0.288912
     23          6           0        2.229332    0.677337    0.589256
     24          6           0        1.996784   -0.669745    0.316161
     25          6           0        2.542574   -1.317624   -0.790933
     26          6           0        3.354275   -0.577281   -1.655559
     27          1           0        4.238136    1.343729   -2.085480
     28          1           0        3.238180    2.449116   -0.094591
     29          1           0        1.781298    1.133840    1.463493
     30          1           0        2.330942   -2.366724   -0.958327
     31          1           0        3.789618   -1.062866   -2.524310
     32          7           0        1.135845   -1.443152    1.238671
     33          8           0        0.946310   -2.628750    0.975857
     34          8           0        0.666878   -0.849107    2.207080
 ---------------------------------------------------------------------

 SCF Done:  E(RHF) =  -669.535252100     A.U. after   15 cycles
 E2 =    -0.2093656085D+01 EUMP2 =    -0.67162890818532D+03

 The electronic state is 1-A.
 Alpha  occ. eigenvalues --  -20.60928 -20.60916 -15.85960 -11.31251 -11.27835
 Alpha  occ. eigenvalues --  -11.27819 -11.27569 -11.26825 -11.26815 -11.21380
 Alpha  occ. eigenvalues --  -11.21141 -11.21090 -11.20978 -11.20903 -11.20558
 Alpha  occ. eigenvalues --   -1.59991  -1.39546  -1.19443  -1.08844  -1.08047
 Alpha  occ. eigenvalues --   -1.04837  -1.03216  -0.95712  -0.95655  -0.86700
 Alpha  occ. eigenvalues --   -0.86239  -0.82518  -0.79295  -0.77860  -0.77566
 Alpha  occ. eigenvalues --   -0.72178  -0.71321  -0.70555  -0.65095  -0.64872
 Alpha  occ. eigenvalues --   -0.64623  -0.62201  -0.60596  -0.59088  -0.57297
 Alpha  occ. eigenvalues --   -0.55341  -0.54947  -0.53182  -0.52915  -0.52408
 Alpha  occ. eigenvalues --   -0.52110  -0.49608  -0.48941  -0.48932  -0.47611
 Alpha  occ. eigenvalues --   -0.46323  -0.45428  -0.45292  -0.44880  -0.43456
 Alpha  occ. eigenvalues --   -0.37388  -0.36370
 Alpha virt. eigenvalues --    0.04935   0.11147   0.16404   0.20807   0.23169
 Alpha virt. eigenvalues --    0.24339   0.26797   0.26912   0.27689   0.28091
 Alpha virt. eigenvalues --    0.29320   0.29967   0.31691   0.32040   0.32321

 Mulliken charges:
               1
     1  C   -0.298205
     2  C   -0.303139
     3  C   -0.477870
     4  H    0.146681
     5  H    0.157592
     6  H    0.148535
     7  H    0.155010
     8  H    0.159475
     9  H    0.156879
    10  H    0.149227
    11  C   -0.298851
    12  C   -0.299626
    13  C   -0.476764
    14  H    0.145429
    15  H    0.153818
    16  H    0.149141
    17  H    0.156581
    18  H    0.160299
    19  H    0.151825
    20  H    0.159199
    21  C   -0.170381
    22  C   -0.217960
    23  C   -0.173787
    24  C    0.160427
    25  C   -0.170590
    26  C   -0.218518
    27  H    0.226027
    28  H    0.224095
    29  H    0.277935
    30  H    0.275791
    31  H    0.223744
    32  N    0.488800
    33  O   -0.459799
    34  O   -0.461018
 Sum of Mulliken charges =  -0.00000

 Dipole moment (field-independent basis, Debye):
    X=              3.0871    Y=              2.5962    Z=             -3.1672  Tot=              5.1285
 Quadrupole moment (field-independent basis, Debye-Ang):
   XX=            -83.1363   YY=            -96.2254   ZZ=            -95.4357
   XY=              2.4733   XZ=             -6.3713   YZ=              4.8631

 Normal termination of Gaussian 16 at Thu May  6 15:22:07 2021.
