 Gaussian 16, Revision A.03,
 Gaussian 16:  EM64L-G16RevA.03 25-Dec-2016

 -------------
 #p 6-31g* mp2
 -------------

 ------------------------------------------------------
 Input file generated by CHIRIPA (05-May-2021 14:53:11)
 ------------------------------------------------------
 Symbolic Z-matrix:
 Charge =  0 Multiplicity = 1

                         Standard orientation:
 ---------------------------------------------------------------------
 Center     Atomic      Atomic             Coordinates (Angstroms)
 Number     Number       Type             X           Y           Z
 ---------------------------------------------------------------------
      1          6           0        5.284205   -0.468961    0.246272
      2          6           0        6.487246   -0.477476   -0.697448
      3          6           0        7.495209   -1.576658   -0.360396
      4          1           0        5.637063   -0.340808    1.278751
      5          1           0        4.787650   -1.448307    0.204942
      6          1           0        6.980571    0.502053   -0.655390
      7          1           0        6.131470   -0.605432   -1.727820
      8          1           0        7.024201   -2.563093   -0.421196
      9          1           0        7.878126   -1.449316    0.657327
     10          1           0        8.347116   -1.564555   -1.047395
     11          6           0        4.267665    0.624330   -0.077906
     12          6           0        3.064625    0.632845    0.865813
     13          6           0        2.056661    1.732027    0.528761
     14          1           0        4.764221    1.603676   -0.036577
     15          1           0        3.914808    0.496177   -1.110385
     16          1           0        3.420401    0.760801    1.896185
     17          1           0        2.571300   -0.346684    0.823755
     18          1           0        1.673744    1.604685   -0.488962
     19          1           0        2.527670    2.718462    0.589561
     20          1           0        1.204754    1.719924    1.215760
     21          6           0       -2.088976    1.850968   -0.186522
     22          6           0       -3.444763    2.075306   -0.447353
     23          6           0       -4.363615    1.023562   -0.383362
     24          6           0       -3.889964   -0.245503   -0.054094
     25          6           0       -2.545433   -0.500807    0.211138
     26          6           0       -1.644421    0.565894    0.141314
     27          1           0       -1.382119    2.673797   -0.238497
     28          1           0       -3.792852    3.072268   -0.702198
     29          1           0       -5.418757    1.169185   -0.580560
     30          1           0       -2.228390   -1.505627    0.462610
     31          1           0       -0.592079    0.388731    0.344375
     32          7           0       -4.853268   -1.366854    0.016739
     33          8           0       -4.410695   -2.475616    0.308995
     34          8           0       -6.032638   -1.115775   -0.221340
 ---------------------------------------------------------------------

 SCF Done:  E(RHF) =  -669.535412075     A.U. after   15 cycles
 E2 =    -0.2091266199D+01 EUMP2 =    -0.67162667827343D+03

 The electronic state is 1-A.
 Alpha  occ. eigenvalues --  -20.60706 -20.60701 -15.85758 -11.31104 -11.27674
 Alpha  occ. eigenvalues --  -11.27656 -11.27385 -11.26684 -11.26597 -11.22638
 Alpha  occ. eigenvalues --  -11.22420 -11.22161 -11.22077 -11.21958 -11.21445
 Alpha  occ. eigenvalues --   -1.59782  -1.39336  -1.19270  -1.09172  -1.08666
 Alpha  occ. eigenvalues --   -1.04674  -1.04318  -0.96795  -0.95504  -0.87827
 Alpha  occ. eigenvalues --   -0.86060  -0.82338  -0.80399  -0.78921  -0.77394
 Alpha  occ. eigenvalues --   -0.71977  -0.71105  -0.70373  -0.65817  -0.64919
 Alpha  occ. eigenvalues --   -0.64715  -0.62132  -0.61640  -0.60161  -0.58364
 Alpha  occ. eigenvalues --   -0.56071  -0.55154  -0.53565  -0.53231  -0.52993
 Alpha  occ. eigenvalues --   -0.52659  -0.50707  -0.48742  -0.48734  -0.48688
 Alpha  occ. eigenvalues --   -0.47409  -0.46477  -0.46364  -0.44746  -0.44550
 Alpha  occ. eigenvalues --   -0.37248  -0.36274
 Alpha virt. eigenvalues --    0.05138   0.11312   0.16640   0.19948   0.22469
 Alpha virt. eigenvalues --    0.23716   0.25853   0.26195   0.26599   0.27722
 Alpha virt. eigenvalues --    0.29089   0.30308   0.30535   0.30950   0.31791

 Mulliken charges:
               1
     1  C   -0.299078
     2  C   -0.300260
     3  C   -0.476171
     4  H    0.151036
     5  H    0.150692
     6  H    0.152485
     7  H    0.152675
     8  H    0.156183
     9  H    0.155871
    10  H    0.161750
    11  C   -0.299073
    12  C   -0.301263
    13  C   -0.487291
    14  H    0.151348
    15  H    0.150702
    16  H    0.156879
    17  H    0.151241
    18  H    0.154162
    19  H    0.162374
    20  H    0.156677
    21  C   -0.174527
    22  C   -0.218491
    23  C   -0.171398
    24  C    0.158824
    25  C   -0.172342
    26  C   -0.225445
    27  H    0.227501
    28  H    0.223051
    29  H    0.275235
    30  H    0.275332
    31  H    0.234707
    32  N    0.488014
    33  O   -0.460697
    34  O   -0.460703
 Sum of Mulliken charges =  -0.00000

 Dipole moment (field-independent basis, Debye):
    X=              3.6863    Y=              3.9632    Z=             -0.2442  Tot=              5.4181
 Quadrupole moment (field-independent basis, Debye-Ang):
   XX=           -118.1814   YY=            -95.2282   ZZ=            -94.8990
   XY=            -18.0739   XZ=              2.1240   YZ=             -0.5400

 Normal termination of Gaussian 16 at Thu May  6 00:54:04 2021.
