 Gaussian 16, Revision A.03,
 Gaussian 16:  EM64L-G16RevA.03 25-Dec-2016

 -------------
 #p 6-31g* mp2
 -------------

 ------------------------------------------------------
 Input file generated by CHIRIPA (05-May-2021 14:57:26)
 ------------------------------------------------------
 Symbolic Z-matrix:
 Charge =  0 Multiplicity = 1

                         Standard orientation:
 ---------------------------------------------------------------------
 Center     Atomic      Atomic             Coordinates (Angstroms)
 Number     Number       Type             X           Y           Z
 ---------------------------------------------------------------------
      1          6           0       -4.041027    2.340810   -0.686654
      2          6           0       -2.960982    2.196649    0.190410
      3          6           0       -2.599370    0.934176    0.669937
      4          6           0       -3.343025   -0.167566    0.249899
      5          6           0       -4.424202   -0.056367   -0.623016
      6          6           0       -4.767909    1.215825   -1.089857
      7          1           0       -4.314981    3.325305   -1.054235
      8          1           0       -2.394677    3.068560    0.505236
      9          1           0       -1.767737    0.793954    1.349748
     10          1           0       -4.969773   -0.944154   -0.918999
     11          1           0       -5.607158    1.324782   -1.770911
     12          7           0       -2.969680   -1.509235    0.750838
     13          8           0       -3.640839   -2.464149    0.365712
     14          8           0       -2.012964   -1.580516    1.519114
     15          6           0        5.650784    0.926487    0.432578
     16          6           0        4.478848    1.506088    0.929723
     17          6           0        3.228810    0.971496    0.603894
     18          6           0        3.187400   -0.148304   -0.225335
     19          6           0        4.337174   -0.748383   -0.736427
     20          6           0        5.576337   -0.196917   -0.397448
     21          1           0        6.617620    1.348325    0.690798
     22          1           0        4.533634    2.378586    1.574539
     23          1           0        2.305783    1.400254    0.974848
     24          1           0        4.250631   -1.617622   -1.377014
     25          1           0        6.484826   -0.649134   -0.784995
     26          7           0        1.869796   -0.723184   -0.577237
     27          8           0        1.860270   -1.710161   -1.309644
     28          8           0        0.871533   -0.175910   -0.113986
 ---------------------------------------------------------------------

 SCF Done:  E(RHF) =  -868.337261383     A.U. after   16 cycles
 E2 =    -0.2599951496D+01 EUMP2 =    -0.87093721287877D+03

 The electronic state is 1-A.
 Alpha  occ. eigenvalues --  -20.60621 -20.60616 -20.59540 -20.59469 -15.85678
 Alpha  occ. eigenvalues --  -15.84566 -11.31137 -11.30059 -11.27754 -11.27689
 Alpha  occ. eigenvalues --  -11.27470 -11.26771 -11.26731 -11.26731 -11.26635
 Alpha  occ. eigenvalues --  -11.26553 -11.25792 -11.25765  -1.59674  -1.58565
 Alpha  occ. eigenvalues --   -1.39234  -1.38117  -1.19314  -1.18281  -1.08688
 Alpha  occ. eigenvalues --   -1.07667  -1.04738  -1.03724  -0.95512  -0.94473
 Alpha  occ. eigenvalues --   -0.86131  -0.85120  -0.82352  -0.81319  -0.77389
 Alpha  occ. eigenvalues --   -0.76313  -0.71914  -0.70993  -0.70801  -0.70430
 Alpha  occ. eigenvalues --   -0.69859  -0.69430  -0.64973  -0.64745  -0.63956
 Alpha  occ. eigenvalues --   -0.63766  -0.62092  -0.61071  -0.55232  -0.54277
 Alpha  occ. eigenvalues --   -0.53052  -0.52837  -0.52027  -0.51845  -0.48667
 Alpha  occ. eigenvalues --   -0.48632  -0.47577  -0.47525  -0.44615  -0.43476
 Alpha  occ. eigenvalues --   -0.37292  -0.36343  -0.36292  -0.35313
 Alpha virt. eigenvalues --    0.05171   0.06255   0.11311   0.12331   0.16638
 Alpha virt. eigenvalues --    0.17684   0.21338   0.22297   0.27163   0.27815
 Alpha virt. eigenvalues --    0.28449   0.29297   0.30915   0.31766   0.32444

 Mulliken charges:
               1
     1  C   -0.171244
     2  C   -0.220061
     3  C   -0.158086
     4  C    0.159570
     5  C   -0.170794
     6  C   -0.219501
     7  H    0.220683
     8  H    0.216951
     9  H    0.279403
    10  H    0.273414
    11  H    0.219319
    12  N    0.489965
    13  O   -0.466041
    14  O   -0.454404
    15  C   -0.171054
    16  C   -0.218207
    17  C   -0.169647
    18  C    0.159871
    19  C   -0.170539
    20  C   -0.218322
    21  H    0.225278
    22  H    0.221998
    23  H    0.270326
    24  H    0.276766
    25  H    0.223697
    26  N    0.491831
    27  O   -0.456539
    28  O   -0.464631
 Sum of Mulliken charges =  -0.00000

 Dipole moment (field-independent basis, Debye):
    X=              3.6119    Y=              6.5460    Z=             -0.4965  Tot=              7.4928
 Quadrupole moment (field-independent basis, Debye-Ang):
   XX=            -64.6825   YY=           -105.1309   ZZ=           -104.6504
   XY=             -9.8033   XZ=              9.2360   YZ=              4.4328

 Normal termination of Gaussian 16 at Fri May  7 00:29:45 2021.
