 Gaussian 16, Revision A.03,
 Gaussian 16:  EM64L-G16RevA.03 25-Dec-2016

 -------------
 #p 6-31g* mp2
 -------------

 ------------------------------------------------------
 Input file generated by CHIRIPA (05-May-2021 14:57:25)
 ------------------------------------------------------
 Symbolic Z-matrix:
 Charge =  0 Multiplicity = 1

                         Standard orientation:
 ---------------------------------------------------------------------
 Center     Atomic      Atomic             Coordinates (Angstroms)
 Number     Number       Type             X           Y           Z
 ---------------------------------------------------------------------
      1          6           0       -2.501847    2.091750    1.420058
      2          6           0       -3.002982    2.320303    0.134310
      3          6           0       -3.362148    1.248689   -0.688606
      4          6           0       -3.206397   -0.044331   -0.191481
      5          6           0       -2.709955   -0.304435    1.084913
      6          6           0       -2.357188    0.782418    1.890427
      7          1           0       -2.225323    2.930125    2.052560
      8          1           0       -3.116401    3.336083   -0.233619
      9          1           0       -3.752627    1.397046   -1.688073
     10          1           0       -2.608223   -1.328223    1.423922
     11          1           0       -1.968264    0.601925    2.888527
     12          7           0       -3.583243   -1.186867   -1.053454
     13          8           0       -3.436460   -2.316557   -0.592050
     14          8           0       -4.018261   -0.931064   -2.174151
     15          6           0        5.116800    0.759489   -1.238556
     16          6           0        3.852319    1.335318   -1.399900
     17          6           0        2.752273    0.842913   -0.691393
     18          6           0        2.953593   -0.231317    0.173934
     19          6           0        4.200945   -0.826436    0.356243
     20          6           0        5.286777   -0.317651   -0.362544
     21          1           0        5.965821    1.148364   -1.792934
     22          1           0        3.717356    2.171936   -2.079533
     23          1           0        1.762341    1.269812   -0.797279
     24          1           0        4.304328   -1.659397    1.041010
     25          1           0        6.267634   -0.766827   -0.235247
     26          7           0        1.796547   -0.761274    0.929441
     27          8           0        2.000212   -1.708534    1.685653
     28          8           0        0.707898   -0.219361    0.751089
 ---------------------------------------------------------------------

 SCF Done:  E(RHF) =  -868.338191840     A.U. after   16 cycles
 E2 =    -0.2600016364D+01 EUMP2 =    -0.87093820820372D+03

 The electronic state is 1-A.
 Alpha  occ. eigenvalues --  -20.61149 -20.61135 -20.59821 -20.59793 -15.86172
 Alpha  occ. eigenvalues --  -15.84854 -11.31441 -11.30003 -11.28005 -11.27993
 Alpha  occ. eigenvalues --  -11.27727 -11.26998 -11.26983 -11.26665 -11.26461
 Alpha  occ. eigenvalues --  -11.26356 -11.25700 -11.25461  -1.60220  -1.58887
 Alpha  occ. eigenvalues --   -1.39775  -1.38446  -1.19607  -1.18175  -1.09024
 Alpha  occ. eigenvalues --   -1.07640  -1.04996  -1.03549  -0.95876  -0.94503
 Alpha  occ. eigenvalues --   -0.86398  -0.84990  -0.82711  -0.81340  -0.77769
 Alpha  occ. eigenvalues --   -0.76396  -0.72418  -0.71527  -0.71088  -0.70715
 Alpha  occ. eigenvalues --   -0.70198  -0.69358  -0.65264  -0.65000  -0.63857
 Alpha  occ. eigenvalues --   -0.63605  -0.62344  -0.60925  -0.55503  -0.54150
 Alpha  occ. eigenvalues --   -0.53329  -0.53089  -0.51886  -0.51683  -0.49174
 Alpha  occ. eigenvalues --   -0.49147  -0.47849  -0.47824  -0.45204  -0.43898
 Alpha  occ. eigenvalues --   -0.37583  -0.36595  -0.36185  -0.35033
 Alpha virt. eigenvalues --    0.04746   0.06144   0.11062   0.12531   0.16283
 Alpha virt. eigenvalues --    0.17665   0.21212   0.22457   0.27120   0.28099
 Alpha virt. eigenvalues --    0.28407   0.29328   0.30776   0.31943   0.32308

 Mulliken charges:
               1
     1  C   -0.172993
     2  C   -0.221159
     3  C   -0.174379
     4  C    0.155828
     5  C   -0.153233
     6  C   -0.203977
     7  H    0.219644
     8  H    0.216054
     9  H    0.269836
    10  H    0.277723
    11  H    0.223882
    12  N    0.488035
    13  O   -0.459778
    14  O   -0.466672
    15  C   -0.170301
    16  C   -0.218429
    17  C   -0.171000
    18  C    0.157888
    19  C   -0.170363
    20  C   -0.218522
    21  H    0.226492
    22  H    0.223702
    23  H    0.275508
    24  H    0.276146
    25  H    0.224397
    26  N    0.491202
    27  O   -0.460286
    28  O   -0.465246
 Sum of Mulliken charges =  -0.00000

 Dipole moment (field-independent basis, Debye):
    X=              5.7402    Y=              5.6826    Z=              0.5716  Tot=              8.0975
 Quadrupole moment (field-independent basis, Debye-Ang):
   XX=            -89.0125   YY=           -103.0495   ZZ=           -104.3622
   XY=            -11.1138   XZ=            -15.4838   YZ=             -4.5014

 Normal termination of Gaussian 16 at Fri May  7 04:59:58 2021.
