 Gaussian 16, Revision A.03,
 Gaussian 16:  EM64L-G16RevA.03 25-Dec-2016

 -------------
 #p 6-31g* mp2
 -------------

 ------------------------------------------------------
 Input file generated by CHIRIPA (05-May-2021 14:53:16)
 ------------------------------------------------------
 Symbolic Z-matrix:
 Charge =  0 Multiplicity = 1

                         Standard orientation:
 ---------------------------------------------------------------------
 Center     Atomic      Atomic             Coordinates (Angstroms)
 Number     Number       Type             X           Y           Z
 ---------------------------------------------------------------------
      1          6           0        3.951926    0.890149    0.028258
      2          6           0        3.117866    1.948321   -0.694652
      3          6           0        3.475670    3.373438   -0.271791
      4          1           0        3.810788    0.998835    1.112330
      5          1           0        5.016992    1.075483   -0.168420
      6          1           0        2.054624    1.760223   -0.497796
      7          1           0        3.260857    1.836980   -1.777136
      8          1           0        4.528663    3.585274   -0.483764
      9          1           0        3.315577    3.508080    0.802846
     10          1           0        2.867504    4.113818   -0.800782
     11          6           0        3.605827   -0.539577   -0.383844
     12          6           0        4.439887   -1.597749    0.339067
     13          6           0        4.082083   -3.022867   -0.083795
     14          1           0        2.540762   -0.724911   -0.187166
     15          1           0        3.746965   -0.648263   -1.467916
     16          1           0        4.296897   -1.486408    1.421551
     17          1           0        5.503129   -1.409651    0.142211
     18          1           0        4.242176   -3.157508   -1.158431
     19          1           0        3.029090   -3.234702    0.128179
     20          1           0        4.690249   -3.763246    0.445197
     21          6           0       -0.536517   -0.456938    0.792943
     22          6           0       -1.219934   -1.474413    0.118994
     23          6           0       -2.558585   -1.308070   -0.248281
     24          6           0       -3.185791   -0.106006    0.075670
     25          6           0       -2.531924    0.926362    0.746463
     26          6           0       -1.193535    0.738095    1.103978
     27          1           0        0.503278   -0.594673    1.074460
     28          1           0       -0.712219   -2.403549   -0.123859
     29          1           0       -3.111522   -2.079324   -0.770628
     30          1           0       -3.064740    1.841439    0.974850
     31          1           0       -0.665285    1.530003    1.627312
     32          7           0       -4.602823    0.081699   -0.307982
     33          8           0       -5.132850    1.150117   -0.011013
     34          8           0       -5.156633   -0.843150   -0.898391
 ---------------------------------------------------------------------

 SCF Done:  E(RHF) =  -669.535502958     A.U. after   15 cycles
 E2 =    -0.2091788163D+01 EUMP2 =    -0.67162729112100D+03

 The electronic state is 1-A.
 Alpha  occ. eigenvalues --  -20.60779 -20.60773 -15.85833 -11.31215 -11.27782
 Alpha  occ. eigenvalues --  -11.27777 -11.27517 -11.26810 -11.26795 -11.22545
 Alpha  occ. eigenvalues --  -11.22437 -11.22417 -11.22291 -11.21999 -11.21782
 Alpha  occ. eigenvalues --   -1.59854  -1.39407  -1.19388  -1.09380  -1.08780
 Alpha  occ. eigenvalues --   -1.04791  -1.04406  -0.96861  -0.95614  -0.87870
 Alpha  occ. eigenvalues --   -0.86188  -0.82446  -0.80463  -0.79191  -0.77486
 Alpha  occ. eigenvalues --   -0.72050  -0.71176  -0.70529  -0.66034  -0.65040
 Alpha  occ. eigenvalues --   -0.64783  -0.62141  -0.61808  -0.60216  -0.58463
 Alpha  occ. eigenvalues --   -0.56222  -0.55266  -0.53515  -0.53269  -0.53114
 Alpha  occ. eigenvalues --   -0.52881  -0.50810  -0.48815  -0.48805  -0.48769
 Alpha  occ. eigenvalues --   -0.47515  -0.46705  -0.46659  -0.44808  -0.44677
 Alpha  occ. eigenvalues --   -0.37352  -0.36391
 Alpha virt. eigenvalues --    0.05013   0.11194   0.16377   0.18715   0.22851
 Alpha virt. eigenvalues --    0.23183   0.25406   0.26382   0.26561   0.27304
 Alpha virt. eigenvalues --    0.30047   0.30378   0.30910   0.31353   0.31998

 Mulliken charges:
               1
     1  C   -0.299190
     2  C   -0.301405
     3  C   -0.476233
     4  H    0.146507
     5  H    0.153955
     6  H    0.148408
     7  H    0.155893
     8  H    0.157930
     9  H    0.153073
    10  H    0.163274
    11  C   -0.301870
    12  C   -0.300734
    13  C   -0.474355
    14  H    0.140682
    15  H    0.154923
    16  H    0.150744
    17  H    0.156449
    18  H    0.158406
    19  H    0.147601
    20  H    0.164186
    21  C   -0.172967
    22  C   -0.219990
    23  C   -0.170789
    24  C    0.158699
    25  C   -0.170789
    26  C   -0.220091
    27  H    0.230861
    28  H    0.223703
    29  H    0.275858
    30  H    0.275784
    31  H    0.224001
    32  N    0.488040
    33  O   -0.460297
    34  O   -0.460269
 Sum of Mulliken charges =  -0.00000

 Dipole moment (field-independent basis, Debye):
    X=              5.1641    Y=             -0.6347    Z=              1.2682  Tot=              5.3552
 Quadrupole moment (field-independent basis, Debye-Ang):
   XX=           -125.7696   YY=            -91.4596   ZZ=            -93.8796
   XY=              1.5078   XZ=             -4.7829   YZ=              1.6869

 Normal termination of Gaussian 16 at Thu May  6 13:54:11 2021.
