 Gaussian 16, Revision A.03,
 Gaussian 16:  EM64L-G16RevA.03 25-Dec-2016

 -------------
 #p 6-31g* mp2
 -------------

 ------------------------------------------------------
 Input file generated by CHIRIPA (05-May-2021 14:55:23)
 ------------------------------------------------------
 Symbolic Z-matrix:
 Charge =  0 Multiplicity = 1

                         Standard orientation:
 ---------------------------------------------------------------------
 Center     Atomic      Atomic             Coordinates (Angstroms)
 Number     Number       Type             X           Y           Z
 ---------------------------------------------------------------------
      1          6           0        0.936658    2.780649   -0.196862
      2          6           0        0.813979    2.075004    1.004610
      3          6           0        1.509051    0.877650    1.198952
      4          6           0        2.321661    0.412872    0.166026
      5          6           0        2.464545    1.093047   -1.042376
      6          6           0        1.760098    2.288286   -1.214726
      7          1           0        0.393069    3.709961   -0.339290
      8          1           0        0.175207    2.454995    1.796836
      9          1           0        1.432302    0.311177    2.119080
     10          1           0        3.108909    0.689133   -1.813782
     11          1           0        1.857283    2.834184   -2.148855
     12          7           0        3.062465   -0.853594    0.360126
     13          8           0        3.771956   -1.241857   -0.565353
     14          8           0        2.919589   -1.434005    1.434066
     15          6           0       -3.173647   -0.121912   -0.206240
     16          6           0       -4.621726   -0.179260    0.281373
     17          6           0       -5.325026    1.176273    0.205911
     18          1           0       -2.620362    0.613728    0.393472
     19          1           0       -3.157179    0.243579   -1.242358
     20          1           0       -4.635561   -0.545849    1.315800
     21          1           0       -5.171580   -0.914987   -0.319444
     22          1           0       -5.340803    1.545242   -0.824726
     23          1           0       -4.801739    1.916478    0.819808
     24          1           0       -6.358917    1.112358    0.559240
     25          6           0       -2.457245   -1.469386   -0.136892
     26          6           0       -1.009168   -1.412038   -0.624506
     27          6           0       -0.305868   -2.767571   -0.549044
     28          1           0       -2.473714   -1.834877    0.899226
     29          1           0       -3.010531   -2.205026   -0.736604
     30          1           0       -0.459314   -0.676310   -0.023689
     31          1           0       -0.995332   -1.045450   -1.658932
     32          1           0       -0.829154   -3.507776   -1.162940
     33          1           0       -0.290090   -3.136539    0.481594
     34          1           0        0.728024   -2.703656   -0.902373
 ---------------------------------------------------------------------

 SCF Done:  E(RHF) =  -669.534828285     A.U. after   15 cycles
 E2 =    -0.2094371777D+01 EUMP2 =    -0.67162920006250D+03

 The electronic state is 1-A.
 Alpha  occ. eigenvalues --  -20.60851 -20.60841 -15.85891 -11.31242 -11.27842
 Alpha  occ. eigenvalues --  -11.27823 -11.27592 -11.26867 -11.26846 -11.21806
 Alpha  occ. eigenvalues --  -11.21559 -11.21381 -11.21359 -11.21293 -11.20615
 Alpha  occ. eigenvalues --   -1.59918  -1.39471  -1.19454  -1.08836  -1.08471
 Alpha  occ. eigenvalues --   -1.04861  -1.03516  -0.95966  -0.95672  -0.86971
 Alpha  occ. eigenvalues --   -0.86250  -0.82504  -0.79598  -0.78282  -0.77550
 Alpha  occ. eigenvalues --   -0.72112  -0.71258  -0.70553  -0.65129  -0.65096
 Alpha  occ. eigenvalues --   -0.64853  -0.62201  -0.60939  -0.59357  -0.57585
 Alpha  occ. eigenvalues --   -0.55349  -0.55266  -0.53258  -0.52942  -0.52609
 Alpha  occ. eigenvalues --   -0.52381  -0.49901  -0.48872  -0.48869  -0.47883
 Alpha  occ. eigenvalues --   -0.46644  -0.45783  -0.45733  -0.44865  -0.43764
 Alpha  occ. eigenvalues --   -0.37386  -0.36392
 Alpha virt. eigenvalues --    0.04966   0.11119   0.16436   0.21197   0.22832
 Alpha virt. eigenvalues --    0.24197   0.26321   0.27137   0.27580   0.27948
 Alpha virt. eigenvalues --    0.28325   0.30815   0.31465   0.31742   0.31869

 Mulliken charges:
               1
     1  C   -0.170086
     2  C   -0.214854
     3  C   -0.179759
     4  C    0.165154
     5  C   -0.171057
     6  C   -0.217357
     7  H    0.226399
     8  H    0.223905
     9  H    0.275786
    10  H    0.275987
    11  H    0.223919
    12  N    0.489015
    13  O   -0.460944
    14  O   -0.459609
    15  C   -0.296681
    16  C   -0.299630
    17  C   -0.475002
    18  H    0.143547
    19  H    0.148382
    20  H    0.152072
    21  H    0.153567
    22  H    0.154666
    23  H    0.151169
    24  H    0.161319
    25  C   -0.297530
    26  C   -0.308157
    27  C   -0.478921
    28  H    0.149055
    29  H    0.150107
    30  H    0.157208
    31  H    0.148700
    32  H    0.153845
    33  H    0.159993
    34  H    0.165788
 Sum of Mulliken charges =  -0.00000

 Dipole moment (field-independent basis, Debye):
    X=             -2.4787    Y=              4.4519    Z=             -0.6832  Tot=              5.1410
 Quadrupole moment (field-independent basis, Debye-Ang):
   XX=           -107.3369   YY=            -92.2458   ZZ=            -90.0040
   XY=             10.2631   XZ=             -3.8189   YZ=              0.0575

 Normal termination of Gaussian 16 at Wed May  5 16:03:49 2021.
