 Gaussian 16, Revision A.03,
 Gaussian 16:  EM64L-G16RevA.03 25-Dec-2016

 -------------
 #p 6-31g* mp2
 -------------

 ------------------------------------------------------
 Input file generated by CHIRIPA (05-May-2021 14:53:17)
 ------------------------------------------------------
 Symbolic Z-matrix:
 Charge =  0 Multiplicity = 1

                         Standard orientation:
 ---------------------------------------------------------------------
 Center     Atomic      Atomic             Coordinates (Angstroms)
 Number     Number       Type             X           Y           Z
 ---------------------------------------------------------------------
      1          6           0       -3.359331    1.211372   -0.492111
      2          6           0       -2.297434    2.055518    0.213421
      3          6           0       -2.067879    3.405698   -0.466367
      4          1           0       -3.057181    1.051190   -1.536138
      5          1           0       -4.303389    1.772818   -0.522561
      6          1           0       -1.356030    1.492087    0.243757
      7          1           0       -2.602054    2.213548    1.255942
      8          1           0       -2.993163    3.990641   -0.483497
      9          1           0       -1.740060    3.265080   -1.501434
     10          1           0       -1.304959    3.992786    0.054343
     11          6           0       -3.600054   -0.141322    0.175721
     12          6           0       -4.661951   -0.985468   -0.529812
     13          6           0       -4.891506   -2.335648    0.149977
     14          1           0       -2.655996   -0.702768    0.206171
     15          1           0       -3.902204    0.018861    1.219748
     16          1           0       -4.357331   -1.143498   -1.572332
     17          1           0       -5.603355   -0.422036   -0.560147
     18          1           0       -5.219326   -2.195030    1.185043
     19          1           0       -3.966223   -2.920591    0.167107
     20          1           0       -5.654427   -2.922736   -0.370733
     21          6           0        0.414530   -1.235490    0.747521
     22          6           0        1.035873   -0.242622    1.512155
     23          6           0        2.312297    0.217935    1.175737
     24          6           0        2.941250   -0.338955    0.063270
     25          6           0        2.348392   -1.329371   -0.718322
     26          6           0        1.071614   -1.774746   -0.363319
     27          1           0       -0.577164   -1.587364    1.016078
     28          1           0        0.527951    0.177986    2.375375
     29          1           0        2.816438    0.985526    1.750248
     30          1           0        2.879776   -1.729535   -1.573260
     31          1           0        0.591494   -2.545931   -0.958972
     32          7           0        4.292731    0.140579   -0.302718
     33          8           0        4.825681   -0.366183   -1.287498
     34          8           0        4.793480    1.014120    0.402131
 ---------------------------------------------------------------------

 SCF Done:  E(RHF) =  -669.535430197     A.U. after   15 cycles
 E2 =    -0.2092554879D+01 EUMP2 =    -0.67162798507556D+03

 The electronic state is 1-A.
 Alpha  occ. eigenvalues --  -20.60802 -20.60797 -15.85856 -11.31245 -11.27813
 Alpha  occ. eigenvalues --  -11.27808 -11.27537 -11.26833 -11.26823 -11.22406
 Alpha  occ. eigenvalues --  -11.22313 -11.22152 -11.22035 -11.21914 -11.21482
 Alpha  occ. eigenvalues --   -1.59877  -1.39430  -1.19422  -1.09186  -1.08808
 Alpha  occ. eigenvalues --   -1.04824  -1.04207  -0.96667  -0.95642  -0.87676
 Alpha  occ. eigenvalues --   -0.86217  -0.82473  -0.80288  -0.79024  -0.77511
 Alpha  occ. eigenvalues --   -0.72073  -0.71200  -0.70541  -0.65817  -0.65070
 Alpha  occ. eigenvalues --   -0.64811  -0.62167  -0.61600  -0.60040  -0.58288
 Alpha  occ. eigenvalues --   -0.56012  -0.55295  -0.53342  -0.53150  -0.53079
 Alpha  occ. eigenvalues --   -0.52907  -0.50601  -0.48839  -0.48827  -0.48593
 Alpha  occ. eigenvalues --   -0.47324  -0.46534  -0.46454  -0.44830  -0.44482
 Alpha  occ. eigenvalues --   -0.37354  -0.36415
 Alpha virt. eigenvalues --    0.04982   0.11147   0.16347   0.20033   0.22707
 Alpha virt. eigenvalues --    0.23440   0.25408   0.26284   0.27304   0.27320
 Alpha virt. eigenvalues --    0.29726   0.30151   0.31065   0.31331   0.31776

 Mulliken charges:
               1
     1  C   -0.297432
     2  C   -0.307161
     3  C   -0.475508
     4  H    0.151758
     5  H    0.152182
     6  H    0.155817
     7  H    0.148767
     8  H    0.156010
     9  H    0.157651
    10  H    0.161638
    11  C   -0.302081
    12  C   -0.299949
    13  C   -0.475332
    14  H    0.141155
    15  H    0.149812
    16  H    0.153274
    17  H    0.155776
    18  H    0.156505
    19  H    0.148608
    20  H    0.164075
    21  C   -0.172144
    22  C   -0.218896
    23  C   -0.171620
    24  C    0.158736
    25  C   -0.170753
    26  C   -0.220212
    27  H    0.230851
    28  H    0.225514
    29  H    0.275992
    30  H    0.275835
    31  H    0.223504
    32  N    0.488059
    33  O   -0.460274
    34  O   -0.460155
 Sum of Mulliken charges =  -0.00000

 Dipole moment (field-independent basis, Debye):
    X=             -4.8204    Y=             -1.6364    Z=              1.2430  Tot=              5.2401
 Quadrupole moment (field-independent basis, Debye-Ang):
   XX=           -122.5083   YY=            -92.8150   ZZ=            -91.6389
   XY=             -4.0542   XZ=              3.3465   YZ=              2.8758

 Normal termination of Gaussian 16 at Thu May  6 02:46:58 2021.
