 Gaussian 16, Revision A.03,
 Gaussian 16:  EM64L-G16RevA.03 25-Dec-2016

 -------------
 #p 6-31g* mp2
 -------------

 ------------------------------------------------------
 Input file generated by CHIRIPA (05-May-2021 14:57:22)
 ------------------------------------------------------
 Symbolic Z-matrix:
 Charge =  0 Multiplicity = 1

                         Standard orientation:
 ---------------------------------------------------------------------
 Center     Atomic      Atomic             Coordinates (Angstroms)
 Number     Number       Type             X           Y           Z
 ---------------------------------------------------------------------
      1          6           0        1.800689   -1.654664    0.580240
      2          6           0        1.664734   -0.263703    0.523091
      3          6           0        2.766297    0.545936    0.230532
      4          6           0        3.994517   -0.071606   -0.000570
      5          6           0        4.161897   -1.454646    0.049183
      6          6           0        3.046641   -2.244656    0.343521
      7          1           0        0.939650   -2.275987    0.808198
      8          1           0        0.698328    0.197241    0.706490
      9          1           0        2.689214    1.625249    0.179947
     10          1           0        5.138077   -1.885175   -0.138266
     11          1           0        3.155178   -3.324634    0.387240
     12          7           0        5.167941    0.775132   -0.311230
     13          8           0        6.239182    0.206624   -0.510925
     14          8           0        4.994210    1.991280   -0.349149
     15          6           0       -4.641397   -2.147946   -0.358013
     16          6           0       -3.273880   -1.908623   -0.187296
     17          6           0       -2.797056   -0.605591   -0.016134
     18          6           0       -3.719887    0.439229   -0.020914
     19          6           0       -5.088320    0.233004   -0.188702
     20          6           0       -5.542663   -1.078255   -0.358172
     21          1           0       -5.003073   -3.163368   -0.490319
     22          1           0       -2.571644   -2.737422   -0.186745
     23          1           0       -1.743614   -0.391885    0.118062
     24          1           0       -5.764100    1.079601   -0.184744
     25          1           0       -6.605244   -1.261137   -0.490540
     26          7           0       -3.226995    1.823045    0.159392
     27          8           0       -4.060480    2.726303    0.151375
     28          8           0       -2.016514    1.978218    0.305318
 ---------------------------------------------------------------------

 SCF Done:  E(RHF) =  -868.337647609     A.U. after   16 cycles
 E2 =    -0.2599909907D+01 EUMP2 =    -0.87093755751583D+03

 The electronic state is 1-A.
 Alpha  occ. eigenvalues --  -20.61639 -20.61602 -20.60628 -20.60612 -15.86671
 Alpha  occ. eigenvalues --  -15.85676 -11.32021 -11.31107 -11.28697 -11.28519
 Alpha  occ. eigenvalues --  -11.28282 -11.27709 -11.27649 -11.27607 -11.27565
 Alpha  occ. eigenvalues --  -11.27522 -11.26796 -11.26677  -1.60680  -1.59696
 Alpha  occ. eigenvalues --   -1.40242  -1.39247  -1.20182  -1.19297  -1.09567
 Alpha  occ. eigenvalues --   -1.08715  -1.05598  -1.04687  -0.96414  -0.95530
 Alpha  occ. eigenvalues --   -0.86995  -0.86112  -0.83260  -0.82335  -0.78330
 Alpha  occ. eigenvalues --   -0.77343  -0.72894  -0.71992  -0.71896  -0.71298
 Alpha  occ. eigenvalues --   -0.71019  -0.70478  -0.65842  -0.65629  -0.64958
 Alpha  occ. eigenvalues --   -0.64701  -0.62972  -0.61990  -0.56068  -0.55308
 Alpha  occ. eigenvalues --   -0.53900  -0.53713  -0.53039  -0.52757  -0.49657
 Alpha  occ. eigenvalues --   -0.49621  -0.48662  -0.48641  -0.45647  -0.44636
 Alpha  occ. eigenvalues --   -0.38130  -0.37344  -0.37190  -0.36277
 Alpha virt. eigenvalues --    0.04242   0.05161   0.10466   0.11298   0.15750
 Alpha virt. eigenvalues --    0.16616   0.18218   0.22116   0.24978   0.25793
 Alpha virt. eigenvalues --    0.27881   0.29378   0.30332   0.31304   0.32090

 Mulliken charges:
               1
     1  C   -0.172832
     2  C   -0.230228
     3  C   -0.170562
     4  C    0.159026
     5  C   -0.171404
     6  C   -0.217970
     7  H    0.215074
     8  H    0.240190
     9  H    0.282664
    10  H    0.275369
    11  H    0.221377
    12  N    0.487738
    13  O   -0.461409
    14  O   -0.457606
    15  C   -0.169653
    16  C   -0.220231
    17  C   -0.171541
    18  C    0.157820
    19  C   -0.168883
    20  C   -0.218275
    21  H    0.228074
    22  H    0.220343
    23  H    0.272377
    24  H    0.278294
    25  H    0.226639
    26  N    0.489842
    27  O   -0.454366
    28  O   -0.469867
 Sum of Mulliken charges =  -0.00000

 Dipole moment (field-independent basis, Debye):
    X=             -6.1305    Y=             -7.6619    Z=              0.4137  Tot=              9.8214
 Quadrupole moment (field-independent basis, Debye-Ang):
   XX=           -117.4973   YY=           -105.3948   ZZ=           -106.5369
   XY=              1.6894   XZ=              7.1028   YZ=              0.0637

 Normal termination of Gaussian 16 at Thu May  6 09:42:31 2021.
