 Gaussian 16, Revision A.03,
 Gaussian 16:  EM64L-G16RevA.03 25-Dec-2016

 -------------
 #p 6-31g* mp2
 -------------

 ------------------------------------------------------
 Input file generated by CHIRIPA (05-May-2021 14:51:14)
 ------------------------------------------------------
 Symbolic Z-matrix:
 Charge =  0 Multiplicity = 1

                         Standard orientation:
 ---------------------------------------------------------------------
 Center     Atomic      Atomic             Coordinates (Angstroms)
 Number     Number       Type             X           Y           Z
 ---------------------------------------------------------------------
      1          6           0        3.401654   -0.456237   -0.638433
      2          6           0        4.354086   -1.311582    0.197774
      3          6           0        4.638892   -2.672677   -0.437914
      4          1           0        2.458200   -1.001031   -0.779991
      5          1           0        3.832323   -0.311767   -1.638957
      6          1           0        3.922394   -1.453239    1.196869
      7          1           0        5.295312   -0.764607    0.337519
      8          1           0        5.092377   -2.548761   -1.426649
      9          1           0        3.711658   -3.241305   -0.562416
     10          1           0        5.321857   -3.267671    0.176416
     11          6           0        3.107261    0.907444   -0.015990
     12          6           0        2.154828    1.762790   -0.852196
     13          6           0        1.870022    3.123885   -0.216509
     14          1           0        2.676592    0.762974    0.984534
     15          1           0        4.050715    1.452239    0.125568
     16          1           0        1.213602    1.215815   -0.991941
     17          1           0        2.586520    1.904447   -1.851292
     18          1           0        2.797256    3.692513   -0.092006
     19          1           0        1.416537    2.999969    0.772226
     20          1           0        1.187057    3.718879   -0.830838
     21          6           0       -2.799004   -0.332462    0.931012
     22          6           0       -1.409961    0.283208    0.759272
     23          6           0       -0.510396    0.061080    1.975512
     24          1           0       -3.274935    0.095489    1.823924
     25          1           0       -2.694155   -1.410028    1.118776
     26          1           0       -1.517461    1.359048    0.570514
     27          1           0       -0.937357   -0.146118   -0.133443
     28          1           0       -0.373564   -1.008803    2.163204
     29          1           0       -0.956964    0.504915    2.871161
     30          1           0        0.477611    0.509307    1.831314
     31          6           0       -3.709911   -0.118745   -0.276589
     32          6           0       -5.098953   -0.734416   -0.104849
     33          6           0       -5.998518   -0.512288   -1.321089
     34          1           0       -3.814760    0.958820   -0.464353
     35          1           0       -3.233979   -0.546697   -1.169501
     36          1           0       -5.571557   -0.305089    0.787866
     37          1           0       -4.991453   -1.810255    0.083908
     38          1           0       -5.551950   -0.956123   -2.216738
     39          1           0       -6.135350    0.557595   -1.508782
     40          1           0       -6.986526   -0.960515   -1.176891
 ---------------------------------------------------------------------

 SCF Done:  E(RHF) =  -470.732958617     A.U. after   11 cycles
 E2 =    -0.1583914081D+01 EUMP2 =    -0.47231687269824D+03

 The electronic state is 1-A.
 Alpha  occ. eigenvalues --  -11.21673 -11.21628 -11.21589 -11.21551 -11.21448
 Alpha  occ. eigenvalues --  -11.21392 -11.21387 -11.21331 -11.21134 -11.21090
 Alpha  occ. eigenvalues --  -11.21066 -11.21057  -1.08490  -1.08407  -1.03608
 Alpha  occ. eigenvalues --   -1.03487  -0.96030  -0.95967  -0.87055  -0.86978
 Alpha  occ. eigenvalues --   -0.79691  -0.79537  -0.78319  -0.78200  -0.65159
 Alpha  occ. eigenvalues --   -0.65058  -0.61018  -0.60973  -0.59362  -0.59294
 Alpha  occ. eigenvalues --   -0.57621  -0.57554  -0.55360  -0.55215  -0.52747
 Alpha  occ. eigenvalues --   -0.52658  -0.52460  -0.52381  -0.49968  -0.49904
 Alpha  occ. eigenvalues --   -0.48025  -0.47884  -0.46754  -0.46543  -0.45933
 Alpha  occ. eigenvalues --   -0.45768  -0.45745  -0.45540  -0.43776  -0.43768
 Alpha virt. eigenvalues --    0.19765   0.23118   0.23743   0.25067   0.25564
 Alpha virt. eigenvalues --    0.26244   0.26787   0.27693   0.28115   0.29278
 Alpha virt. eigenvalues --    0.30775   0.30891   0.31469   0.31815   0.32084

 Mulliken charges:
               1
     1  C   -0.298287
     2  C   -0.299803
     3  C   -0.475682
     4  H    0.149479
     5  H    0.149586
     6  H    0.152363
     7  H    0.151959
     8  H    0.155117
     9  H    0.154991
    10  H    0.160267
    11  C   -0.302844
    12  C   -0.305080
    13  C   -0.477012
    14  H    0.152874
    15  H    0.149947
    16  H    0.158382
    17  H    0.151976
    18  H    0.155090
    19  H    0.156017
    20  H    0.160187
    21  C   -0.298440
    22  C   -0.301322
    23  C   -0.484157
    24  H    0.149942
    25  H    0.149550
    26  H    0.153456
    27  H    0.152561
    28  H    0.155069
    29  H    0.155762
    30  H    0.167627
    31  C   -0.298363
    32  C   -0.299677
    33  C   -0.475741
    34  H    0.149737
    35  H    0.149635
    36  H    0.152031
    37  H    0.151956
    38  H    0.155234
    39  H    0.155264
    40  H    0.160350
 Sum of Mulliken charges =  -0.00000

 Dipole moment (field-independent basis, Debye):
    X=             -0.0237    Y=              0.0014    Z=              0.0014  Tot=              0.0238
 Quadrupole moment (field-independent basis, Debye-Ang):
   XX=            -84.7130   YY=            -84.9267   ZZ=            -85.1257
   XY=              0.3588   XZ=             -1.0444   YZ=             -0.1039

 Normal termination of Gaussian 16 at Thu May  6 02:27:01 2021.
