 Gaussian 16, Revision A.03,
 Gaussian 16:  EM64L-G16RevA.03 25-Dec-2016

 -------------
 #p 6-31g* mp2
 -------------

 ------------------------------------------------------
 Input file generated by CHIRIPA (05-May-2021 14:51:09)
 ------------------------------------------------------
 Symbolic Z-matrix:
 Charge =  0 Multiplicity = 1

                         Standard orientation:
 ---------------------------------------------------------------------
 Center     Atomic      Atomic             Coordinates (Angstroms)
 Number     Number       Type             X           Y           Z
 ---------------------------------------------------------------------
      1          6           0       -2.594949    0.762828   -0.187625
      2          6           0       -3.690601    1.793391    0.087096
      3          6           0       -3.272595    3.215187   -0.289150
      4          1           0       -1.690697    1.040651    0.371022
      5          1           0       -2.327323    0.797579   -1.252784
      6          1           0       -3.957056    1.755743    1.151145
      7          1           0       -4.592412    1.512977   -0.472120
      8          1           0       -3.026081    3.275162   -1.354154
      9          1           0       -2.387115    3.519307    0.278333
     10          1           0       -4.070640    3.935687   -0.084544
     11          6           0       -2.997863   -0.663272    0.183357
     12          6           0       -1.902211   -1.693835   -0.091363
     13          6           0       -2.320217   -3.115631    0.284883
     14          1           0       -3.265490   -0.698023    1.248516
     15          1           0       -3.902116   -0.941095   -0.375290
     16          1           0       -1.000401   -1.413421    0.467852
     17          1           0       -1.635757   -1.656186   -1.155412
     18          1           0       -3.205697   -3.419751   -0.282600
     19          1           0       -2.566732   -3.175606    1.349887
     20          1           0       -1.522172   -3.836131    0.080276
     21          6           0        2.363009   -0.637320    0.226619
     22          6           0        2.675050   -1.938509   -0.513329
     23          6           0        1.799837   -3.104731   -0.053197
     24          1           0        2.497485   -0.795161    1.305483
     25          1           0        1.304345   -0.383631    0.077403
     26          1           0        3.733149   -2.188937   -0.363904
     27          1           0        2.540002   -1.777499   -1.590573
     28          1           0        0.741030   -2.880130   -0.217771
     29          1           0        1.940958   -3.293906    1.015867
     30          1           0        2.039675   -4.024877   -0.595109
     31          6           0        3.229803    0.537764   -0.222352
     32          6           0        2.917762    1.838953    0.517596
     33          6           0        3.792976    3.005175    0.057464
     34          1           0        4.288468    0.284074   -0.073136
     35          1           0        3.095328    0.695605   -1.301216
     36          1           0        3.052811    1.677942    1.594840
     37          1           0        1.859663    2.089381    0.368171
     38          1           0        3.651854    3.194350   -1.011600
     39          1           0        4.851781    2.780573    0.222038
     40          1           0        3.553137    3.925321    0.599376
 ---------------------------------------------------------------------

 SCF Done:  E(RHF) =  -470.732335274     A.U. after   11 cycles
 E2 =    -0.1584313348D+01 EUMP2 =    -0.47231664862251D+03

 The electronic state is 1-A.
 Alpha  occ. eigenvalues --  -11.21641 -11.21635 -11.21598 -11.21555 -11.21456
 Alpha  occ. eigenvalues --  -11.21395 -11.21378 -11.21316 -11.21104 -11.21074
 Alpha  occ. eigenvalues --  -11.21064 -11.20944  -1.08493  -1.08394  -1.03614
 Alpha  occ. eigenvalues --   -1.03466  -0.96059  -0.95910  -0.87049  -0.86950
 Alpha  occ. eigenvalues --   -0.79723  -0.79517  -0.78403  -0.78122  -0.65174
 Alpha  occ. eigenvalues --   -0.64981  -0.61070  -0.60868  -0.59463  -0.59258
 Alpha  occ. eigenvalues --   -0.57836  -0.57400  -0.55312  -0.55180  -0.52761
 Alpha  occ. eigenvalues --   -0.52631  -0.52537  -0.52227  -0.49957  -0.49858
 Alpha  occ. eigenvalues --   -0.48077  -0.47816  -0.46823  -0.46501  -0.46163
 Alpha  occ. eigenvalues --   -0.45786  -0.45728  -0.45172  -0.43841  -0.43738
 Alpha virt. eigenvalues --    0.21273   0.22972   0.23327   0.24588   0.25090
 Alpha virt. eigenvalues --    0.26537   0.26790   0.27169   0.28911   0.29975
 Alpha virt. eigenvalues --    0.30452   0.30799   0.31400   0.31782   0.31955

 Mulliken charges:
               1
     1  C   -0.299671
     2  C   -0.299652
     3  C   -0.475783
     4  H    0.150102
     5  H    0.149209
     6  H    0.152212
     7  H    0.152206
     8  H    0.155113
     9  H    0.155221
    10  H    0.160493
    11  C   -0.297118
    12  C   -0.308681
    13  C   -0.479117
    14  H    0.149876
    15  H    0.149843
    16  H    0.159130
    17  H    0.151203
    18  H    0.155525
    19  H    0.155637
    20  H    0.163985
    21  C   -0.304304
    22  C   -0.298579
    23  C   -0.487215
    24  H    0.148819
    25  H    0.155189
    26  H    0.151551
    27  H    0.151483
    28  H    0.169761
    29  H    0.154166
    30  H    0.159311
    31  C   -0.297808
    32  C   -0.299956
    33  C   -0.475652
    34  H    0.149544
    35  H    0.149740
    36  H    0.151657
    37  H    0.151870
    38  H    0.155336
    39  H    0.155196
    40  H    0.160161
 Sum of Mulliken charges =  -0.00000

 Dipole moment (field-independent basis, Debye):
    X=             -0.0489    Y=              0.0000    Z=              0.0038  Tot=              0.0491
 Quadrupole moment (field-independent basis, Debye-Ang):
   XX=            -84.5913   YY=            -86.7973   ZZ=            -83.4715
   XY=             -0.7035   XZ=              0.9761   YZ=              0.3989

 Normal termination of Gaussian 16 at Wed May  5 19:42:06 2021.
