 Gaussian 16, Revision A.03,
 Gaussian 16:  EM64L-G16RevA.03 25-Dec-2016

 -------------
 #p 6-31g* mp2
 -------------

 ------------------------------------------------------
 Input file generated by CHIRIPA (05-May-2021 14:51:14)
 ------------------------------------------------------
 Symbolic Z-matrix:
 Charge =  0 Multiplicity = 1

                         Standard orientation:
 ---------------------------------------------------------------------
 Center     Atomic      Atomic             Coordinates (Angstroms)
 Number     Number       Type             X           Y           Z
 ---------------------------------------------------------------------
      1          6           0        2.487710   -1.343435    0.348599
      2          6           0        1.218396   -2.193982    0.290321
      3          6           0        1.364548   -3.525350    1.027811
      4          1           0        3.323020   -1.912763   -0.081597
      5          1           0        2.746458   -1.154919    1.399744
      6          1           0        0.961342   -2.379676   -0.760420
      7          1           0        0.385970   -1.622490    0.720531
      8          1           0        1.597847   -3.357019    2.084142
      9          1           0        2.176488   -4.118508    0.594777
     10          1           0        0.445625   -4.117373    0.973486
     11          6           0        2.357200   -0.009375   -0.384190
     12          6           0        3.626514    0.841171   -0.325912
     13          6           0        3.480362    2.172540   -1.063401
     14          1           0        2.098452   -0.197892   -1.435335
     15          1           0        1.521890    0.559953    0.046006
     16          1           0        4.458940    0.269679   -0.756122
     17          1           0        3.883568    1.026866    0.724829
     18          1           0        2.668422    2.765697   -0.630368
     19          1           0        3.247063    2.004209   -2.119733
     20          1           0        4.399285    2.764562   -1.009077
     21          6           0       -2.226811    1.401696   -0.120438
     22          6           0       -1.673719    2.125181    1.107829
     23          6           0       -1.286791    3.575205    0.815403
     24          1           0       -1.476343    1.427851   -0.922348
     25          1           0       -3.103682    1.947746   -0.495033
     26          1           0       -0.798980    1.577161    1.480819
     27          1           0       -2.425517    2.097134    1.906973
     28          1           0       -2.155033    4.142343    0.464532
     29          1           0       -0.519255    3.619416    0.035957
     30          1           0       -0.893860    4.073514    1.707117
     31          6           0       -2.618099   -0.048886    0.156030
     32          6           0       -3.171191   -0.772371   -1.072239
     33          6           0       -3.558119   -2.222394   -0.779812
     34          1           0       -1.741228   -0.594936    0.530623
     35          1           0       -3.368567   -0.075041    0.957939
     36          1           0       -2.419393   -0.744324   -1.871382
     37          1           0       -4.045930   -0.224352   -1.445228
     38          1           0       -4.325655   -2.266606   -0.000366
     39          1           0       -2.689876   -2.789533   -0.428941
     40          1           0       -3.951048   -2.720704   -1.671526
 ---------------------------------------------------------------------

 SCF Done:  E(RHF) =  -470.733398917     A.U. after   11 cycles
 E2 =    -0.1584119351D+01 EUMP2 =    -0.47231751826723D+03

 The electronic state is 1-A.
 Alpha  occ. eigenvalues --  -11.21682 -11.21662 -11.21639 -11.21571 -11.21487
 Alpha  occ. eigenvalues --  -11.21427 -11.21380 -11.21313 -11.21137 -11.21123
 Alpha  occ. eigenvalues --  -11.21105 -11.21047  -1.08518  -1.08412  -1.03605
 Alpha  occ. eigenvalues --   -1.03524  -0.96046  -0.95975  -0.87068  -0.86986
 Alpha  occ. eigenvalues --   -0.79685  -0.79581  -0.78377  -0.78187  -0.65295
 Alpha  occ. eigenvalues --   -0.64908  -0.61067  -0.60873  -0.59418  -0.59336
 Alpha  occ. eigenvalues --   -0.57661  -0.57584  -0.55332  -0.55265  -0.52738
 Alpha  occ. eigenvalues --   -0.52674  -0.52480  -0.52399  -0.50081  -0.49831
 Alpha  occ. eigenvalues --   -0.48073  -0.47851  -0.46819  -0.46580  -0.46200
 Alpha  occ. eigenvalues --   -0.45825  -0.45713  -0.45228  -0.43853  -0.43777
 Alpha virt. eigenvalues --    0.19123   0.21844   0.23705   0.24669   0.25656
 Alpha virt. eigenvalues --    0.25903   0.26695   0.27474   0.28698   0.29681
 Alpha virt. eigenvalues --    0.30964   0.31333   0.31370   0.31939   0.32247

 Mulliken charges:
               1
     1  C   -0.297588
     2  C   -0.308452
     3  C   -0.475397
     4  H    0.150199
     5  H    0.149709
     6  H    0.151982
     7  H    0.159038
     8  H    0.155496
     9  H    0.155617
    10  H    0.160442
    11  C   -0.302609
    12  C   -0.299508
    13  C   -0.476672
    14  H    0.149488
    15  H    0.152757
    16  H    0.152334
    17  H    0.152240
    18  H    0.155756
    19  H    0.155190
    20  H    0.160737
    21  C   -0.298696
    22  C   -0.301667
    23  C   -0.476809
    24  H    0.151118
    25  H    0.149573
    26  H    0.152004
    27  H    0.152273
    28  H    0.155746
    29  H    0.155809
    30  H    0.160204
    31  C   -0.306717
    32  C   -0.298924
    33  C   -0.476486
    34  H    0.157682
    35  H    0.149301
    36  H    0.152234
    37  H    0.151711
    38  H    0.154986
    39  H    0.155830
    40  H    0.160070
 Sum of Mulliken charges =  -0.00000

 Dipole moment (field-independent basis, Debye):
    X=              0.0283    Y=             -0.0098    Z=             -0.0024  Tot=              0.0300
 Quadrupole moment (field-independent basis, Debye-Ang):
   XX=            -83.8355   YY=            -86.6029   ZZ=            -84.2168
   XY=             -0.8741   XZ=             -0.4838   YZ=              0.9819

 Normal termination of Gaussian 16 at Wed May  5 16:53:18 2021.
