 Gaussian 16, Revision A.03,
 Gaussian 16:  EM64L-G16RevA.03 25-Dec-2016

 -------------
 #p 6-31g* mp2
 -------------

 ------------------------------------------------------
 Input file generated by CHIRIPA (05-May-2021 14:51:09)
 ------------------------------------------------------
 Symbolic Z-matrix:
 Charge =  0 Multiplicity = 1

                         Standard orientation:
 ---------------------------------------------------------------------
 Center     Atomic      Atomic             Coordinates (Angstroms)
 Number     Number       Type             X           Y           Z
 ---------------------------------------------------------------------
      1          6           0        1.892377   -1.311834    0.260459
      2          6           0        1.171515   -1.395660    1.606310
      3          6           0        0.267924   -2.624060    1.717439
      4          1           0        1.147464   -1.295083   -0.546863
      5          1           0        2.490224   -2.222272    0.115282
      6          1           0        0.576295   -0.484717    1.749526
      7          1           0        1.918226   -1.412020    2.410531
      8          1           0        0.851156   -3.543163    1.600428
      9          1           0       -0.498400   -2.610591    0.935667
     10          1           0       -0.237564   -2.664189    2.687352
     11          6           0        2.799474   -0.089148    0.134196
     12          6           0        3.520336   -0.005322   -1.211656
     13          6           0        4.423927    1.223078   -1.322784
     14          1           0        2.201627    0.821290    0.279372
     15          1           0        3.544387   -0.105899    0.941518
     16          1           0        2.773626    0.011038   -2.015877
     17          1           0        4.115557   -0.916266   -1.354871
     18          1           0        5.190251    1.209608   -0.541013
     19          1           0        3.840696    2.142181   -1.205774
     20          1           0        4.929415    1.263207   -2.292698
     21          6           0       -2.242985    1.457058   -0.218361
     22          6           0       -1.497504    2.001696    1.000495
     23          6           0       -1.299261    3.516717    0.943863
     24          1           0       -1.687497    1.721833   -1.128455
     25          1           0       -3.220563    1.953148   -0.293397
     26          1           0       -0.522190    1.503725    1.074003
     27          1           0       -2.054732    1.735428    1.907806
     28          1           0       -2.265006    4.030018    0.894239
     29          1           0       -0.723755    3.796998    0.055698
     30          1           0       -0.764286    3.884813    1.824866
     31          6           0       -2.448866   -0.056075   -0.176293
     32          6           0       -3.194348   -0.600714   -1.395149
     33          6           0       -3.392590   -2.115735   -1.338517
     34          1           0       -1.471288   -0.552166   -0.101257
     35          1           0       -3.004355   -0.320851    0.733801
     36          1           0       -2.637118   -0.334446   -2.302460
     37          1           0       -4.169661   -0.102743   -1.468656
     38          1           0       -3.968096   -2.396016   -0.450352
     39          1           0       -2.426846   -2.629036   -1.288893
     40          1           0       -3.927566   -2.483831   -2.219520
 ---------------------------------------------------------------------

 SCF Done:  E(RHF) =  -470.732535555     A.U. after   11 cycles
 E2 =    -0.1585218874D+01 EUMP2 =    -0.47231775442820D+03

 The electronic state is 1-A.
 Alpha  occ. eigenvalues --  -11.21662 -11.21651 -11.21645 -11.21565 -11.21456
 Alpha  occ. eigenvalues --  -11.21455 -11.21396 -11.21391 -11.21126 -11.21122
 Alpha  occ. eigenvalues --  -11.21103 -11.21016  -1.08538  -1.08427  -1.03592
 Alpha  occ. eigenvalues --   -1.03546  -0.96039  -0.95991  -0.87056  -0.87008
 Alpha  occ. eigenvalues --   -0.79726  -0.79549  -0.78349  -0.78260  -0.65476
 Alpha  occ. eigenvalues --   -0.64795  -0.61011  -0.60943  -0.59450  -0.59324
 Alpha  occ. eigenvalues --   -0.57651  -0.57597  -0.55341  -0.55278  -0.52733
 Alpha  occ. eigenvalues --   -0.52679  -0.52468  -0.52410  -0.49989  -0.49958
 Alpha  occ. eigenvalues --   -0.48045  -0.47974  -0.46922  -0.46481  -0.46181
 Alpha  occ. eigenvalues --   -0.45808  -0.45632  -0.45263  -0.43839  -0.43800
 Alpha virt. eigenvalues --    0.19448   0.22105   0.23876   0.24118   0.25634
 Alpha virt. eigenvalues --    0.26680   0.26889   0.27498   0.28290   0.29984
 Alpha virt. eigenvalues --    0.30823   0.31379   0.31638   0.31803   0.32385

 Mulliken charges:
               1
     1  C   -0.300114
     2  C   -0.308323
     3  C   -0.479194
     4  H    0.149288
     5  H    0.150213
     6  H    0.159815
     7  H    0.152541
     8  H    0.154721
     9  H    0.159087
    10  H    0.160378
    11  C   -0.300756
    12  C   -0.299568
    13  C   -0.475755
    14  H    0.150782
    15  H    0.150256
    16  H    0.151603
    17  H    0.152260
    18  H    0.155380
    19  H    0.155184
    20  H    0.160390
    21  C   -0.297457
    22  C   -0.308751
    23  C   -0.475129
    24  H    0.148996
    25  H    0.149978
    26  H    0.159646
    27  H    0.152250
    28  H    0.155565
    29  H    0.154842
    30  H    0.160607
    31  C   -0.307283
    32  C   -0.299527
    33  C   -0.477650
    34  H    0.158934
    35  H    0.150115
    36  H    0.151580
    37  H    0.152297
    38  H    0.155849
    39  H    0.156210
    40  H    0.160738
 Sum of Mulliken charges =  -0.00000

 Dipole moment (field-independent basis, Debye):
    X=             -0.0189    Y=              0.0078    Z=              0.0107  Tot=              0.0231
 Quadrupole moment (field-independent basis, Debye-Ang):
   XX=            -83.7863   YY=            -86.3955   ZZ=            -84.4582
   XY=             -1.3325   XZ=             -0.0143   YZ=             -0.0240

 Normal termination of Gaussian 16 at Thu May  6 06:56:49 2021.
