 Gaussian 16, Revision A.03,
 Gaussian 16:  EM64L-G16RevA.03 25-Dec-2016

 -------------
 #p 6-31g* mp2
 -------------

 ------------------------------------------------------
 Input file generated by CHIRIPA (05-May-2021 14:51:14)
 ------------------------------------------------------
 Symbolic Z-matrix:
 Charge =  0 Multiplicity = 1

                         Standard orientation:
 ---------------------------------------------------------------------
 Center     Atomic      Atomic             Coordinates (Angstroms)
 Number     Number       Type             X           Y           Z
 ---------------------------------------------------------------------
      1          6           0       -3.184184    0.946212    0.311896
      2          6           0       -3.917841    2.038390   -0.467128
      3          6           0       -3.672049    3.436419    0.101110
      4          1           0       -3.502533    0.977562    1.362903
      5          1           0       -2.106697    1.161554    0.305117
      6          1           0       -4.993483    1.820307   -0.460056
      7          1           0       -3.597851    2.004312   -1.516443
      8          1           0       -2.604698    3.679060    0.079032
      9          1           0       -4.008260    3.494010    1.141421
     10          1           0       -4.205860    4.201802   -0.470811
     11          6           0       -3.420056   -0.456971   -0.244135
     12          6           0       -2.686398   -1.549150    0.534889
     13          6           0       -2.932191   -2.947179   -0.033349
     14          1           0       -4.497542   -0.672313   -0.237356
     15          1           0       -3.101707   -0.488322   -1.295142
     16          1           0       -3.006389   -1.515072    1.584204
     17          1           0       -1.610756   -1.331067    0.527817
     18          1           0       -2.595980   -3.004770   -1.073660
     19          1           0       -3.999542   -3.189820   -0.011271
     20          1           0       -2.398379   -3.712562    0.538572
     21          6           0        2.594916   -0.531307   -0.067131
     22          6           0        2.560089   -2.059933   -0.075830
     23          6           0        1.138340   -2.618475   -0.142595
     24          1           0        2.013966   -0.162516    0.789276
     25          1           0        2.094134   -0.154939   -0.969882
     26          1           0        3.062006   -2.433330    0.825985
     27          1           0        3.141349   -2.425132   -0.932207
     28          1           0        0.631360   -2.274106   -1.049778
     29          1           0        0.551566   -2.282349    0.718403
     30          1           0        1.136800   -3.712929   -0.147767
     31          6           0        4.009323    0.042067   -0.000629
     32          6           0        4.044152    1.570693    0.008069
     33          6           0        5.465899    2.129235    0.074833
     34          1           0        4.510105   -0.334301    0.902121
     35          1           0        4.590274   -0.326724   -0.857037
     36          1           0        3.462890    1.935892    0.864446
     37          1           0        3.542233    1.944090   -0.893745
     38          1           0        6.052673    1.793109   -0.786164
     39          1           0        5.972879    1.784865    0.982017
     40          1           0        5.467440    3.223689    0.080005
 ---------------------------------------------------------------------

 SCF Done:  E(RHF) =  -470.733021136     A.U. after   11 cycles
 E2 =    -0.1582939236D+01 EUMP2 =    -0.47231596037240D+03

 The electronic state is 1-A.
 Alpha  occ. eigenvalues --  -11.21637 -11.21633 -11.21566 -11.21455 -11.21450
 Alpha  occ. eigenvalues --  -11.21389 -11.21345 -11.21281 -11.21095 -11.21094
 Alpha  occ. eigenvalues --  -11.21045 -11.20966  -1.08472  -1.08362  -1.03579
 Alpha  occ. eigenvalues --   -1.03447  -0.96035  -0.95895  -0.87037  -0.86926
 Alpha  occ. eigenvalues --   -0.79669  -0.79496  -0.78302  -0.78162  -0.65105
 Alpha  occ. eigenvalues --   -0.64997  -0.60990  -0.60859  -0.59383  -0.59288
 Alpha  occ. eigenvalues --   -0.57678  -0.57477  -0.55307  -0.55204  -0.52722
 Alpha  occ. eigenvalues --   -0.52592  -0.52436  -0.52333  -0.50013  -0.49811
 Alpha  occ. eigenvalues --   -0.48092  -0.47745  -0.46740  -0.46463  -0.45914
 Alpha  occ. eigenvalues --   -0.45755  -0.45703  -0.45460  -0.43825  -0.43707
 Alpha virt. eigenvalues --    0.21666   0.23047   0.23594   0.24752   0.26034
 Alpha virt. eigenvalues --    0.26584   0.27287   0.27307   0.28109   0.29149
 Alpha virt. eigenvalues --    0.30200   0.31265   0.31665   0.31924   0.32503

 Mulliken charges:
               1
     1  C   -0.298438
     2  C   -0.299526
     3  C   -0.475708
     4  H    0.149358
     5  H    0.149658
     6  H    0.151859
     7  H    0.151767
     8  H    0.155192
     9  H    0.155058
    10  H    0.160099
    11  C   -0.297559
    12  C   -0.306352
    13  C   -0.474715
    14  H    0.149091
    15  H    0.149041
    16  H    0.150599
    17  H    0.159243
    18  H    0.155054
    19  H    0.154268
    20  H    0.160629
    21  C   -0.298565
    22  C   -0.300075
    23  C   -0.479028
    24  H    0.149420
    25  H    0.149052
    26  H    0.152083
    27  H    0.152017
    28  H    0.155259
    29  H    0.159804
    30  H    0.160824
    31  C   -0.298197
    32  C   -0.299717
    33  C   -0.475737
    34  H    0.149733
    35  H    0.149807
    36  H    0.152029
    37  H    0.151793
    38  H    0.155226
    39  H    0.155285
    40  H    0.160368
 Sum of Mulliken charges =  -0.00000

 Dipole moment (field-independent basis, Debye):
    X=              0.0503    Y=             -0.0216    Z=              0.0037  Tot=              0.0548
 Quadrupole moment (field-independent basis, Debye-Ang):
   XX=            -85.2162   YY=            -86.2218   ZZ=            -83.4419
   XY=             -0.5588   XZ=             -0.6005   YZ=             -0.4167

 Normal termination of Gaussian 16 at Wed May  5 21:37:47 2021.
