 Gaussian 16, Revision A.03,
 Gaussian 16:  EM64L-G16RevA.03 25-Dec-2016

 -------------
 #p 6-31g* mp2
 -------------

 ------------------------------------------------------
 Input file generated by CHIRIPA (05-May-2021 14:51:14)
 ------------------------------------------------------
 Symbolic Z-matrix:
 Charge =  0 Multiplicity = 1

                         Standard orientation:
 ---------------------------------------------------------------------
 Center     Atomic      Atomic             Coordinates (Angstroms)
 Number     Number       Type             X           Y           Z
 ---------------------------------------------------------------------
      1          6           0       -3.907276    0.231482    0.305264
      2          6           0       -4.480575    0.320776   -1.109423
      3          6           0       -5.904726    0.876543   -1.136148
      4          1           0       -4.561296   -0.402234    0.919762
      5          1           0       -3.920630    1.230540    0.762538
      6          1           0       -4.464863   -0.677907   -1.564395
      7          1           0       -3.825011    0.954197   -1.720676
      8          1           0       -5.933502    1.883278   -0.706896
      9          1           0       -6.576990    0.241900   -0.549727
     10          1           0       -6.295024    0.931789   -2.157165
     11          6           0       -2.484183   -0.322300    0.348388
     12          6           0       -1.910884   -0.411595    1.763075
     13          6           0       -0.486734   -0.967362    1.789801
     14          1           0       -2.470829   -1.321358   -0.108885
     15          1           0       -1.830163    0.311415   -0.266109
     16          1           0       -2.566448   -1.045016    2.374328
     17          1           0       -1.926596    0.587089    2.218047
     18          1           0        0.185531   -0.332719    1.203379
     19          1           0       -0.457957   -1.974096    1.360548
     20          1           0       -0.096435   -1.022608    2.810817
     21          6           0        3.417320   -0.643362   -0.571620
     22          6           0        2.363244   -1.730445   -0.359114
     23          6           0        2.821248   -3.102753   -0.853883
     24          1           0        3.664883   -0.585514   -1.640409
     25          1           0        4.341460   -0.931873   -0.051887
     26          1           0        1.440922   -1.439313   -0.877941
     27          1           0        2.118021   -1.785581    0.709269
     28          1           0        3.728230   -3.418729   -0.328387
     29          1           0        3.047284   -3.070493   -1.924616
     30          1           0        2.052558   -3.864884   -0.692230
     31          6           0        2.974139    0.734180   -0.082033
     32          6           0        4.028216    1.821264   -0.294538
     33          6           0        3.570210    3.193571    0.200230
     34          1           0        2.049999    1.022692   -0.601765
     35          1           0        2.726575    0.676332    0.986756
     36          1           0        4.273438    1.876399   -1.362921
     37          1           0        4.950536    1.530130    0.224290
     38          1           0        3.344175    3.161311    1.270963
     39          1           0        2.663230    3.509548   -0.325265
     40          1           0        4.338900    3.955703    0.038578
 ---------------------------------------------------------------------

 SCF Done:  E(RHF) =  -470.731926205     A.U. after   11 cycles
 E2 =    -0.1583903174D+01 EUMP2 =    -0.47231582937853D+03

 The electronic state is 1-A.
 Alpha  occ. eigenvalues --  -11.21618 -11.21596 -11.21526 -11.21441 -11.21407
 Alpha  occ. eigenvalues --  -11.21386 -11.21326 -11.21318 -11.21093 -11.21067
 Alpha  occ. eigenvalues --  -11.21001 -11.20906  -1.08439  -1.08378  -1.03545
 Alpha  occ. eigenvalues --   -1.03444  -0.95965  -0.95941  -0.87036  -0.86915
 Alpha  occ. eigenvalues --   -0.79767  -0.79418  -0.78346  -0.78061  -0.65044
 Alpha  occ. eigenvalues --   -0.65030  -0.60899  -0.60884  -0.59380  -0.59287
 Alpha  occ. eigenvalues --   -0.57632  -0.57500  -0.55270  -0.55204  -0.52747
 Alpha  occ. eigenvalues --   -0.52626  -0.52450  -0.52273  -0.49917  -0.49870
 Alpha  occ. eigenvalues --   -0.48222  -0.47608  -0.46645  -0.46577  -0.45982
 Alpha  occ. eigenvalues --   -0.45713  -0.45668  -0.45251  -0.43760  -0.43734
 Alpha virt. eigenvalues --    0.21873   0.23141   0.23848   0.24293   0.25717
 Alpha virt. eigenvalues --    0.25978   0.26815   0.27677   0.27919   0.29526
 Alpha virt. eigenvalues --    0.30774   0.31390   0.31468   0.31759   0.32352

 Mulliken charges:
               1
     1  C   -0.298160
     2  C   -0.299588
     3  C   -0.475688
     4  H    0.149707
     5  H    0.149555
     6  H    0.151847
     7  H    0.151682
     8  H    0.155195
     9  H    0.155202
    10  H    0.160174
    11  C   -0.298195
    12  C   -0.300580
    13  C   -0.481184
    14  H    0.149255
    15  H    0.148899
    16  H    0.151179
    17  H    0.151436
    18  H    0.164921
    19  H    0.155598
    20  H    0.157847
    21  C   -0.297607
    22  C   -0.304170
    23  C   -0.475557
    24  H    0.149071
    25  H    0.149139
    26  H    0.152251
    27  H    0.160500
    28  H    0.154692
    29  H    0.154535
    30  H    0.159490
    31  C   -0.301173
    32  C   -0.299365
    33  C   -0.475746
    34  H    0.148627
    35  H    0.151507
    36  H    0.152083
    37  H    0.152174
    38  H    0.155221
    39  H    0.154825
    40  H    0.160400
 Sum of Mulliken charges =  -0.00000

 Dipole moment (field-independent basis, Debye):
    X=              0.0288    Y=              0.0002    Z=              0.0117  Tot=              0.0311
 Quadrupole moment (field-independent basis, Debye-Ang):
   XX=            -85.6914   YY=            -85.1698   ZZ=            -84.1512
   XY=              0.9005   XZ=              0.3194   YZ=             -0.5631

 Normal termination of Gaussian 16 at Wed May  5 15:24:19 2021.
