 Gaussian 16, Revision A.03,
 Gaussian 16:  EM64L-G16RevA.03 25-Dec-2016

 -------------
 #p 6-31g* mp2
 -------------

 ------------------------------------------------------
 Input file generated by CHIRIPA (05-May-2021 14:53:16)
 ------------------------------------------------------
 Symbolic Z-matrix:
 Charge =  0 Multiplicity = 1

                         Standard orientation:
 ---------------------------------------------------------------------
 Center     Atomic      Atomic             Coordinates (Angstroms)
 Number     Number       Type             X           Y           Z
 ---------------------------------------------------------------------
      1          6           0        3.814565    0.069624   -0.582076
      2          6           0        3.815357   -1.447378   -0.390530
      3          6           0        4.878091   -2.149470   -1.236377
      4          1           0        3.650315    0.298654   -1.643920
      5          1           0        4.807581    0.464926   -0.327026
      6          1           0        2.822225   -1.839532   -0.644541
      7          1           0        3.979433   -1.672818    0.671012
      8          1           0        5.878012   -1.786156   -0.977996
      9          1           0        4.714230   -1.953817   -2.301023
     10          1           0        4.861017   -3.233148   -1.084029
     11          6           0        2.757613    0.785632    0.256920
     12          6           0        2.756821    2.302634    0.065374
     13          6           0        1.694087    3.004726    0.911221
     14          1           0        1.764597    0.390330    0.001870
     15          1           0        2.921863    0.556603    1.318764
     16          1           0        2.592745    2.528075   -0.996168
     17          1           0        3.749953    2.694788    0.319384
     18          1           0        1.857948    2.809074    1.975867
     19          1           0        0.694166    2.641413    0.652840
     20          1           0        1.711161    4.088405    0.758873
     21          6           0       -4.164464    0.870434   -1.410513
     22          6           0       -3.089934    1.559318   -0.838372
     23          6           0       -2.198689    0.902050    0.014991
     24          6           0       -2.412845   -0.450533    0.275657
     25          6           0       -3.474008   -1.164355   -0.279035
     26          6           0       -4.352739   -0.486811   -1.129514
     27          1           0       -4.851944    1.388890   -2.072305
     28          1           0       -2.941259    2.613402   -1.054815
     29          1           0       -1.358513    1.411124    0.471464
     30          1           0       -3.596317   -2.214799   -0.044465
     31          1           0       -5.186362   -1.024348   -1.572426
     32          7           0       -1.475948   -1.157085    1.177547
     33          8           0       -1.686483   -2.348981    1.391313
     34          8           0       -0.548811   -0.505607    1.653605
 ---------------------------------------------------------------------

 SCF Done:  E(RHF) =  -669.535505705     A.U. after   15 cycles
 E2 =    -0.2092220584D+01 EUMP2 =    -0.67162772628972D+03

 The electronic state is 1-A.
 Alpha  occ. eigenvalues --  -20.60876 -20.60865 -15.85899 -11.31248 -11.27814
 Alpha  occ. eigenvalues --  -11.27802 -11.27554 -11.26828 -11.26817 -11.21243
 Alpha  occ. eigenvalues --  -11.20966 -11.20890 -11.20761 -11.20563 -11.20519
 Alpha  occ. eigenvalues --   -1.59935  -1.39489  -1.19420  -1.08819  -1.07831
 Alpha  occ. eigenvalues --   -1.04820  -1.03051  -0.95658  -0.95506  -0.86537
 Alpha  occ. eigenvalues --   -0.86217  -0.82489  -0.79101  -0.77673  -0.77441
 Alpha  occ. eigenvalues --   -0.72119  -0.71250  -0.70537  -0.65073  -0.64846
 Alpha  occ. eigenvalues --   -0.64465  -0.62196  -0.60456  -0.58869  -0.57093
 Alpha  occ. eigenvalues --   -0.55340  -0.54805  -0.53150  -0.52926  -0.52247
 Alpha  occ. eigenvalues --   -0.51907  -0.49476  -0.48895  -0.48881  -0.47406
 Alpha  occ. eigenvalues --   -0.46129  -0.45326  -0.45091  -0.44609  -0.43255
 Alpha  occ. eigenvalues --   -0.37400  -0.36421
 Alpha virt. eigenvalues --    0.04958   0.11203   0.16443   0.20320   0.23301
 Alpha virt. eigenvalues --    0.24180   0.26019   0.27481   0.27722   0.28407
 Alpha virt. eigenvalues --    0.29361   0.30743   0.31479   0.32145   0.32362

 Mulliken charges:
               1
     1  C   -0.298958
     2  C   -0.298590
     3  C   -0.475588
     4  H    0.144959
     5  H    0.146764
     6  H    0.154711
     7  H    0.155798
     8  H    0.153386
     9  H    0.152261
    10  H    0.160231
    11  C   -0.299061
    12  C   -0.300259
    13  C   -0.475196
    14  H    0.157682
    15  H    0.156477
    16  H    0.146938
    17  H    0.151284
    18  H    0.162680
    19  H    0.145394
    20  H    0.156341
    21  C   -0.170477
    22  C   -0.222693
    23  C   -0.181211
    24  C    0.156584
    25  C   -0.169854
    26  C   -0.219007
    27  H    0.225910
    28  H    0.224175
    29  H    0.292409
    30  H    0.275761
    31  H    0.223699
    32  N    0.486328
    33  O   -0.459486
    34  O   -0.459392
 Sum of Mulliken charges =  -0.00000

 Dipole moment (field-independent basis, Debye):
    X=             -3.3808    Y=              2.3685    Z=             -3.0280  Tot=              5.1194
 Quadrupole moment (field-independent basis, Debye-Ang):
   XX=            -78.3105   YY=            -94.4600   ZZ=            -96.9160
   XY=             -1.6171   XZ=              8.8105   YZ=              2.4042

 Normal termination of Gaussian 16 at Wed May  5 15:42:46 2021.
