 Gaussian 16, Revision A.03,
 Gaussian 16:  EM64L-G16RevA.03 25-Dec-2016

 -------------
 #p 6-31g* mp2
 -------------

 ------------------------------------------------------
 Input file generated by CHIRIPA (05-May-2021 14:55:20)
 ------------------------------------------------------
 Symbolic Z-matrix:
 Charge =  0 Multiplicity = 1

                         Standard orientation:
 ---------------------------------------------------------------------
 Center     Atomic      Atomic             Coordinates (Angstroms)
 Number     Number       Type             X           Y           Z
 ---------------------------------------------------------------------
      1          6           0        3.534127   -2.183932    0.284534
      2          6           0        2.758233   -1.594074    1.287816
      3          6           0        2.411401   -0.241719    1.214387
      4          6           0        2.859528    0.494445    0.118697
      5          6           0        3.633862   -0.064538   -0.896801
      6          6           0        3.968699   -1.418631   -0.802656
      7          1           0        3.798896   -3.235150    0.349621
      8          1           0        2.419338   -2.185983    2.133298
      9          1           0        1.811869    0.240261    1.977062
     10          1           0        3.956923    0.551162   -1.727441
     11          1           0        4.571388   -1.874068   -1.583290
     12          7           0        2.498702    1.927042    0.029996
     13          8           0        2.905970    2.553943   -0.945589
     14          8           0        1.815451    2.395885    0.937735
     15          6           0       -3.181820   -0.645376   -0.591270
     16          6           0       -1.814600   -0.622646    0.092964
     17          6           0       -0.715609   -1.255778   -0.760942
     18          1           0       -3.450344   -1.684616   -0.825410
     19          1           0       -3.112148   -0.116520   -1.551922
     20          1           0       -1.887169   -1.150191    1.052676
     21          1           0       -1.549386    0.416643    0.325675
     22          1           0       -0.614129   -0.725455   -1.713340
     23          1           0       -0.953832   -2.301193   -0.982208
     24          1           0        0.253331   -1.228852   -0.252719
     25          6           0       -4.290812   -0.015962    0.249980
     26          6           0       -5.658032   -0.038692   -0.434255
     27          6           0       -6.757023    0.594439    0.419652
     28          1           0       -4.360484   -0.544818    1.210631
     29          1           0       -4.022288    1.023278    0.484119
     30          1           0       -5.923246   -1.077982   -0.666965
     31          1           0       -5.585462    0.488853   -1.393966
     32          1           0       -6.518800    1.639854    0.640918
     33          1           0       -6.858502    0.064117    1.372050
     34          1           0       -7.725963    0.567514   -0.088571
 ---------------------------------------------------------------------

 SCF Done:  E(RHF) =  -669.534838091     A.U. after   15 cycles
 E2 =    -0.2092867250D+01 EUMP2 =    -0.67162770534078D+03

 The electronic state is 1-A.
 Alpha  occ. eigenvalues --  -20.60821 -20.60816 -15.85873 -11.31241 -11.27827
 Alpha  occ. eigenvalues --  -11.27805 -11.27577 -11.26844 -11.26831 -11.21460
 Alpha  occ. eigenvalues --  -11.21449 -11.21247 -11.21181 -11.20919 -11.20864
 Alpha  occ. eigenvalues --   -1.59894  -1.39448  -1.19445  -1.08823  -1.08275
 Alpha  occ. eigenvalues --   -1.04853  -1.03385  -0.95844  -0.95649  -0.86856
 Alpha  occ. eigenvalues --   -0.86233  -0.82487  -0.79452  -0.78090  -0.77530
 Alpha  occ. eigenvalues --   -0.72092  -0.71219  -0.70537  -0.65086  -0.64903
 Alpha  occ. eigenvalues --   -0.64835  -0.62184  -0.60782  -0.59287  -0.57513
 Alpha  occ. eigenvalues --   -0.55335  -0.55122  -0.53584  -0.52924  -0.52347
 Alpha  occ. eigenvalues --   -0.51970  -0.49775  -0.48852  -0.48846  -0.47758
 Alpha  occ. eigenvalues --   -0.46482  -0.45631  -0.45553  -0.44848  -0.43627
 Alpha  occ. eigenvalues --   -0.37412  -0.36378
 Alpha virt. eigenvalues --    0.04990   0.11167   0.16469   0.21322   0.23025
 Alpha virt. eigenvalues --    0.24445   0.26797   0.27109   0.27680   0.28103
 Alpha virt. eigenvalues --    0.28445   0.30853   0.31545   0.31918   0.32335

 Mulliken charges:
               1
     1  C   -0.169782
     2  C   -0.216971
     3  C   -0.178712
     4  C    0.164594
     5  C   -0.170765
     6  C   -0.217480
     7  H    0.226238
     8  H    0.224397
     9  H    0.276596
    10  H    0.275967
    11  H    0.223992
    12  N    0.488137
    13  O   -0.460256
    14  O   -0.460725
    15  C   -0.297729
    16  C   -0.301420
    17  C   -0.485099
    18  H    0.147450
    19  H    0.151201
    20  H    0.146253
    21  H    0.159437
    22  H    0.155933
    23  H    0.150556
    24  H    0.167676
    25  C   -0.298742
    26  C   -0.299611
    27  C   -0.475744
    28  H    0.147718
    29  H    0.153004
    30  H    0.150570
    31  H    0.152695
    32  H    0.156536
    33  H    0.154309
    34  H    0.159774
 Sum of Mulliken charges =  -0.00000

 Dipole moment (field-independent basis, Debye):
    X=              1.4005    Y=             -4.9824    Z=              0.3148  Tot=              5.1850
 Quadrupole moment (field-independent basis, Debye-Ang):
   XX=            -87.5467   YY=            -99.8199   ZZ=            -91.2502
   XY=            -13.6034   XZ=             -1.1228   YZ=             -1.4843

 Normal termination of Gaussian 16 at Thu May  6 09:15:51 2021.
