 Gaussian 16, Revision A.03,
 Gaussian 16:  EM64L-G16RevA.03 25-Dec-2016

 -------------
 #p 6-31g* mp2
 -------------

 ------------------------------------------------------
 Input file generated by CHIRIPA (05-May-2021 14:57:23)
 ------------------------------------------------------
 Symbolic Z-matrix:
 Charge =  0 Multiplicity = 1

                         Standard orientation:
 ---------------------------------------------------------------------
 Center     Atomic      Atomic             Coordinates (Angstroms)
 Number     Number       Type             X           Y           Z
 ---------------------------------------------------------------------
      1          6           0        3.066136    2.077496    1.513093
      2          6           0        3.230298    0.774418    1.994298
      3          6           0        3.154041   -0.318191    1.125426
      4          6           0        2.911214   -0.070156   -0.224686
      5          6           0        2.743300    1.216390   -0.734485
      6          6           0        2.823588    2.293942    0.152636
      7          1           0        3.126940    2.920413    2.195142
      8          1           0        3.418773    0.603328    3.050352
      9          1           0        3.277288   -1.337353    1.471168
     10          1           0        2.556561    1.355379   -1.792421
     11          1           0        2.695694    3.304844   -0.223882
     12          7           0        2.828350   -1.218882   -1.154181
     13          8           0        2.613455   -0.973717   -2.339235
     14          8           0        2.979864   -2.342669   -0.680067
     15          6           0       -2.006398   -2.310842    0.919370
     16          6           0       -3.382698   -2.064996    0.962720
     17          6           0       -3.902723   -0.854210    0.495685
     18          6           0       -3.013665    0.092716   -0.010476
     19          6           0       -1.637538   -0.122614   -0.067003
     20          6           0       -1.139738   -1.340578    0.405553
     21          1           0       -1.611063   -3.254198    1.284319
     22          1           0       -4.058124   -2.816687    1.361223
     23          1           0       -4.963897   -0.637753    0.517476
     24          1           0       -0.989172    0.645978   -0.469873
     25          1           0       -0.070434   -1.528767    0.370654
     26          7           0       -3.552427    1.378319   -0.507827
     27          8           0       -2.748117    2.196292   -0.949008
     28          8           0       -4.768818    1.543658   -0.447053
 ---------------------------------------------------------------------

 SCF Done:  E(RHF) =  -868.339056397     A.U. after   16 cycles
 E2 =    -0.2600123065D+01 EUMP2 =    -0.87093917946167D+03

 The electronic state is 1-A.
 Alpha  occ. eigenvalues --  -20.61618 -20.61583 -20.60697 -20.60684 -15.86634
 Alpha  occ. eigenvalues --  -15.85743 -11.31919 -11.30993 -11.28462 -11.28388
 Alpha  occ. eigenvalues --  -11.28071 -11.27556 -11.27535 -11.27404 -11.27337
 Alpha  occ. eigenvalues --  -11.27238 -11.26545 -11.26486  -1.60683  -1.59769
 Alpha  occ. eigenvalues --   -1.40232  -1.39327  -1.20051  -1.19149  -1.09448
 Alpha  occ. eigenvalues --   -1.08559  -1.05405  -1.04536  -0.96298  -0.95416
 Alpha  occ. eigenvalues --   -0.86802  -0.85935  -0.83112  -0.82257  -0.78195
 Alpha  occ. eigenvalues --   -0.77328  -0.72831  -0.72040  -0.71966  -0.71093
 Alpha  occ. eigenvalues --   -0.71088  -0.70246  -0.65671  -0.65361  -0.64800
 Alpha  occ. eigenvalues --   -0.64530  -0.62735  -0.61892  -0.55860  -0.55027
 Alpha  occ. eigenvalues --   -0.53759  -0.53460  -0.52867  -0.52626  -0.49612
 Alpha  occ. eigenvalues --   -0.49585  -0.48726  -0.48710  -0.45636  -0.44758
 Alpha  occ. eigenvalues --   -0.38005  -0.37119  -0.37004  -0.36130
 Alpha virt. eigenvalues --    0.04289   0.05209   0.10565   0.11529   0.15826
 Alpha virt. eigenvalues --    0.16734   0.20867   0.21479   0.26644   0.26854
 Alpha virt. eigenvalues --    0.27924   0.28511   0.30330   0.31061   0.31948

 Mulliken charges:
               1
     1  C   -0.169815
     2  C   -0.217082
     3  C   -0.176962
     4  C    0.151462
     5  C   -0.175194
     6  C   -0.217280
     7  H    0.229989
     8  H    0.225747
     9  H    0.274489
    10  H    0.279923
    11  H    0.230425
    12  N    0.486992
    13  O   -0.454215
    14  O   -0.463297
    15  C   -0.171347
    16  C   -0.218703
    17  C   -0.171483
    18  C    0.158198
    19  C   -0.170617
    20  C   -0.218993
    21  H    0.227961
    22  H    0.222856
    23  H    0.274571
    24  H    0.272409
    25  H    0.225674
    26  N    0.488383
    27  O   -0.463322
    28  O   -0.460769
 Sum of Mulliken charges =  -0.00000

 Dipole moment (field-independent basis, Debye):
    X=              2.4062    Y=             -0.3399    Z=              5.0402  Tot=              5.5955
 Quadrupole moment (field-independent basis, Debye-Ang):
   XX=           -110.7874   YY=           -104.2851   ZZ=           -103.9135
   XY=             27.5676   XZ=              3.7743   YZ=             -3.9406

 Normal termination of Gaussian 16 at Fri May  7 01:48:25 2021.
