 Gaussian 16, Revision A.03,
 Gaussian 16:  EM64L-G16RevA.03 25-Dec-2016

 -------------
 #p 6-31g* mp2
 -------------

 ------------------------------------------------------
 Input file generated by CHIRIPA (05-May-2021 14:53:12)
 ------------------------------------------------------
 Symbolic Z-matrix:
 Charge =  0 Multiplicity = 1

                         Standard orientation:
 ---------------------------------------------------------------------
 Center     Atomic      Atomic             Coordinates (Angstroms)
 Number     Number       Type             X           Y           Z
 ---------------------------------------------------------------------
      1          6           0       -4.956382   -0.296617   -0.169145
      2          6           0       -6.002040    0.799390   -0.377363
      3          6           0       -7.233258    0.305074   -1.137329
      4          1           0       -4.650662   -0.693396   -1.146921
      5          1           0       -5.414977   -1.132107    0.377703
      6          1           0       -5.541233    1.633152   -0.922445
      7          1           0       -6.305166    1.193738    0.601013
      8          1           0       -7.718895   -0.512045   -0.594122
      9          1           0       -6.950622   -0.070135   -2.126235
     10          1           0       -7.967822    1.104642   -1.275053
     11          6           0       -3.719645    0.182187    0.589115
     12          6           0       -2.673988   -0.913820    0.797333
     13          6           0       -1.442770   -0.419504    1.557299
     14          1           0       -3.261051    1.017677    0.042267
     15          1           0       -4.025365    0.578966    1.566891
     16          1           0       -2.370862   -1.308168   -0.181043
     17          1           0       -3.134795   -1.747582    1.342415
     18          1           0       -1.725406   -0.044295    2.546206
     19          1           0       -0.957133    0.397615    1.014092
     20          1           0       -0.708206   -1.219072    1.695023
     21          6           0        3.084202   -2.453513   -0.342687
     22          6           0        4.355204   -1.890544   -0.498054
     23          6           0        4.535886   -0.507612   -0.401105
     24          6           0        3.418547    0.286217   -0.146781
     25          6           0        2.139533   -0.244768    0.012811
     26          6           0        1.982365   -1.630280   -0.088199
     27          1           0        2.952976   -3.528811   -0.419577
     28          1           0        5.212713   -2.527439   -0.695763
     29          1           0        5.508663   -0.045384   -0.517152
     30          1           0        1.303781    0.415828    0.209147
     31          1           0        0.994115   -2.064722    0.032905
     32          7           0        3.597381    1.751631   -0.041996
     33          8           0        2.596917    2.429291    0.182698
     34          8           0        4.734627    2.194816   -0.186544
 ---------------------------------------------------------------------

 SCF Done:  E(RHF) =  -669.535106458     A.U. after   15 cycles
 E2 =    -0.2091719961D+01 EUMP2 =    -0.67162682641869D+03

 The electronic state is 1-A.
 Alpha  occ. eigenvalues --  -20.60716 -20.60710 -15.85766 -11.31103 -11.27692
 Alpha  occ. eigenvalues --  -11.27635 -11.27433 -11.26704 -11.26661 -11.22291
 Alpha  occ. eigenvalues --  -11.21938 -11.21821 -11.21803 -11.21692 -11.21249
 Alpha  occ. eigenvalues --   -1.59790  -1.39344  -1.19284  -1.08856  -1.08687
 Alpha  occ. eigenvalues --   -1.04690  -1.04001  -0.96464  -0.95522  -0.87487
 Alpha  occ. eigenvalues --   -0.86087  -0.82357  -0.80077  -0.78626  -0.77402
 Alpha  occ. eigenvalues --   -0.71987  -0.71112  -0.70408  -0.65490  -0.64937
 Alpha  occ. eigenvalues --   -0.64716  -0.62170  -0.61317  -0.59834  -0.58057
 Alpha  occ. eigenvalues --   -0.55759  -0.55168  -0.53229  -0.53053  -0.52978
 Alpha  occ. eigenvalues --   -0.52579  -0.50375  -0.48744  -0.48741  -0.48374
 Alpha  occ. eigenvalues --   -0.47087  -0.46177  -0.46073  -0.44755  -0.44239
 Alpha  occ. eigenvalues --   -0.37274  -0.36278
 Alpha virt. eigenvalues --    0.05119   0.11348   0.16563   0.19806   0.22769
 Alpha virt. eigenvalues --    0.23837   0.25495   0.26199   0.26681   0.27890
 Alpha virt. eigenvalues --    0.28902   0.30159   0.31408   0.31590   0.32443

 Mulliken charges:
               1
     1  C   -0.298709
     2  C   -0.300290
     3  C   -0.475978
     4  H    0.149389
     5  H    0.149480
     6  H    0.153807
     7  H    0.152975
     8  H    0.155028
     9  H    0.155220
    10  H    0.161630
    11  C   -0.299347
    12  C   -0.300889
    13  C   -0.485421
    14  H    0.153230
    15  H    0.152339
    16  H    0.148444
    17  H    0.153908
    18  H    0.164308
    19  H    0.158048
    20  H    0.154307
    21  C   -0.170862
    22  C   -0.218991
    23  C   -0.170321
    24  C    0.158934
    25  C   -0.176248
    26  C   -0.225029
    27  H    0.225345
    28  H    0.223080
    29  H    0.275338
    30  H    0.283654
    31  H    0.227379
    32  N    0.487630
    33  O   -0.460722
    34  O   -0.460663
 Sum of Mulliken charges =  -0.00000

 Dipole moment (field-independent basis, Debye):
    X=             -0.8293    Y=             -5.0999    Z=             -0.3233  Tot=              5.1770
 Quadrupole moment (field-independent basis, Debye-Ang):
   XX=            -94.4099   YY=            -98.3631   ZZ=            -94.7440
   XY=            -18.8818   XZ=             -3.1925   YZ=              0.4858

 Normal termination of Gaussian 16 at Wed May  5 15:30:17 2021.
