 Gaussian 16, Revision A.03,
 Gaussian 16:  EM64L-G16RevA.03 25-Dec-2016

 -------------
 #p 6-31g* mp2
 -------------

 ------------------------------------------------------
 Input file generated by CHIRIPA (05-May-2021 14:53:15)
 ------------------------------------------------------
 Symbolic Z-matrix:
 Charge =  0 Multiplicity = 1

                         Standard orientation:
 ---------------------------------------------------------------------
 Center     Atomic      Atomic             Coordinates (Angstroms)
 Number     Number       Type             X           Y           Z
 ---------------------------------------------------------------------
      1          6           0       -2.924134   -0.529000    0.252662
      2          6           0       -2.389381   -1.777440    0.955102
      3          6           0       -0.864450   -1.785855    1.066045
      4          1           0       -2.481700   -0.462736   -0.750736
      5          1           0       -2.590530    0.362935    0.800891
      6          1           0       -2.725050   -2.666806    0.406495
      7          1           0       -2.833287   -1.840842    1.956872
      8          1           0       -0.514562   -0.916397    1.631927
      9          1           0       -0.405710   -1.747054    0.072742
     10          1           0       -0.503658   -2.687139    1.571393
     11          6           0       -4.447008   -0.506029    0.134107
     12          6           0       -4.981761    0.742411   -0.568333
     13          6           0       -6.506692    0.750826   -0.679277
     14          1           0       -4.780612   -1.397964   -0.414122
     15          1           0       -4.889442   -0.572293    1.137504
     16          1           0       -4.537855    0.805813   -1.570103
     17          1           0       -4.646092    1.631778   -0.019727
     18          1           0       -6.965433    0.712025    0.314027
     19          1           0       -6.856581   -0.118632   -1.245159
     20          1           0       -6.867485    1.652110   -1.184625
     21          6           0        1.028985    2.071464    0.252220
     22          6           0        0.812489    0.975380   -0.589356
     23          6           0        1.830518    0.045356   -0.820050
     24          6           0        3.058239    0.243134   -0.190071
     25          6           0        3.304702    1.325012    0.653781
     26          6           0        2.272208    2.242480    0.870013
     27          1           0        0.232537    2.789052    0.425812
     28          1           0       -0.152004    0.840033   -1.070479
     29          1           0        1.690058   -0.812176   -1.466833
     30          1           0        4.276813    1.433239    1.119299
     31          1           0        2.443188    3.092772    1.524088
     32          7           0        4.143638   -0.734795   -0.426642
     33          8           0        5.216266   -0.538016    0.140265
     34          8           0        3.901192   -1.679557   -1.174493
 ---------------------------------------------------------------------

 SCF Done:  E(RHF) =  -669.534246271     A.U. after   15 cycles
 E2 =    -0.2093279192D+01 EUMP2 =    -0.67162752546289D+03

 The electronic state is 1-A.
 Alpha  occ. eigenvalues --  -20.60718 -20.60713 -15.85770 -11.31131 -11.27675
 Alpha  occ. eigenvalues --  -11.27667 -11.27417 -11.26720 -11.26658 -11.22280
 Alpha  occ. eigenvalues --  -11.22253 -11.22131 -11.22034 -11.21609 -11.21441
 Alpha  occ. eigenvalues --   -1.59793  -1.39347  -1.19297  -1.09115  -1.08692
 Alpha  occ. eigenvalues --   -1.04715  -1.04103  -0.96559  -0.95531  -0.87573
 Alpha  occ. eigenvalues --   -0.86097  -0.82375  -0.80184  -0.78980  -0.77401
 Alpha  occ. eigenvalues --   -0.71990  -0.71114  -0.70409  -0.65748  -0.64950
 Alpha  occ. eigenvalues --   -0.64707  -0.62094  -0.61476  -0.59922  -0.58203
 Alpha  occ. eigenvalues --   -0.55848  -0.55199  -0.53405  -0.53208  -0.52826
 Alpha  occ. eigenvalues --   -0.52610  -0.50502  -0.48750  -0.48745  -0.48467
 Alpha  occ. eigenvalues --   -0.47222  -0.46473  -0.46423  -0.44752  -0.44396
 Alpha  occ. eigenvalues --   -0.37274  -0.36195
 Alpha virt. eigenvalues --    0.05100   0.11265   0.16539   0.19999   0.22606
 Alpha virt. eigenvalues --    0.23924   0.24932   0.25959   0.26781   0.28530
 Alpha virt. eigenvalues --    0.28914   0.30018   0.31066   0.31479   0.31570

 Mulliken charges:
               1
     1  C   -0.299914
     2  C   -0.300648
     3  C   -0.474873
     4  H    0.142682
     5  H    0.145419
     6  H    0.154412
     7  H    0.154097
     8  H    0.157729
     9  H    0.149219
    10  H    0.164984
    11  C   -0.298017
    12  C   -0.299912
    13  C   -0.475982
    14  H    0.152446
    15  H    0.152268
    16  H    0.150275
    17  H    0.149359
    18  H    0.156553
    19  H    0.157052
    20  H    0.161224
    21  C   -0.174876
    22  C   -0.214969
    23  C   -0.170036
    24  C    0.158082
    25  C   -0.172004
    26  C   -0.218222
    27  H    0.225391
    28  H    0.228727
    29  H    0.274362
    30  H    0.275215
    31  H    0.223008
    32  N    0.488150
    33  O   -0.460611
    34  O   -0.460591
 Sum of Mulliken charges =  -0.00000

 Dipole moment (field-independent basis, Debye):
    X=             -3.9438    Y=              3.3689    Z=              0.9009  Tot=              5.2644
 Quadrupole moment (field-independent basis, Debye-Ang):
   XX=           -117.5291   YY=            -91.9345   ZZ=            -92.9787
   XY=             11.7466   XZ=              5.0930   YZ=              1.7567

 Normal termination of Gaussian 16 at Thu May  6 09:00:55 2021.
