 Gaussian 16, Revision A.03,
 Gaussian 16:  EM64L-G16RevA.03 25-Dec-2016

 -------------
 #p 6-31g* mp2
 -------------

 ------------------------------------------------------
 Input file generated by CHIRIPA (05-May-2021 14:51:08)
 ------------------------------------------------------
 Symbolic Z-matrix:
 Charge =  0 Multiplicity = 1

                         Standard orientation:
 ---------------------------------------------------------------------
 Center     Atomic      Atomic             Coordinates (Angstroms)
 Number     Number       Type             X           Y           Z
 ---------------------------------------------------------------------
      1          6           0       -3.772806   -0.342800   -0.490781
      2          6           0       -5.197715   -0.826428   -0.219263
      3          6           0       -5.437408   -2.258380   -0.698693
      4          1           0       -3.568917   -0.409211   -1.568262
      5          1           0       -3.062723   -1.019820    0.004012
      6          1           0       -5.904948   -0.147904   -0.713271
      7          1           0       -5.398301   -0.758677    0.857673
      8          1           0       -4.754893   -2.951950   -0.196961
      9          1           0       -5.264419   -2.337707   -1.776831
     10          1           0       -6.462270   -2.583802   -0.494685
     11          6           0       -3.517754    1.087005   -0.017140
     12          6           0       -2.092845    1.570632   -0.288659
     13          6           0       -1.853152    3.002585    0.190771
     14          1           0       -4.227837    1.764025   -0.511934
     15          1           0       -3.721643    1.153416    1.060340
     16          1           0       -1.892259    1.502882   -1.365595
     17          1           0       -1.385612    0.892109    0.205350
     18          1           0       -2.026141    3.081912    1.268910
     19          1           0       -2.535667    3.696155   -0.310960
     20          1           0       -0.828290    3.328007   -0.013236
     21          6           0        2.886301   -0.298674    0.298576
     22          6           0        2.311850   -0.745764    1.643233
     23          6           0        0.792328   -0.592844    1.717138
     24          1           0        2.612849    0.750408    0.120827
     25          1           0        2.418421   -0.884108   -0.505011
     26          1           0        2.781686   -0.160619    2.444155
     27          1           0        2.586863   -1.793847    1.817888
     28          1           0        0.306724   -1.190087    0.938620
     29          1           0        0.502653    0.452421    1.568445
     30          1           0        0.402784   -0.918200    2.686808
     31          6           0        4.404259   -0.445531    0.209346
     32          6           0        4.978709    0.001559   -1.135311
     33          6           0        6.498232   -0.151361   -1.209217
     34          1           0        4.872139    0.139903    1.012932
     35          1           0        4.677711   -1.494614    0.387094
     36          1           0        4.703696    1.049642   -1.309967
     37          1           0        4.508875   -0.583587   -1.936234
     38          1           0        6.787907   -1.196626   -1.060524
     39          1           0        6.983836    0.445882   -0.430699
     40          1           0        6.887777    0.173995   -2.178886
 ---------------------------------------------------------------------

 SCF Done:  E(RHF) =  -470.733054860     A.U. after   11 cycles
 E2 =    -0.1582834940D+01 EUMP2 =    -0.47231588979922D+03

 The electronic state is 1-A.
 Alpha  occ. eigenvalues --  -11.21649 -11.21615 -11.21558 -11.21441 -11.21429
 Alpha  occ. eigenvalues --  -11.21369 -11.21337 -11.21273 -11.21138 -11.21081
 Alpha  occ. eigenvalues --  -11.21041 -11.21029  -1.08460  -1.08358  -1.03575
 Alpha  occ. eigenvalues --   -1.03460  -0.96026  -0.95923  -0.87051  -0.86935
 Alpha  occ. eigenvalues --   -0.79691  -0.79482  -0.78290  -0.78147  -0.65096
 Alpha  occ. eigenvalues --   -0.64991  -0.61021  -0.60833  -0.59399  -0.59287
 Alpha  occ. eigenvalues --   -0.57667  -0.57499  -0.55351  -0.55171  -0.52718
 Alpha  occ. eigenvalues --   -0.52632  -0.52479  -0.52334  -0.49985  -0.49847
 Alpha  occ. eigenvalues --   -0.48127  -0.47737  -0.46708  -0.46477  -0.45910
 Alpha  occ. eigenvalues --   -0.45733  -0.45694  -0.45433  -0.43819  -0.43720
 Alpha virt. eigenvalues --    0.21802   0.22987   0.23693   0.24654   0.25651
 Alpha virt. eigenvalues --    0.26529   0.27143   0.27519   0.27893   0.29233
 Alpha virt. eigenvalues --    0.31110   0.31486   0.31751   0.31829   0.32003

 Mulliken charges:
               1
     1  C   -0.298820
     2  C   -0.299570
     3  C   -0.475678
     4  H    0.149328
     5  H    0.150006
     6  H    0.151840
     7  H    0.151933
     8  H    0.155073
     9  H    0.155021
    10  H    0.160109
    11  C   -0.297371
    12  C   -0.309324
    13  C   -0.475748
    14  H    0.148922
    15  H    0.149357
    16  H    0.151062
    17  H    0.163314
    18  H    0.154793
    19  H    0.155177
    20  H    0.159038
    21  C   -0.298331
    22  C   -0.299627
    23  C   -0.480572
    24  H    0.149679
    25  H    0.149851
    26  H    0.152132
    27  H    0.152075
    28  H    0.156113
    29  H    0.159630
    30  H    0.160321
    31  C   -0.298326
    32  C   -0.299671
    33  C   -0.475730
    34  H    0.149561
    35  H    0.149696
    36  H    0.151993
    37  H    0.152027
    38  H    0.155196
    39  H    0.155202
    40  H    0.160319
 Sum of Mulliken charges =  -0.00000

 Dipole moment (field-independent basis, Debye):
    X=              0.0464    Y=             -0.0230    Z=              0.0196  Tot=              0.0554
 Quadrupole moment (field-independent basis, Debye-Ang):
   XX=            -86.1198   YY=            -84.8997   ZZ=            -83.9425
   XY=             -0.2396   XZ=              0.4120   YZ=             -0.2742

 Normal termination of Gaussian 16 at Thu May  6 08:27:02 2021.
