 Gaussian 16, Revision A.03,
 Gaussian 16:  EM64L-G16RevA.03 25-Dec-2016

 -------------
 #p 6-31g* mp2
 -------------

 ------------------------------------------------------
 Input file generated by CHIRIPA (05-May-2021 14:55:21)
 ------------------------------------------------------
 Symbolic Z-matrix:
 Charge =  0 Multiplicity = 1

                         Standard orientation:
 ---------------------------------------------------------------------
 Center     Atomic      Atomic             Coordinates (Angstroms)
 Number     Number       Type             X           Y           Z
 ---------------------------------------------------------------------
      1          6           0        0.661625    0.915175    2.090829
      2          6           0        1.493525    1.729531    1.315401
      3          6           0        2.312647    1.172755    0.328697
      4          6           0        2.274566   -0.208374    0.143433
      5          6           0        1.456537   -1.046204    0.899845
      6          6           0        0.645814   -0.467656    1.880946
      7          1           0        0.028573    1.356148    2.855148
      8          1           0        1.507869    2.803768    1.476194
      9          1           0        2.966218    1.779849   -0.285877
     10          1           0        1.463998   -2.113762    0.716318
     11          1           0        0.000749   -1.102544    2.481657
     12          7           0        3.137288   -0.809332   -0.898181
     13          8           0        3.085366   -2.028890   -1.041776
     14          8           0        3.849076   -0.049426   -1.551279
     15          6           0       -2.879394    0.829356   -0.696000
     16          6           0       -1.776609    1.854342   -0.429069
     17          6           0       -2.091118    3.228676   -1.020750
     18          1           0       -3.031085    0.737382   -1.780193
     19          1           0       -3.825196    1.201602   -0.278524
     20          1           0       -0.832878    1.479646   -0.845710
     21          1           0       -1.627393    1.943746    0.654609
     22          1           0       -3.018504    3.627453   -0.597035
     23          1           0       -2.219475    3.160716   -2.105879
     24          1           0       -1.289641    3.945938   -0.818190
     25          6           0       -2.579496   -0.549475   -0.110665
     26          6           0       -3.682281   -1.574461   -0.377597
     27          6           0       -3.367772   -2.948795    0.214084
     28          1           0       -1.633694   -0.921720   -0.528141
     29          1           0       -2.427804   -0.457501    0.973528
     30          1           0       -3.831497   -1.663864   -1.461275
     31          1           0       -4.626012   -1.199764    0.039045
     32          1           0       -3.239415   -2.880834    1.299214
     33          1           0       -2.440386   -3.347571   -0.209630
     34          1           0       -4.169249   -3.666055    0.011525
 ---------------------------------------------------------------------

 SCF Done:  E(RHF) =  -669.533724404     A.U. after   15 cycles
 E2 =    -0.2095292647D+01 EUMP2 =    -0.67162901705064D+03

 The electronic state is 1-A.
 Alpha  occ. eigenvalues --  -20.60804 -20.60799 -15.85858 -11.31229 -11.27781
 Alpha  occ. eigenvalues --  -11.27773 -11.27482 -11.26776 -11.26766 -11.21948
 Alpha  occ. eigenvalues --  -11.21874 -11.21763 -11.21688 -11.21501 -11.21454
 Alpha  occ. eigenvalues --   -1.59881  -1.39434  -1.19394  -1.08873  -1.08707
 Alpha  occ. eigenvalues --   -1.04792  -1.03899  -0.96366  -0.95626  -0.87382
 Alpha  occ. eigenvalues --   -0.86188  -0.82455  -0.79963  -0.78635  -0.77493
 Alpha  occ. eigenvalues --   -0.72074  -0.71206  -0.70508  -0.65440  -0.65040
 Alpha  occ. eigenvalues --   -0.64775  -0.62139  -0.61299  -0.59755  -0.57988
 Alpha  occ. eigenvalues --   -0.55660  -0.55296  -0.53384  -0.52896  -0.52883
 Alpha  occ. eigenvalues --   -0.52788  -0.50307  -0.48835  -0.48830  -0.48284
 Alpha  occ. eigenvalues --   -0.46999  -0.46163  -0.45999  -0.44839  -0.44150
 Alpha  occ. eigenvalues --   -0.37222  -0.36331
 Alpha virt. eigenvalues --    0.04985   0.11143   0.16410   0.20357   0.22997
 Alpha virt. eigenvalues --    0.23387   0.25749   0.26666   0.27405   0.27746
 Alpha virt. eigenvalues --    0.29025   0.29839   0.31145   0.31627   0.31951

 Mulliken charges:
               1
     1  C   -0.169462
     2  C   -0.213759
     3  C   -0.173093
     4  C    0.158085
     5  C   -0.172929
     6  C   -0.212366
     7  H    0.224893
     8  H    0.223395
     9  H    0.275593
    10  H    0.275715
    11  H    0.223832
    12  N    0.488018
    13  O   -0.460509
    14  O   -0.460347
    15  C   -0.299323
    16  C   -0.298222
    17  C   -0.475601
    18  H    0.152145
    19  H    0.148041
    20  H    0.158060
    21  H    0.143577
    22  H    0.154336
    23  H    0.158299
    24  H    0.155505
    25  C   -0.297246
    26  C   -0.299801
    27  C   -0.476029
    28  H    0.153433
    29  H    0.140227
    30  H    0.155040
    31  H    0.151564
    32  H    0.149455
    33  H    0.156367
    34  H    0.163104
 Sum of Mulliken charges =  -0.00000

 Dipole moment (field-independent basis, Debye):
    X=             -3.0021    Y=              2.0856    Z=              3.6187  Tot=              5.1437
 Quadrupole moment (field-independent basis, Debye-Ang):
   XX=           -108.7033   YY=            -92.8575   ZZ=            -93.4127
   XY=              7.4491   XZ=              7.3254   YZ=             -0.9528

 Normal termination of Gaussian 16 at Wed May  5 23:51:17 2021.
