 Gaussian 16, Revision A.03,
 Gaussian 16:  EM64L-G16RevA.03 25-Dec-2016

 -------------
 #p 6-31g* mp2
 -------------

 ------------------------------------------------------
 Input file generated by CHIRIPA (05-May-2021 14:57:23)
 ------------------------------------------------------
 Symbolic Z-matrix:
 Charge =  0 Multiplicity = 1

                         Standard orientation:
 ---------------------------------------------------------------------
 Center     Atomic      Atomic             Coordinates (Angstroms)
 Number     Number       Type             X           Y           Z
 ---------------------------------------------------------------------
      1          6           0        6.053691    0.009248   -0.295186
      2          6           0        5.491302    0.796666    0.714870
      3          6           0        4.118102    0.746683    0.972496
      4          6           0        3.333309   -0.105694    0.197356
      5          6           0        3.863973   -0.902490   -0.815956
      6          6           0        5.239666   -0.836326   -1.056034
      7          1           0        7.121394    0.054361   -0.488500
      8          1           0        6.121057    1.454267    1.307335
      9          1           0        3.656550    1.345447    1.748300
     10          1           0        3.210630   -1.548360   -1.389900
     11          1           0        5.673682   -1.448980   -1.841101
     12          7           0        1.878243   -0.167174    0.460805
     13          8           0        1.208429   -0.926273   -0.236155
     14          8           0        1.435129    0.544902    1.359267
     15          6           0       -2.935519    2.472388   -0.710787
     16          6           0       -2.111482    1.414827   -1.109596
     17          6           0       -2.454850    0.093918   -0.806536
     18          6           0       -3.634762   -0.134221   -0.100102
     19          6           0       -4.476551    0.898081    0.311031
     20          6           0       -4.113348    2.211101   -0.002994
     21          1           0       -2.661079    3.495438   -0.950469
     22          1           0       -1.196173    1.614770   -1.659392
     23          1           0       -1.835243   -0.743667   -1.103113
     24          1           0       -5.382728    0.667400    0.857884
     25          1           0       -4.755228    3.030439    0.308001
     26          7           0       -4.008769   -1.528432    0.226538
     27          8           0       -5.053550   -1.702940    0.849928
     28          8           0       -3.250053   -2.420309   -0.147018
 ---------------------------------------------------------------------

 SCF Done:  E(RHF) =  -868.338959338     A.U. after   16 cycles
 E2 =    -0.2598930262D+01 EUMP2 =    -0.87093788959998D+03

 The electronic state is 1-A.
 Alpha  occ. eigenvalues --  -20.61326 -20.61315 -20.59621 -20.59590 -15.86355
 Alpha  occ. eigenvalues --  -15.84657 -11.31589 -11.29884 -11.28141 -11.28132
 Alpha  occ. eigenvalues --  -11.27854 -11.27123 -11.27110 -11.26566 -11.26333
 Alpha  occ. eigenvalues --  -11.26311 -11.25582 -11.25440  -1.60388  -1.58685
 Alpha  occ. eigenvalues --   -1.39944  -1.38240  -1.19748  -1.18085  -1.09167
 Alpha  occ. eigenvalues --   -1.07532  -1.05128  -1.03463  -0.96022  -0.94372
 Alpha  occ. eigenvalues --   -0.86532  -0.84892  -0.82856  -0.81204  -0.77920
 Alpha  occ. eigenvalues --   -0.76242  -0.72575  -0.71707  -0.70889  -0.70849
 Alpha  occ. eigenvalues --   -0.70000  -0.69234  -0.65400  -0.65125  -0.63755
 Alpha  occ. eigenvalues --   -0.63507  -0.62474  -0.60806  -0.55630  -0.54057
 Alpha  occ. eigenvalues --   -0.53468  -0.53215  -0.51813  -0.51581  -0.49329
 Alpha  occ. eigenvalues --   -0.49309  -0.47650  -0.47626  -0.45376  -0.43675
 Alpha  occ. eigenvalues --   -0.37723  -0.36727  -0.36111  -0.35032
 Alpha virt. eigenvalues --    0.04590   0.06287   0.10929   0.12599   0.16109
 Alpha virt. eigenvalues --    0.17766   0.21093   0.22583   0.27019   0.27933
 Alpha virt. eigenvalues --    0.28498   0.29503   0.30693   0.32037   0.32208

 Mulliken charges:
               1
     1  C   -0.170292
     2  C   -0.218608
     3  C   -0.171012
     4  C    0.157194
     5  C   -0.171185
     6  C   -0.218558
     7  H    0.226997
     8  H    0.224497
     9  H    0.275830
    10  H    0.276435
    11  H    0.225026
    12  N    0.488573
    13  O   -0.464907
    14  O   -0.457758
    15  C   -0.170454
    16  C   -0.215703
    17  C   -0.162135
    18  C    0.155866
    19  C   -0.171522
    20  C   -0.219666
    21  H    0.220111
    22  H    0.220395
    23  H    0.287465
    24  H    0.271537
    25  H    0.218136
    26  N    0.488196
    27  O   -0.466152
    28  O   -0.458307
 Sum of Mulliken charges =  -0.00000

 Dipole moment (field-independent basis, Debye):
    X=              6.9084    Y=              5.0015    Z=             -2.0800  Tot=              8.7788
 Quadrupole moment (field-independent basis, Debye-Ang):
   XX=            -78.4470   YY=           -104.8268   ZZ=           -102.3130
   XY=            -18.7607   XZ=              0.2582   YZ=              3.7371

 Normal termination of Gaussian 16 at Thu May  6 09:44:49 2021.
