 Gaussian 16, Revision A.03,
 Gaussian 16:  EM64L-G16RevA.03 25-Dec-2016

 -------------
 #p 6-31g* mp2
 -------------

 ------------------------------------------------------
 Input file generated by CHIRIPA (05-May-2021 14:55:20)
 ------------------------------------------------------
 Symbolic Z-matrix:
 Charge =  0 Multiplicity = 1

                         Standard orientation:
 ---------------------------------------------------------------------
 Center     Atomic      Atomic             Coordinates (Angstroms)
 Number     Number       Type             X           Y           Z
 ---------------------------------------------------------------------
      1          6           0       -4.992692    2.141109    0.244043
      2          6           0       -5.544474    0.989742   -0.327281
      3          6           0       -4.766736   -0.158774   -0.502158
      4          6           0       -3.434797   -0.120739   -0.092547
      5          6           0       -2.856187    1.011026    0.479823
      6          6           0       -3.652671    2.148064    0.645065
      7          1           0       -5.604139    3.028846    0.376149
      8          1           0       -6.584860    0.981464   -0.639650
      9          1           0       -5.168447   -1.063685   -0.941681
     10          1           0       -1.816003    0.988964    0.781402
     11          1           0       -3.221481    3.040809    1.089054
     12          7           0       -2.601517   -1.330546   -0.272581
     13          8           0       -1.430673   -1.271445    0.096565
     14          8           0       -3.135014   -2.314986   -0.779430
     15          6           0        3.818569   -0.223762    0.069178
     16          6           0        3.410086   -1.545029    0.721393
     17          6           0        1.899109   -1.777017    0.690994
     18          1           0        3.308744    0.603686    0.581381
     19          1           0        3.465731   -0.212037   -0.971382
     20          1           0        3.764793   -1.554833    1.759999
     21          1           0        3.921091   -2.369414    0.207701
     22          1           0        1.532613   -1.793812   -0.340509
     23          1           0        1.375428   -0.974603    1.220608
     24          1           0        1.629257   -2.727172    1.162424
     25          6           0        5.326087    0.022415    0.091784
     26          6           0        5.734569    1.343680   -0.560431
     27          6           0        7.245546    1.575669   -0.530033
     28          1           0        5.678924    0.010689    1.132343
     29          1           0        5.835912   -0.805035   -0.420419
     30          1           0        5.223564    2.168066   -0.046740
     31          1           0        5.379862    1.353485   -1.599038
     32          1           0        7.769228    0.773256   -1.059647
     33          1           0        7.612042    1.592464    0.501472
     34          1           0        7.515398    2.525823   -1.001462
 ---------------------------------------------------------------------

 SCF Done:  E(RHF) =  -669.535481851     A.U. after   15 cycles
 E2 =    -0.2090922026D+01 EUMP2 =    -0.67162640387658D+03

 The electronic state is 1-A.
 Alpha  occ. eigenvalues --  -20.60819 -20.60809 -15.85857 -11.31229 -11.27800
 Alpha  occ. eigenvalues --  -11.27796 -11.27545 -11.26818 -11.26808 -11.21231
 Alpha  occ. eigenvalues --  -11.20868 -11.20775 -11.20699 -11.20591 -11.19560
 Alpha  occ. eigenvalues --   -1.59887  -1.39441  -1.19403  -1.08798  -1.07791
 Alpha  occ. eigenvalues --   -1.04807  -1.02785  -0.95640  -0.95188  -0.86222
 Alpha  occ. eigenvalues --   -0.86182  -0.82464  -0.78873  -0.77607  -0.77468
 Alpha  occ. eigenvalues --   -0.72070  -0.71208  -0.70512  -0.65057  -0.64811
 Alpha  occ. eigenvalues --   -0.64435  -0.62155  -0.60190  -0.58645  -0.56804
 Alpha  occ. eigenvalues --   -0.55309  -0.54487  -0.53136  -0.52900  -0.51863
 Alpha  occ. eigenvalues --   -0.51603  -0.49179  -0.48839  -0.48800  -0.47143
 Alpha  occ. eigenvalues --   -0.45938  -0.45095  -0.45044  -0.44813  -0.43040
 Alpha  occ. eigenvalues --   -0.37385  -0.36411
 Alpha virt. eigenvalues --    0.05018   0.11243   0.16504   0.21293   0.23425
 Alpha virt. eigenvalues --    0.24956   0.26909   0.27365   0.27767   0.28148
 Alpha virt. eigenvalues --    0.29086   0.30789   0.31826   0.32320   0.32707

 Mulliken charges:
               1
     1  C   -0.170758
     2  C   -0.218575
     3  C   -0.170747
     4  C    0.157695
     5  C   -0.170773
     6  C   -0.218545
     7  H    0.225732
     8  H    0.223571
     9  H    0.275728
    10  H    0.275596
    11  H    0.223572
    12  N    0.493519
    13  O   -0.463155
    14  O   -0.460248
    15  C   -0.296478
    16  C   -0.302738
    17  C   -0.465741
    18  H    0.145243
    19  H    0.149554
    20  H    0.146773
    21  H    0.149208
    22  H    0.164207
    23  H    0.152077
    24  H    0.160160
    25  C   -0.297417
    26  C   -0.298883
    27  C   -0.475271
    28  H    0.148049
    29  H    0.149399
    30  H    0.149667
    31  H    0.151463
    32  H    0.155192
    33  H    0.154442
    34  H    0.158484
 Sum of Mulliken charges =  -0.00000

 Dipole moment (field-independent basis, Debye):
    X=             -3.2032    Y=              4.1869    Z=              0.5942  Tot=              5.3051
 Quadrupole moment (field-independent basis, Debye-Ang):
   XX=            -74.0965   YY=            -95.0025   ZZ=            -94.1329
   XY=            -12.8885   XZ=             -0.2699   YZ=              1.2300

 Normal termination of Gaussian 16 at Thu May  6 09:17:40 2021.
