 Gaussian 16, Revision A.03,
 Gaussian 16:  EM64L-G16RevA.03 25-Dec-2016

 -------------
 #p 6-31g* mp2
 -------------

 ------------------------------------------------------
 Input file generated by CHIRIPA (05-May-2021 14:57:26)
 ------------------------------------------------------
 Symbolic Z-matrix:
 Charge =  0 Multiplicity = 1

                         Standard orientation:
 ---------------------------------------------------------------------
 Center     Atomic      Atomic             Coordinates (Angstroms)
 Number     Number       Type             X           Y           Z
 ---------------------------------------------------------------------
      1          6           0        1.925810    1.464401    1.001637
      2          6           0        3.036559    1.124940    1.781075
      3          6           0        4.051907    0.319127    1.257355
      4          6           0        3.923571   -0.131770   -0.055471
      5          6           0        2.829206    0.189172   -0.857126
      6          6           0        1.825855    0.996259   -0.312659
      7          1           0        1.141723    2.090871    1.416533
      8          1           0        3.116844    1.487069    2.802085
      9          1           0        4.922666    0.041087    1.838639
     10          1           0        2.777190   -0.186947   -1.871644
     11          1           0        0.964370    1.258292   -0.920301
     12          7           0        4.992125   -0.985522   -0.620892
     13          8           0        4.855407   -1.369989   -1.780258
     14          8           0        5.946141   -1.254060    0.106004
     15          6           0       -2.548240    2.112504   -0.691377
     16          6           0       -2.197577    1.444710    0.486591
     17          6           0       -2.855276    0.268465    0.858649
     18          6           0       -3.863397   -0.214032    0.025476
     19          6           0       -4.235566    0.428482   -1.154336
     20          6           0       -3.564324    1.603157   -1.506642
     21          1           0       -2.032064    3.025630   -0.972728
     22          1           0       -1.408864    1.837966    1.121671
     23          1           0       -2.603918   -0.268660    1.765144
     24          1           0       -5.025916    0.012122   -1.767044
     25          1           0       -3.838762    2.119664   -2.422039
     26          7           0       -4.566842   -1.458440    0.408903
     27          8           0       -5.451519   -1.862968   -0.342323
     28          8           0       -4.220205   -2.005714    1.453398
 ---------------------------------------------------------------------

 SCF Done:  E(RHF) =  -868.336474501     A.U. after   16 cycles
 E2 =    -0.2600392942D+01 EUMP2 =    -0.87093686744375D+03

 The electronic state is 1-A.
 Alpha  occ. eigenvalues --  -20.61343 -20.61336 -20.61115 -20.61110 -15.86404
 Alpha  occ. eigenvalues --  -15.86172 -11.31966 -11.31677 -11.28598 -11.28530
 Alpha  occ. eigenvalues --  -11.28419 -11.28242 -11.28231 -11.28153 -11.27761
 Alpha  occ. eigenvalues --  -11.27586 -11.27347 -11.27331  -1.60413  -1.60186
 Alpha  occ. eigenvalues --   -1.39961  -1.39736  -1.20178  -1.19868  -1.09554
 Alpha  occ. eigenvalues --   -1.09269  -1.05612  -1.05280  -0.96341  -0.96079
 Alpha  occ. eigenvalues --   -0.87024  -0.86683  -0.83173  -0.82892  -0.78176
 Alpha  occ. eigenvalues --   -0.77889  -0.72620  -0.72390  -0.71739  -0.71509
 Alpha  occ. eigenvalues --   -0.71301  -0.71079  -0.65842  -0.65716  -0.65514
 Alpha  occ. eigenvalues --   -0.65249  -0.62955  -0.62610  -0.56179  -0.55877
 Alpha  occ. eigenvalues --   -0.53950  -0.53723  -0.53578  -0.53363  -0.49395
 Alpha  occ. eigenvalues --   -0.49360  -0.49160  -0.49134  -0.45322  -0.45109
 Alpha  occ. eigenvalues --   -0.38210  -0.37905  -0.37205  -0.36845
 Alpha virt. eigenvalues --    0.04359   0.04621   0.10250   0.10842   0.15769
 Alpha virt. eigenvalues --    0.16009   0.18165   0.22014   0.24637   0.26226
 Alpha virt. eigenvalues --    0.27700   0.28801   0.29654   0.31448   0.32146

 Mulliken charges:
               1
     1  C   -0.174562
     2  C   -0.217563
     3  C   -0.170265
     4  C    0.159777
     5  C   -0.170244
     6  C   -0.218142
     7  H    0.216781
     8  H    0.224739
     9  H    0.277626
    10  H    0.277460
    11  H    0.221940
    12  N    0.487953
    13  O   -0.458838
    14  O   -0.458725
    15  C   -0.176267
    16  C   -0.221773
    17  C   -0.169485
    18  C    0.159381
    19  C   -0.169413
    20  C   -0.218065
    21  H    0.224640
    22  H    0.217660
    23  H    0.278219
    24  H    0.278814
    25  H    0.226485
    26  N    0.488016
    27  O   -0.457825
    28  O   -0.458319
 Sum of Mulliken charges =  -0.00000

 Dipole moment (field-independent basis, Debye):
    X=             -1.3738    Y=              7.1831    Z=              0.5656  Tot=              7.3351
 Quadrupole moment (field-independent basis, Debye-Ang):
   XX=           -149.9519   YY=           -109.1940   ZZ=            -98.2096
   XY=             -5.2424   XZ=             18.7700   YZ=             -0.2356

 Normal termination of Gaussian 16 at Fri May  7 03:31:58 2021.
