 Gaussian 16, Revision A.03,
 Gaussian 16:  EM64L-G16RevA.03 25-Dec-2016

 -------------
 #p 6-31g* mp2
 -------------

 ------------------------------------------------------
 Input file generated by CHIRIPA (05-May-2021 14:51:14)
 ------------------------------------------------------
 Symbolic Z-matrix:
 Charge =  0 Multiplicity = 1

                         Standard orientation:
 ---------------------------------------------------------------------
 Center     Atomic      Atomic             Coordinates (Angstroms)
 Number     Number       Type             X           Y           Z
 ---------------------------------------------------------------------
      1          6           0        3.505087    0.901223   -0.402218
      2          6           0        3.661343    2.071375    0.569539
      3          6           0        3.784886    3.418739   -0.142601
      4          1           0        4.367402    0.880252   -1.082598
      5          1           0        2.617423    1.069152   -1.027717
      6          1           0        4.547662    1.900614    1.193956
      7          1           0        2.798650    2.089447    1.247808
      8          1           0        2.896787    3.615294   -0.751901
      9          1           0        4.655736    3.425388   -0.806059
     10          1           0        3.895658    4.241264    0.570871
     11          6           0        3.380390   -0.452483    0.294675
     12          6           0        3.224133   -1.622635   -0.677082
     13          6           0        3.100591   -2.969999    0.035058
     14          1           0        4.268053   -0.620412    0.920173
     15          1           0        2.518074   -0.431512    0.975055
     16          1           0        4.086827   -1.640707   -1.355351
     17          1           0        2.337815   -1.451874   -1.301499
     18          1           0        2.229741   -2.976648    0.698516
     19          1           0        3.988690   -3.166554    0.644358
     20          1           0        2.989818   -3.792524   -0.678414
     21          6           0       -4.023476    0.036218   -0.368449
     22          6           0       -5.106904    0.733369    0.455049
     23          6           0       -6.262002    1.249202   -0.403704
     24          1           0       -3.637696    0.736013   -1.122378
     25          1           0       -4.473638   -0.800679   -0.920131
     26          1           0       -4.654561    1.567850    1.006087
     27          1           0       -5.490013    0.031894    1.207230
     28          1           0       -6.739800    0.424463   -0.942329
     29          1           0       -5.899601    1.969147   -1.144613
     30          1           0       -7.025101    1.744008    0.205154
     31          6           0       -2.862001   -0.484958    0.475993
     32          6           0       -1.778572   -1.182109   -0.347505
     33          6           0       -0.623474   -1.697942    0.511247
     34          1           0       -2.411839    0.351939    1.027674
     35          1           0       -3.247780   -1.184753    1.229920
     36          1           0       -1.395463   -0.480634   -1.099686
     37          1           0       -2.230915   -2.016590   -0.898545
     38          1           0       -0.985876   -2.417887    1.252156
     39          1           0       -0.145677   -0.873204    1.049872
     40          1           0        0.139625   -2.192748   -0.097610
 ---------------------------------------------------------------------

 SCF Done:  E(RHF) =  -470.732583072     A.U. after   11 cycles
 E2 =    -0.1583565948D+01 EUMP2 =    -0.47231614901984D+03

 The electronic state is 1-A.
 Alpha  occ. eigenvalues --  -11.21662 -11.21629 -11.21599 -11.21556 -11.21446
 Alpha  occ. eigenvalues --  -11.21386 -11.21370 -11.21298 -11.21111 -11.21093
 Alpha  occ. eigenvalues --  -11.21075 -11.20978  -1.08480  -1.08395  -1.03607
 Alpha  occ. eigenvalues --   -1.03479  -0.96057  -0.95928  -0.87064  -0.86957
 Alpha  occ. eigenvalues --   -0.79665  -0.79551  -0.78293  -0.78204  -0.65165
 Alpha  occ. eigenvalues --   -0.65007  -0.61108  -0.60920  -0.59334  -0.59300
 Alpha  occ. eigenvalues --   -0.57644  -0.57559  -0.55368  -0.55214  -0.52705
 Alpha  occ. eigenvalues --   -0.52644  -0.52467  -0.52312  -0.50053  -0.49804
 Alpha  occ. eigenvalues --   -0.47968  -0.47865  -0.46698  -0.46597  -0.45865
 Alpha  occ. eigenvalues --   -0.45776  -0.45731  -0.45594  -0.43805  -0.43735
 Alpha virt. eigenvalues --    0.20804   0.23115   0.23803   0.25050   0.25559
 Alpha virt. eigenvalues --    0.26564   0.26854   0.27673   0.27846   0.29307
 Alpha virt. eigenvalues --    0.30709   0.31059   0.31450   0.31710   0.32141

 Mulliken charges:
               1
     1  C   -0.298295
     2  C   -0.299483
     3  C   -0.475640
     4  H    0.149571
     5  H    0.149167
     6  H    0.152064
     7  H    0.151281
     8  H    0.154916
     9  H    0.155277
    10  H    0.160189
    11  C   -0.301178
    12  C   -0.301051
    13  C   -0.481137
    14  H    0.149292
    15  H    0.153618
    16  H    0.152149
    17  H    0.152255
    18  H    0.161186
    19  H    0.155267
    20  H    0.159300
    21  C   -0.298287
    22  C   -0.299655
    23  C   -0.475726
    24  H    0.149610
    25  H    0.149659
    26  H    0.151933
    27  H    0.152020
    28  H    0.155242
    29  H    0.155208
    30  H    0.160358
    31  C   -0.298644
    32  C   -0.300035
    33  C   -0.484108
    34  H    0.149361
    35  H    0.149880
    36  H    0.151531
    37  H    0.152329
    38  H    0.155352
    39  H    0.156230
    40  H    0.168991
 Sum of Mulliken charges =  -0.00000

 Dipole moment (field-independent basis, Debye):
    X=             -0.0272    Y=             -0.0185    Z=              0.0122  Tot=              0.0350
 Quadrupole moment (field-independent basis, Debye-Ang):
   XX=            -84.4186   YY=            -85.2591   ZZ=            -85.1709
   XY=              0.6554   XZ=             -0.4505   YZ=              0.4587

 Normal termination of Gaussian 16 at Wed May  5 16:55:05 2021.
