 Gaussian 16, Revision A.03,
 Gaussian 16:  EM64L-G16RevA.03 25-Dec-2016

 -------------
 #p 6-31g* mp2
 -------------

 ------------------------------------------------------
 Input file generated by CHIRIPA (05-May-2021 14:57:22)
 ------------------------------------------------------
 Symbolic Z-matrix:
 Charge =  0 Multiplicity = 1

                         Standard orientation:
 ---------------------------------------------------------------------
 Center     Atomic      Atomic             Coordinates (Angstroms)
 Number     Number       Type             X           Y           Z
 ---------------------------------------------------------------------
      1          6           0        2.463352    2.350052    0.444775
      2          6           0        3.482255    1.927797    1.305042
      3          6           0        4.134562    0.710226    1.089258
      4          6           0        3.740790   -0.063528   -0.001402
      5          6           0        2.729305    0.329821   -0.876310
      6          6           0        2.090786    1.551125   -0.641240
      7          1           0        1.961980    3.297341    0.619892
      8          1           0        3.773683    2.546198    2.149254
      9          1           0        4.926604    0.359193    1.739538
     10          1           0        2.460796   -0.308304   -1.709447
     11          1           0        1.299832    1.876523   -1.310981
     12          7           0        4.424060   -1.354492   -0.240051
     13          8           0        4.058571   -2.017872   -1.208029
     14          8           0        5.312158   -1.678525    0.545393
     15          6           0       -6.064872   -0.403432    0.565255
     16          6           0       -5.684703    0.470162   -0.458867
     17          6           0       -4.337498    0.618965   -0.801572
     18          6           0       -3.392608   -0.124665   -0.096244
     19          6           0       -3.739908   -1.003093    0.928957
     20          6           0       -5.092976   -1.135980    1.254682
     21          1           0       -7.113691   -0.512843    0.824882
     22          1           0       -6.437323    1.040343   -0.995990
     23          1           0       -4.015413    1.288173   -1.590139
     24          1           0       -2.966820   -1.558055    1.446421
     25          1           0       -5.385310   -1.815168    2.050477
     26          7           0       -1.963280    0.024441   -0.450064
     27          8           0       -1.150112   -0.642030    0.186499
     28          8           0       -1.683204    0.804957   -1.357251
 ---------------------------------------------------------------------

 SCF Done:  E(RHF) =  -868.339865350     A.U. after   16 cycles
 E2 =    -0.2598837639D+01 EUMP2 =    -0.87093870298892D+03

 The electronic state is 1-A.
 Alpha  occ. eigenvalues --  -20.61533 -20.61488 -20.59686 -20.59669 -15.86527
 Alpha  occ. eigenvalues --  -15.84721 -11.31683 -11.29852 -11.28240 -11.28203
 Alpha  occ. eigenvalues --  -11.27927 -11.27198 -11.27173 -11.26460 -11.26271
 Alpha  occ. eigenvalues --  -11.26113 -11.25496 -11.25170  -1.60570  -1.58757
 Alpha  occ. eigenvalues --   -1.40128  -1.38317  -1.19834  -1.17991  -1.09270
 Alpha  occ. eigenvalues --   -1.07450  -1.05203  -1.03337  -0.96140  -0.94327
 Alpha  occ. eigenvalues --   -0.86611  -0.84768  -0.82977  -0.81150  -0.78049
 Alpha  occ. eigenvalues --   -0.76215  -0.72757  -0.71871  -0.70954  -0.70938
 Alpha  occ. eigenvalues --   -0.70070  -0.69154  -0.65489  -0.65204  -0.63651
 Alpha  occ. eigenvalues --   -0.63340  -0.62551  -0.60690  -0.55712  -0.53921
 Alpha  occ. eigenvalues --   -0.53546  -0.53291  -0.51710  -0.51442  -0.49520
 Alpha  occ. eigenvalues --   -0.49475  -0.47715  -0.47685  -0.45575  -0.43775
 Alpha  occ. eigenvalues --   -0.37803  -0.36797  -0.35996  -0.34886
 Alpha virt. eigenvalues --    0.04466   0.06281   0.10861   0.12730   0.16005
 Alpha virt. eigenvalues --    0.17830   0.21029   0.22797   0.26954   0.27893
 Alpha virt. eigenvalues --    0.28839   0.29544   0.30616   0.32071   0.32381

 Mulliken charges:
               1
     1  C   -0.173408
     2  C   -0.218786
     3  C   -0.173705
     4  C    0.157214
     5  C   -0.164711
     6  C   -0.212800
     7  H    0.220478
     8  H    0.217102
     9  H    0.270363
    10  H    0.276379
    11  H    0.237943
    12  N    0.488261
    13  O   -0.461430
    14  O   -0.465599
    15  C   -0.170008
    16  C   -0.218573
    17  C   -0.170962
    18  C    0.157760
    19  C   -0.170385
    20  C   -0.218610
    21  H    0.227350
    22  H    0.224528
    23  H    0.274470
    24  H    0.277662
    25  H    0.225562
    26  N    0.489228
    27  O   -0.455125
    28  O   -0.470197
 Sum of Mulliken charges =  -0.00000

 Dipole moment (field-independent basis, Debye):
    X=             -7.9677    Y=              3.9304    Z=              2.0001  Tot=              9.1068
 Quadrupole moment (field-independent basis, Debye-Ang):
   XX=            -88.6846   YY=           -104.4101   ZZ=           -100.1598
   XY=             19.3424   XZ=              2.2566   YZ=             -2.4719

 Normal termination of Gaussian 16 at Thu May  6 11:13:12 2021.
