 Gaussian 16, Revision A.03,
 Gaussian 16:  EM64L-G16RevA.03 25-Dec-2016

 -------------
 #p 6-31g* mp2
 -------------

 ------------------------------------------------------
 Input file generated by CHIRIPA (05-May-2021 14:55:25)
 ------------------------------------------------------
 Symbolic Z-matrix:
 Charge =  0 Multiplicity = 1

                         Standard orientation:
 ---------------------------------------------------------------------
 Center     Atomic      Atomic             Coordinates (Angstroms)
 Number     Number       Type             X           Y           Z
 ---------------------------------------------------------------------
      1          6           0        2.255274   -2.146192   -1.102368
      2          6           0        3.477492   -1.929041   -0.457736
      3          6           0        3.819046   -0.655205    0.006194
      4          6           0        2.910578    0.383347   -0.192259
      5          6           0        1.685234    0.198726   -0.830800
      6          6           0        1.364616   -1.083489   -1.286518
      7          1           0        1.998079   -3.138992   -1.459570
      8          1           0        4.171139   -2.752478   -0.313337
      9          1           0        4.758524   -0.459096    0.508530
     10          1           0        1.014319    1.039298   -0.960146
     11          1           0        0.414721   -1.249196   -1.786803
     12          7           0        3.261084    1.736335    0.294536
     13          8           0        2.443375    2.634644    0.107374
     14          8           0        4.346882    1.872879    0.854031
     15          6           0       -2.903097   -0.357403    0.343224
     16          6           0       -2.463965   -1.282718    1.478538
     17          6           0       -0.963923   -1.577792    1.454005
     18          1           0       -2.633530   -0.814374   -0.618781
     19          1           0       -2.341949    0.584978    0.409769
     20          1           0       -3.026771   -2.222539    1.410692
     21          1           0       -2.734781   -0.823579    2.437948
     22          1           0       -0.387545   -0.651441    1.544903
     23          1           0       -0.681194   -2.058349    0.511811
     24          1           0       -0.671760   -2.241007    2.274155
     25          6           0       -4.400099   -0.053115    0.354346
     26          6           0       -4.839229    0.872201   -0.780968
     27          6           0       -6.339271    1.167274   -0.756435
     28          1           0       -4.961245   -0.995495    0.287802
     29          1           0       -4.669665    0.403857    1.316352
     30          1           0       -4.568414    0.413062   -1.740377
     31          1           0       -4.276424    1.812021   -0.713123
     32          1           0       -6.622000    1.647831    0.185759
     33          1           0       -6.915650    0.240923   -0.847333
     34          1           0       -6.631434    1.830490   -1.576585
 ---------------------------------------------------------------------

 SCF Done:  E(RHF) =  -669.534516653     A.U. after   15 cycles
 E2 =    -0.2092742103D+01 EUMP2 =    -0.67162725875644D+03

 The electronic state is 1-A.
 Alpha  occ. eigenvalues --  -20.60762 -20.60756 -15.85814 -11.31172 -11.27709
 Alpha  occ. eigenvalues --  -11.27701 -11.27454 -11.26749 -11.26729 -11.21953
 Alpha  occ. eigenvalues --  -11.21891 -11.21864 -11.21705 -11.21361 -11.21285
 Alpha  occ. eigenvalues --   -1.59837  -1.39391  -1.19334  -1.08802  -1.08731
 Alpha  occ. eigenvalues --   -1.04741  -1.03843  -0.96301  -0.95571  -0.87320
 Alpha  occ. eigenvalues --   -0.86139  -0.82405  -0.79916  -0.78633  -0.77448
 Alpha  occ. eigenvalues --   -0.72033  -0.71160  -0.70440  -0.65438  -0.64987
 Alpha  occ. eigenvalues --   -0.64748  -0.62096  -0.61234  -0.59672  -0.57943
 Alpha  occ. eigenvalues --   -0.55599  -0.55237  -0.53378  -0.52965  -0.52833
 Alpha  occ. eigenvalues --   -0.52440  -0.50245  -0.48792  -0.48788  -0.48210
 Alpha  occ. eigenvalues --   -0.46951  -0.46166  -0.46082  -0.44798  -0.44119
 Alpha  occ. eigenvalues --   -0.37287  -0.36246
 Alpha virt. eigenvalues --    0.05066   0.11203   0.16555   0.20229   0.22783
 Alpha virt. eigenvalues --    0.23991   0.25443   0.26311   0.27557   0.28370
 Alpha virt. eigenvalues --    0.28866   0.30089   0.31351   0.31596   0.31811

 Mulliken charges:
               1
     1  C   -0.171430
     2  C   -0.217694
     3  C   -0.171415
     4  C    0.158364
     5  C   -0.171780
     6  C   -0.213260
     7  H    0.225242
     8  H    0.223325
     9  H    0.275358
    10  H    0.275641
    11  H    0.224118
    12  N    0.488042
    13  O   -0.460838
    14  O   -0.460311
    15  C   -0.298761
    16  C   -0.300208
    17  C   -0.474992
    18  H    0.140866
    19  H    0.151336
    20  H    0.151018
    21  H    0.155190
    22  H    0.159357
    23  H    0.147912
    24  H    0.160670
    25  C   -0.298174
    26  C   -0.300215
    27  C   -0.475942
    28  H    0.149594
    29  H    0.152562
    30  H    0.149498
    31  H    0.153962
    32  H    0.156708
    33  H    0.154968
    34  H    0.161289
 Sum of Mulliken charges =  -0.00000

 Dipole moment (field-independent basis, Debye):
    X=             -1.2719    Y=             -4.7329    Z=             -1.6577  Tot=              5.1736
 Quadrupole moment (field-independent basis, Debye-Ang):
   XX=            -99.1617   YY=            -97.9120   ZZ=            -93.8542
   XY=            -16.0474   XZ=             -3.2326   YZ=              0.1531

 Normal termination of Gaussian 16 at Wed May  5 20:51:35 2021.
