 Gaussian 16, Revision A.03,
 Gaussian 16:  EM64L-G16RevA.03 25-Dec-2016

 -------------
 #p 6-31g* mp2
 -------------

 ------------------------------------------------------
 Input file generated by CHIRIPA (05-May-2021 14:53:14)
 ------------------------------------------------------
 Symbolic Z-matrix:
 Charge =  0 Multiplicity = 1

                         Standard orientation:
 ---------------------------------------------------------------------
 Center     Atomic      Atomic             Coordinates (Angstroms)
 Number     Number       Type             X           Y           Z
 ---------------------------------------------------------------------
      1          6           0        3.384065    0.979482   -0.248104
      2          6           0        3.329243    2.052349    0.839985
      3          6           0        3.266332    3.469721    0.269992
      4          1           0        4.259756    1.158538   -0.886891
      5          1           0        2.500661    1.076967   -0.894238
      6          1           0        4.211786    1.951990    1.484704
      7          1           0        2.453688    1.870605    1.476372
      8          1           0        2.377612    3.593603   -0.357249
      9          1           0        4.145699    3.675451   -0.348869
     10          1           0        3.227793    4.220840    1.065100
     11          6           0        3.447275   -0.442713    0.306057
     12          6           0        3.502096   -1.515580   -0.782032
     13          6           0        3.565008   -2.932953   -0.212039
     14          1           0        4.330679   -0.540198    0.952191
     15          1           0        2.571584   -0.621770    0.944844
     16          1           0        4.377651   -1.333837   -1.418419
     17          1           0        2.619554   -1.415222   -1.426751
     18          1           0        2.685641   -3.138683    0.406822
     19          1           0        4.453727   -3.056835    0.415202
     20          1           0        3.603546   -3.684071   -1.007147
     21          6           0       -0.385841   -1.277038    0.104504
     22          6           0       -0.680775   -0.375547   -0.923527
     23          6           0       -1.942204    0.221862   -1.003812
     24          6           0       -2.889170   -0.106487   -0.034930
     25          6           0       -2.625636   -1.000862    1.001377
     26          6           0       -1.357500   -1.586274    1.061987
     27          1           0        0.596673   -1.736460    0.159229
     28          1           0        0.071875   -0.133517   -1.668500
     29          1           0       -2.197281    0.923122   -1.789043
     30          1           0       -3.396499   -1.222395    1.729464
     31          1           0       -1.131255   -2.286033    1.861483
     32          7           0       -4.228139    0.519613   -0.109509
     33          8           0       -5.045038    0.213676    0.756352
     34          8           0       -4.435371    1.304431   -1.032414
 ---------------------------------------------------------------------

 SCF Done:  E(RHF) =  -669.534707236     A.U. after   15 cycles
 E2 =    -0.2093452428D+01 EUMP2 =    -0.67162815966435D+03

 The electronic state is 1-A.
 Alpha  occ. eigenvalues --  -20.60765 -20.60760 -15.85819 -11.31191 -11.27765
 Alpha  occ. eigenvalues --  -11.27760 -11.27447 -11.26773 -11.26761 -11.22928
 Alpha  occ. eigenvalues --  -11.22525 -11.22376 -11.22349 -11.22267 -11.21606
 Alpha  occ. eigenvalues --   -1.59841  -1.39394  -1.19364  -1.09502  -1.08747
 Alpha  occ. eigenvalues --   -1.04769  -1.04523  -0.96954  -0.95592  -0.87971
 Alpha  occ. eigenvalues --   -0.86167  -0.82430  -0.80602  -0.79254  -0.77472
 Alpha  occ. eigenvalues --   -0.72037  -0.71164  -0.70590  -0.66183  -0.65007
 Alpha  occ. eigenvalues --   -0.64702  -0.62120  -0.61934  -0.60344  -0.58544
 Alpha  occ. eigenvalues --   -0.56285  -0.55210  -0.53627  -0.53372  -0.53078
 Alpha  occ. eigenvalues --   -0.52863  -0.50927  -0.48889  -0.48799  -0.48790
 Alpha  occ. eigenvalues --   -0.47677  -0.46771  -0.46685  -0.44798  -0.44764
 Alpha  occ. eigenvalues --   -0.37322  -0.36374
 Alpha virt. eigenvalues --    0.05037   0.11199   0.16435   0.18257   0.22537
 Alpha virt. eigenvalues --    0.23334   0.24325   0.25757   0.27010   0.28547
 Alpha virt. eigenvalues --    0.29378   0.30545   0.30851   0.31081   0.31841

 Mulliken charges:
               1
     1  C   -0.298421
     2  C   -0.300854
     3  C   -0.476283
     4  H    0.152979
     5  H    0.144696
     6  H    0.153623
     7  H    0.154748
     8  H    0.155780
     9  H    0.155956
    10  H    0.163589
    11  C   -0.302610
    12  C   -0.307392
    13  C   -0.477379
    14  H    0.155424
    15  H    0.145527
    16  H    0.160804
    17  H    0.144139
    18  H    0.146892
    19  H    0.162069
    20  H    0.165977
    21  C   -0.176812
    22  C   -0.225120
    23  C   -0.170765
    24  C    0.158385
    25  C   -0.170387
    26  C   -0.221985
    27  H    0.239538
    28  H    0.225799
    29  H    0.275671
    30  H    0.275651
    31  H    0.223592
    32  N    0.487955
    33  O   -0.460370
    34  O   -0.460416
 Sum of Mulliken charges =  -0.00000

 Dipole moment (field-independent basis, Debye):
    X=              4.9570    Y=             -2.1489    Z=              0.2991  Tot=              5.4111
 Quadrupole moment (field-independent basis, Debye-Ang):
   XX=           -120.0947   YY=            -94.3907   ZZ=            -91.7486
   XY=              6.7308   XZ=             -2.2402   YZ=             -1.9676

 Normal termination of Gaussian 16 at Thu May  6 13:47:09 2021.
