 Gaussian 16, Revision A.03,
 Gaussian 16:  EM64L-G16RevA.03 25-Dec-2016

 -------------
 #p 6-31g* mp2
 -------------

 ------------------------------------------------------
 Input file generated by CHIRIPA (05-May-2021 14:57:26)
 ------------------------------------------------------
 Symbolic Z-matrix:
 Charge =  0 Multiplicity = 1

                         Standard orientation:
 ---------------------------------------------------------------------
 Center     Atomic      Atomic             Coordinates (Angstroms)
 Number     Number       Type             X           Y           Z
 ---------------------------------------------------------------------
      1          6           0       -3.633924   -2.314081   -0.243402
      2          6           0       -2.466780   -1.604978   -0.545841
      3          6           0       -2.440116   -0.210061   -0.456142
      4          6           0       -3.603891    0.446606   -0.059019
      5          6           0       -4.782188   -0.231675    0.248945
      6          6           0       -4.785872   -1.626379    0.152328
      7          1           0       -3.645711   -3.397603   -0.315769
      8          1           0       -1.570677   -2.136419   -0.853433
      9          1           0       -1.550179    0.363801   -0.684424
     10          1           0       -5.659817    0.325876    0.552793
     11          1           0       -5.693719   -2.174468    0.387819
     12          7           0       -3.587827    1.923229    0.039603
     13          8           0       -4.626328    2.478297    0.391813
     14          8           0       -2.537039    2.497577   -0.237173
     15          6           0        5.751315    1.079052   -0.273413
     16          6           0        4.990740    0.674229   -1.375303
     17          6           0        3.800710   -0.036757   -1.193979
     18          6           0        3.399189   -0.327208    0.108982
     19          6           0        4.135054    0.062348    1.227035
     20          6           0        5.321802    0.772360    1.021956
     21          1           0        6.674484    1.630984   -0.423497
     22          1           0        5.321862    0.911011   -2.382447
     23          1           0        3.192559   -0.362318   -2.029192
     24          1           0        3.779233   -0.188419    2.218964
     25          1           0        5.910449    1.085477    1.879568
     26          7           0        2.141095   -1.079381    0.313516
     27          8           0        1.809088   -1.322832    1.471593
     28          8           0        1.510830   -1.411241   -0.688119
 ---------------------------------------------------------------------

 SCF Done:  E(RHF) =  -868.340827988     A.U. after   15 cycles
 E2 =    -0.2598343055D+01 EUMP2 =    -0.87093917104260D+03

 The electronic state is 1-A.
 Alpha  occ. eigenvalues --  -20.61542 -20.61506 -20.59967 -20.59961 -15.86535
 Alpha  occ. eigenvalues --  -15.85006 -11.31571 -11.30116 -11.28112 -11.28090
 Alpha  occ. eigenvalues --  -11.27789 -11.27048 -11.27034 -11.26703 -11.26519
 Alpha  occ. eigenvalues --  -11.26324 -11.25713 -11.25375  -1.60577  -1.59045
 Alpha  occ. eigenvalues --   -1.40140  -1.38605  -1.19713  -1.18245  -1.09171
 Alpha  occ. eigenvalues --   -1.07699  -1.05068  -1.03575  -0.96061  -0.94580
 Alpha  occ. eigenvalues --   -0.86483  -0.85001  -0.82909  -0.81395  -0.77988
 Alpha  occ. eigenvalues --   -0.76471  -0.72774  -0.71867  -0.71236  -0.70823
 Alpha  occ. eigenvalues --   -0.70360  -0.69376  -0.65373  -0.65072  -0.63886
 Alpha  occ. eigenvalues --   -0.63549  -0.62421  -0.60907  -0.55586  -0.54133
 Alpha  occ. eigenvalues --   -0.53409  -0.53159  -0.51963  -0.51643  -0.49537
 Alpha  occ. eigenvalues --   -0.49490  -0.48001  -0.47964  -0.45614  -0.44067
 Alpha  occ. eigenvalues --   -0.37671  -0.36651  -0.36246  -0.35166
 Alpha virt. eigenvalues --    0.04517   0.06005   0.11008   0.12468   0.16074
 Alpha virt. eigenvalues --    0.17569   0.21152   0.22656   0.27092   0.27944
 Alpha virt. eigenvalues --    0.28720   0.29354   0.30779   0.32128   0.32341

 Mulliken charges:
               1
     1  C   -0.172124
     2  C   -0.220723
     3  C   -0.171498
     4  C    0.157934
     5  C   -0.173531
     6  C   -0.218655
     7  H    0.223287
     8  H    0.243964
     9  H    0.276370
    10  H    0.271347
    11  H    0.219015
    12  N    0.488314
    13  O   -0.464056
    14  O   -0.463265
    15  C   -0.169364
    16  C   -0.218171
    17  C   -0.169884
    18  C    0.158065
    19  C   -0.169473
    20  C   -0.218334
    21  H    0.227580
    22  H    0.225065
    23  H    0.274501
    24  H    0.276589
    25  H    0.225335
    26  N    0.490165
    27  O   -0.455910
    28  O   -0.472541
 Sum of Mulliken charges =  -0.00000

 Dipole moment (field-independent basis, Debye):
    X=              4.9456    Y=             -2.6245    Z=             -1.0374  Tot=              5.6941
 Quadrupole moment (field-independent basis, Debye-Ang):
   XX=            -70.7563   YY=           -112.8238   ZZ=           -100.2715
   XY=             27.2475   XZ=             -1.3502   YZ=              0.8678

 Normal termination of Gaussian 16 at Fri May  7 03:30:55 2021.
