 Gaussian 16, Revision A.03,
 Gaussian 16:  EM64L-G16RevA.03 25-Dec-2016

 -------------
 #p 6-31g* mp2
 -------------

 ------------------------------------------------------
 Input file generated by CHIRIPA (05-May-2021 14:51:08)
 ------------------------------------------------------
 Symbolic Z-matrix:
 Charge =  0 Multiplicity = 1

                         Standard orientation:
 ---------------------------------------------------------------------
 Center     Atomic      Atomic             Coordinates (Angstroms)
 Number     Number       Type             X           Y           Z
 ---------------------------------------------------------------------
      1          6           0       -3.348611    0.843812    0.153825
      2          6           0       -2.830898    1.922035   -0.798746
      3          6           0       -2.261419    3.135999   -0.064049
      4          1           0       -4.121808    1.277391    0.802764
      5          1           0       -2.530312    0.523638    0.813575
      6          1           0       -3.649575    2.239093   -1.457425
      7          1           0       -2.058979    1.485790   -1.445621
      8          1           0       -1.427137    2.839984    0.580116
      9          1           0       -3.026770    3.597567    0.568245
     10          1           0       -1.897065    3.894362   -0.764042
     11          6           0       -3.921040   -0.376146   -0.565727
     12          6           0       -4.438754   -1.454369    0.386844
     13          6           0       -5.008232   -2.668333   -0.347853
     14          1           0       -4.739340   -0.055971   -1.225476
     15          1           0       -3.147843   -0.809724   -1.214665
     16          1           0       -5.210673   -1.018124    1.033719
     17          1           0       -3.620077   -1.771427    1.045524
     18          1           0       -4.242882   -3.129900   -0.980146
     19          1           0       -5.842515   -2.372317   -0.992018
     20          1           0       -5.372586   -3.426696    0.352141
     21          6           0        3.098601    0.076580    0.652648
     22          6           0        1.706546   -0.515485    0.429878
     23          6           0        0.644590    0.115706    1.330789
     24          1           0        3.382597   -0.056725    1.705512
     25          1           0        3.061529    1.160090    0.473684
     26          1           0        1.746541   -1.597768    0.607862
     27          1           0        1.425911   -0.380925   -0.622621
     28          1           0        0.575414    1.192978    1.148299
     29          1           0        0.897866   -0.030780    2.385774
     30          1           0       -0.342897   -0.322269    1.154981
     31          6           0        4.171050   -0.544247   -0.240747
     32          6           0        5.563106    0.047819   -0.017977
     33          6           0        6.625062   -0.583373   -0.918887
     34          1           0        4.208123   -1.627756   -0.061783
     35          1           0        3.887054   -0.410941   -1.293610
     36          1           0        5.843741   -0.086741    1.034522
     37          1           0        5.523110    1.130102   -0.195962
     38          1           0        6.371786   -0.436887   -1.973873
     39          1           0        6.694238   -1.660644   -0.736398
     40          1           0        7.612548   -0.145398   -0.743080
 ---------------------------------------------------------------------

 SCF Done:  E(RHF) =  -470.733036301     A.U. after   11 cycles
 E2 =    -0.1583174219D+01 EUMP2 =    -0.47231621052042D+03

 The electronic state is 1-A.
 Alpha  occ. eigenvalues --  -11.21683 -11.21631 -11.21592 -11.21559 -11.21454
 Alpha  occ. eigenvalues --  -11.21392 -11.21361 -11.21279 -11.21170 -11.21094
 Alpha  occ. eigenvalues --  -11.21061 -11.21021  -1.08485  -1.08393  -1.03596
 Alpha  occ. eigenvalues --   -1.03493  -0.96044  -0.95948  -0.87066  -0.86963
 Alpha  occ. eigenvalues --   -0.79676  -0.79546  -0.78298  -0.78200  -0.65147
 Alpha  occ. eigenvalues --   -0.65021  -0.61077  -0.60820  -0.59430  -0.59301
 Alpha  occ. eigenvalues --   -0.57702  -0.57524  -0.55393  -0.55177  -0.52783
 Alpha  occ. eigenvalues --   -0.52641  -0.52512  -0.52309  -0.50037  -0.49836
 Alpha  occ. eigenvalues --   -0.47968  -0.47872  -0.46749  -0.46533  -0.45837
 Alpha  occ. eigenvalues --   -0.45781  -0.45734  -0.45651  -0.43783  -0.43739
 Alpha virt. eigenvalues --    0.20558   0.23036   0.23583   0.25028   0.25949
 Alpha virt. eigenvalues --    0.26254   0.26725   0.27280   0.27872   0.29121
 Alpha virt. eigenvalues --    0.30401   0.31545   0.31722   0.31959   0.32399

 Mulliken charges:
               1
     1  C   -0.305379
     2  C   -0.298720
     3  C   -0.479792
     4  H    0.149503
     5  H    0.157075
     6  H    0.151727
     7  H    0.151451
     8  H    0.159188
     9  H    0.155136
    10  H    0.159585
    11  C   -0.298384
    12  C   -0.299616
    13  C   -0.475666
    14  H    0.149513
    15  H    0.149263
    16  H    0.152145
    17  H    0.151206
    18  H    0.155140
    19  H    0.155231
    20  H    0.160205
    21  C   -0.298820
    22  C   -0.299254
    23  C   -0.483855
    24  H    0.149866
    25  H    0.149884
    26  H    0.152128
    27  H    0.151931
    28  H    0.158301
    29  H    0.156044
    30  H    0.164492
    31  C   -0.298324
    32  C   -0.299701
    33  C   -0.475739
    34  H    0.149591
    35  H    0.149730
    36  H    0.152016
    37  H    0.152069
    38  H    0.155233
    39  H    0.155213
    40  H    0.160382
 Sum of Mulliken charges =  -0.00000

 Dipole moment (field-independent basis, Debye):
    X=              0.0402    Y=             -0.0071    Z=              0.0208  Tot=              0.0458
 Quadrupole moment (field-independent basis, Debye-Ang):
   XX=            -84.8822   YY=            -85.1769   ZZ=            -84.7552
   XY=             -0.6288   XZ=              0.4565   YZ=             -1.0717

 Normal termination of Gaussian 16 at Thu May  6 09:59:57 2021.
