 Gaussian 16, Revision A.03,
 Gaussian 16:  EM64L-G16RevA.03 25-Dec-2016

 -------------
 #p 6-31g* mp2
 -------------

 ------------------------------------------------------
 Input file generated by CHIRIPA (05-May-2021 14:51:14)
 ------------------------------------------------------
 Symbolic Z-matrix:
 Charge =  0 Multiplicity = 1

                         Standard orientation:
 ---------------------------------------------------------------------
 Center     Atomic      Atomic             Coordinates (Angstroms)
 Number     Number       Type             X           Y           Z
 ---------------------------------------------------------------------
      1          6           0       -2.957380   -0.148603   -0.383051
      2          6           0       -3.667039    1.061527    0.225188
      3          6           0       -4.447992    1.871042   -0.810473
      4          1           0       -2.275318    0.193380   -1.173484
      5          1           0       -3.701099   -0.794588   -0.869856
      6          1           0       -2.922374    1.704335    0.711898
      7          1           0       -4.347349    0.716641    1.014395
      8          1           0       -5.211905    1.249631   -1.288894
      9          1           0       -3.778833    2.242937   -1.593110
     10          1           0       -4.947427    2.731362   -0.354104
     11          6           0       -2.172384   -0.967858    0.639852
     12          6           0       -1.462724   -2.177988    0.031613
     13          6           0       -0.681772   -2.987502    1.067274
     14          1           0       -1.428665   -0.321872    1.126658
     15          1           0       -2.854446   -1.309841    1.430285
     16          1           0       -0.782415   -1.833102   -0.757594
     17          1           0       -2.207390   -2.820796   -0.455096
     18          1           0       -1.350931   -3.359397    1.849912
     19          1           0        0.082141   -2.366091    1.545695
     20          1           0       -0.182336   -3.847823    0.610905
     21          6           0        2.810804    1.203223    0.198616
     22          6           0        1.880183    2.393979   -0.033820
     23          6           0        2.385666    3.677030    0.626530
     24          1           0        2.925071    1.040744    1.279120
     25          1           0        3.810025    1.446717   -0.188247
     26          1           0        0.882658    2.147789    0.352119
     27          1           0        1.767967    2.553523   -1.113899
     28          1           0        3.370796    3.949786    0.234456
     29          1           0        2.480457    3.541746    1.708803
     30          1           0        1.705327    4.515500    0.447738
     31          6           0        2.318960   -0.086762   -0.455417
     32          6           0        3.249581   -1.277519   -0.222981
     33          6           0        2.744097   -2.560569   -0.883332
     34          1           0        1.319739   -0.330255   -0.068556
     35          1           0        2.204693    0.075718   -1.535921
     36          1           0        3.361797   -1.437063    0.857097
     37          1           0        4.247106   -1.031328   -0.608921
     38          1           0        2.649306   -2.425285   -1.965605
     39          1           0        1.758967   -2.833325   -0.491258
     40          1           0        3.424436   -3.399039   -0.704540
 ---------------------------------------------------------------------

 SCF Done:  E(RHF) =  -470.732691300     A.U. after   11 cycles
 E2 =    -0.1584542919D+01 EUMP2 =    -0.47231723421949D+03

 The electronic state is 1-A.
 Alpha  occ. eigenvalues --  -11.21664 -11.21632 -11.21619 -11.21597 -11.21447
 Alpha  occ. eigenvalues --  -11.21444 -11.21384 -11.21376 -11.21149 -11.21113
 Alpha  occ. eigenvalues --  -11.21078 -11.20960  -1.08506  -1.08428  -1.03623
 Alpha  occ. eigenvalues --   -1.03499  -0.96076  -0.95947  -0.87096  -0.86957
 Alpha  occ. eigenvalues --   -0.79632  -0.79612  -0.78305  -0.78260  -0.65361
 Alpha  occ. eigenvalues --   -0.64873  -0.61263  -0.60695  -0.59442  -0.59323
 Alpha  occ. eigenvalues --   -0.57742  -0.57514  -0.55486  -0.55103  -0.52774
 Alpha  occ. eigenvalues --   -0.52671  -0.52506  -0.52311  -0.50080  -0.49785
 Alpha  occ. eigenvalues --   -0.47967  -0.47893  -0.46675  -0.46624  -0.46018
 Alpha  occ. eigenvalues --   -0.45816  -0.45704  -0.45524  -0.43822  -0.43801
 Alpha virt. eigenvalues --    0.19316   0.22486   0.23566   0.24960   0.25744
 Alpha virt. eigenvalues --    0.26526   0.26764   0.27584   0.28564   0.30182
 Alpha virt. eigenvalues --    0.30877   0.31133   0.31490   0.31762   0.32244

 Mulliken charges:
               1
     1  C   -0.298481
     2  C   -0.299719
     3  C   -0.475768
     4  H    0.150630
     5  H    0.149670
     6  H    0.151765
     7  H    0.151914
     8  H    0.155195
     9  H    0.155476
    10  H    0.160287
    11  C   -0.299822
    12  C   -0.304806
    13  C   -0.481382
    14  H    0.149528
    15  H    0.150029
    16  H    0.156659
    17  H    0.152956
    18  H    0.157367
    19  H    0.155757
    20  H    0.161832
    21  C   -0.297979
    22  C   -0.300092
    23  C   -0.475727
    24  H    0.149570
    25  H    0.150012
    26  H    0.151149
    27  H    0.152026
    28  H    0.155479
    29  H    0.155339
    30  H    0.160375
    31  C   -0.305458
    32  C   -0.298777
    33  C   -0.485865
    34  H    0.155737
    35  H    0.149426
    36  H    0.151458
    37  H    0.151933
    38  H    0.154110
    39  H    0.168476
    40  H    0.159717
 Sum of Mulliken charges =  -0.00000

 Dipole moment (field-independent basis, Debye):
    X=             -0.0279    Y=             -0.0168    Z=             -0.0009  Tot=              0.0326
 Quadrupole moment (field-independent basis, Debye-Ang):
   XX=            -84.3045   YY=            -85.7942   ZZ=            -84.6166
   XY=              0.8709   XZ=             -1.0112   YZ=             -0.3334

 Normal termination of Gaussian 16 at Wed May  5 16:53:32 2021.
