 Gaussian 16, Revision A.03,
 Gaussian 16:  EM64L-G16RevA.03 25-Dec-2016

 -------------
 #p 6-31g* mp2
 -------------

 ------------------------------------------------------
 Input file generated by CHIRIPA (05-May-2021 14:57:21)
 ------------------------------------------------------
 Symbolic Z-matrix:
 Charge =  0 Multiplicity = 1

                         Standard orientation:
 ---------------------------------------------------------------------
 Center     Atomic      Atomic             Coordinates (Angstroms)
 Number     Number       Type             X           Y           Z
 ---------------------------------------------------------------------
      1          6           0        2.683927   -2.371042    0.731947
      2          6           0        1.536689   -2.025303    0.010261
      3          6           0        1.412373   -0.754704   -0.559539
      4          6           0        2.459260    0.149524   -0.387232
      5          6           0        3.614786   -0.165083    0.326262
      6          6           0        3.717492   -1.441467    0.887370
      7          1           0        2.772105   -3.360320    1.171206
      8          1           0        0.732426   -2.745195   -0.112057
      9          1           0        0.535254   -0.460696   -1.123134
     10          1           0        4.399830    0.573913    0.431183
     11          1           0        4.609608   -1.707210    1.447329
     12          7           0        2.339091    1.497713   -0.985853
     13          8           0        3.275486    2.276295   -0.819687
     14          8           0        1.310783    1.750312   -1.609883
     15          6           0       -1.663042    1.943574    1.771731
     16          6           0       -2.597369    2.205697    0.764335
     17          6           0       -3.056530    1.176800   -0.063366
     18          6           0       -2.557955   -0.108198    0.145185
     19          6           0       -1.626640   -0.401049    1.140263
     20          6           0       -1.181508    0.643330    1.956155
     21          1           0       -1.311804    2.748859    2.410122
     22          1           0       -2.973074    3.214515    0.618815
     23          1           0       -3.779482    1.351763   -0.850860
     24          1           0       -1.270451   -1.416890    1.261150
     25          1           0       -0.455859    0.436831    2.737714
     26          7           0       -3.036623   -1.205641   -0.724814
     27          8           0       -2.581900   -2.329112   -0.520670
     28          8           0       -3.857461   -0.921563   -1.594390
 ---------------------------------------------------------------------

 SCF Done:  E(RHF) =  -868.338358492     A.U. after   16 cycles
 E2 =    -0.2602587944D+01 EUMP2 =    -0.87094094643603D+03

 The electronic state is 1-A.
 Alpha  occ. eigenvalues --  -20.61223 -20.61159 -20.60968 -20.60949 -15.86224
 Alpha  occ. eigenvalues --  -15.86011 -11.31326 -11.31325 -11.27943 -11.27927
 Alpha  occ. eigenvalues --  -11.27851 -11.27810 -11.27639 -11.27512 -11.26922
 Alpha  occ. eigenvalues --  -11.26827 -11.26773 -11.26730  -1.60262  -1.60040
 Alpha  occ. eigenvalues --   -1.39825  -1.39592  -1.19542  -1.19452  -1.08912
 Alpha  occ. eigenvalues --   -1.08903  -1.04978  -1.04757  -0.95804  -0.95736
 Alpha  occ. eigenvalues --   -0.86289  -0.86253  -0.82629  -0.82572  -0.77778
 Alpha  occ. eigenvalues --   -0.77573  -0.72442  -0.72232  -0.71596  -0.71367
 Alpha  occ. eigenvalues --   -0.70642  -0.70539  -0.65163  -0.65122  -0.64917
 Alpha  occ. eigenvalues --   -0.64766  -0.62360  -0.62058  -0.55405  -0.55317
 Alpha  occ. eigenvalues --   -0.53542  -0.53121  -0.52855  -0.52758  -0.49224
 Alpha  occ. eigenvalues --   -0.49162  -0.48989  -0.48982  -0.45277  -0.45004
 Alpha  occ. eigenvalues --   -0.37561  -0.37439  -0.37023  -0.35775
 Alpha virt. eigenvalues --    0.04500   0.05140   0.11043   0.11213   0.16212
 Alpha virt. eigenvalues --    0.16450   0.20879   0.21772   0.26237   0.27535
 Alpha virt. eigenvalues --    0.28036   0.28538   0.30369   0.31560   0.31972

 Mulliken charges:
               1
     1  C   -0.172229
     2  C   -0.234043
     3  C   -0.167500
     4  C    0.155380
     5  C   -0.172513
     6  C   -0.220089
     7  H    0.227181
     8  H    0.239158
     9  H    0.278533
    10  H    0.274914
    11  H    0.223219
    12  N    0.487700
    13  O   -0.462414
    14  O   -0.459139
    15  C   -0.167141
    16  C   -0.213591
    17  C   -0.166941
    18  C    0.154893
    19  C   -0.175890
    20  C   -0.217899
    21  H    0.228459
    22  H    0.226899
    23  H    0.277149
    24  H    0.269596
    25  H    0.223546
    26  N    0.488480
    27  O   -0.471167
    28  O   -0.454551
 Sum of Mulliken charges =  -0.00000

 Dipole moment (field-independent basis, Debye):
    X=              1.9464    Y=             -0.6447    Z=              5.1304  Tot=              5.5249
 Quadrupole moment (field-independent basis, Debye-Ang):
   XX=           -106.1682   YY=           -105.3358   ZZ=           -104.8629
   XY=            -23.5376   XZ=              1.0425   YZ=              1.3260

 Normal termination of Gaussian 16 at Thu May  6 08:03:19 2021.
