 Gaussian 16, Revision A.03,
 Gaussian 16:  EM64L-G16RevA.03 25-Dec-2016

 -------------
 #p 6-31g* mp2
 -------------

 ------------------------------------------------------
 Input file generated by CHIRIPA (05-May-2021 14:55:25)
 ------------------------------------------------------
 Symbolic Z-matrix:
 Charge =  0 Multiplicity = 1

                         Standard orientation:
 ---------------------------------------------------------------------
 Center     Atomic      Atomic             Coordinates (Angstroms)
 Number     Number       Type             X           Y           Z
 ---------------------------------------------------------------------
      1          6           0       -1.425569   -1.782256    1.960166
      2          6           0       -2.148289   -2.275407    0.868837
      3          6           0       -2.543554   -1.421598   -0.165245
      4          6           0       -2.197555   -0.074203   -0.075241
      5          6           0       -1.478258    0.447253    0.998996
      6          6           0       -1.093446   -0.424893    2.021654
      7          1           0       -1.122578   -2.452638    2.759028
      8          1           0       -2.407617   -3.329093    0.818426
      9          1           0       -3.103736   -1.776805   -1.021657
     10          1           0       -1.234459    1.502471    1.021237
     11          1           0       -0.532243   -0.039120    2.867984
     12          7           0       -2.610471    0.839392   -1.163930
     13          8           0       -2.293225    2.022353   -1.060989
     14          8           0       -3.243543    0.355209   -2.099571
     15          6           0        3.137713   -0.161506   -0.593722
     16          6           0        2.872142   -1.652440   -0.382598
     17          6           0        3.703681   -2.538265   -1.310850
     18          1           0        2.923616    0.098077   -1.639535
     19          1           0        4.206097    0.039704   -0.434147
     20          1           0        1.804327   -1.850541   -0.541168
     21          1           0        3.086711   -1.908464    0.662881
     22          1           0        4.773139   -2.369782   -1.148146
     23          1           0        3.483469   -2.311530   -2.359038
     24          1           0        3.498121   -3.600070   -1.142997
     25          6           0        2.313811    0.736929    0.327001
     26          6           0        2.579382    2.227863    0.115878
     27          6           0        1.747843    3.113688    1.044129
     28          1           0        1.245427    0.535719    0.167427
     29          1           0        2.527907    0.477346    1.372814
     30          1           0        2.364813    2.483887   -0.929602
     31          1           0        3.647196    2.425965    0.274448
     32          1           0        1.968055    2.886953    2.092317
     33          1           0        0.678385    2.945205    0.881426
     34          1           0        1.953403    4.175493    0.876276
 ---------------------------------------------------------------------

 SCF Done:  E(RHF) =  -669.534668549     A.U. after   15 cycles
 E2 =    -0.2093913901D+01 EUMP2 =    -0.67162858244991D+03

 The electronic state is 1-A.
 Alpha  occ. eigenvalues --  -20.60837 -20.60831 -15.85888 -11.31242 -11.27804
 Alpha  occ. eigenvalues --  -11.27777 -11.27536 -11.26822 -11.26791 -11.21790
 Alpha  occ. eigenvalues --  -11.21702 -11.21527 -11.21467 -11.21353 -11.21238
 Alpha  occ. eigenvalues --   -1.59911  -1.39465  -1.19421  -1.08808  -1.08588
 Alpha  occ. eigenvalues --   -1.04822  -1.03707  -0.96168  -0.95648  -0.87189
 Alpha  occ. eigenvalues --   -0.86214  -0.82479  -0.79774  -0.78438  -0.77511
 Alpha  occ. eigenvalues --   -0.72105  -0.71237  -0.70529  -0.65258  -0.65060
 Alpha  occ. eigenvalues --   -0.64786  -0.62206  -0.61068  -0.59525  -0.57793
 Alpha  occ. eigenvalues --   -0.55510  -0.55279  -0.53240  -0.52945  -0.52835
 Alpha  occ. eigenvalues --   -0.52537  -0.50112  -0.48863  -0.48861  -0.48094
 Alpha  occ. eigenvalues --   -0.46789  -0.45953  -0.45851  -0.44862  -0.43944
 Alpha  occ. eigenvalues --   -0.37391  -0.36311
 Alpha virt. eigenvalues --    0.04979   0.11149   0.16473   0.20442   0.22903
 Alpha virt. eigenvalues --    0.23874   0.25719   0.26448   0.27383   0.28082
 Alpha virt. eigenvalues --    0.29266   0.29922   0.31500   0.31610   0.31857

 Mulliken charges:
               1
     1  C   -0.170542
     2  C   -0.218706
     3  C   -0.171107
     4  C    0.158718
     5  C   -0.180390
     6  C   -0.216408
     7  H    0.226048
     8  H    0.223771
     9  H    0.275715
    10  H    0.285417
    11  H    0.225171
    12  N    0.487572
    13  O   -0.461550
    14  O   -0.459962
    15  C   -0.298205
    16  C   -0.300024
    17  C   -0.475733
    18  H    0.153167
    19  H    0.149302
    20  H    0.153324
    21  H    0.147734
    22  H    0.155462
    23  H    0.157388
    24  H    0.158444
    25  C   -0.305122
    26  C   -0.299258
    27  C   -0.480914
    28  H    0.156928
    29  H    0.142112
    30  H    0.158789
    31  H    0.151828
    32  H    0.149575
    33  H    0.155512
    34  H    0.165946
 Sum of Mulliken charges =  -0.00000

 Dipole moment (field-independent basis, Debye):
    X=              1.4258    Y=             -3.1911    Z=              3.7626  Tot=              5.1354
 Quadrupole moment (field-independent basis, Debye-Ang):
   XX=           -100.7675   YY=            -92.0467   ZZ=            -94.5975
   XY=              9.5554   XZ=             -6.8674   YZ=              1.3199

 Normal termination of Gaussian 16 at Thu May  6 01:38:59 2021.
