 Gaussian 16, Revision A.03,
 Gaussian 16:  EM64L-G16RevA.03 25-Dec-2016

 -------------
 #p 6-31g* mp2
 -------------

 ------------------------------------------------------
 Input file generated by CHIRIPA (05-May-2021 14:51:07)
 ------------------------------------------------------
 Symbolic Z-matrix:
 Charge =  0 Multiplicity = 1

                         Standard orientation:
 ---------------------------------------------------------------------
 Center     Atomic      Atomic             Coordinates (Angstroms)
 Number     Number       Type             X           Y           Z
 ---------------------------------------------------------------------
      1          6           0       -3.634652   -0.483909    0.103369
      2          6           0       -4.126762    0.478171   -0.978396
      3          6           0       -5.529834    1.016601   -0.696838
      4          1           0       -4.340189   -1.321709    0.188537
      5          1           0       -3.642731    0.031419    1.073816
      6          1           0       -4.116444   -0.038392   -1.946730
      7          1           0       -3.419870    1.313680   -1.061131
      8          1           0       -5.551541    1.555902    0.255677
      9          1           0       -6.252073    0.196148   -0.634954
     10          1           0       -5.861861    1.702320   -1.482590
     11          6           0       -2.233471   -1.030656   -0.164003
     12          6           0       -1.741361   -1.992735    0.917762
     13          6           0       -0.338288   -2.531165    0.636204
     14          1           0       -2.225392   -1.545984   -1.134449
     15          1           0       -1.527934   -0.192856   -0.249171
     16          1           0       -2.448252   -2.828244    1.000498
     17          1           0       -1.751679   -1.476172    1.886097
     18          1           0        0.383950   -1.710712    0.574321
     19          1           0       -0.316582   -3.070466   -0.316310
     20          1           0       -0.006262   -3.216885    1.421957
     21          6           0        2.543448    1.411556   -0.022394
     22          6           0        1.344397    1.479839    0.923967
     23          6           0        0.572988    2.794755    0.806840
     24          1           0        3.217055    2.253503    0.188139
     25          1           0        2.193859    1.541837   -1.055936
     26          1           0        1.695974    1.348085    1.955301
     27          1           0        0.673660    0.637524    0.711285
     28          1           0        0.194625    2.930022   -0.211563
     29          1           0        1.222748    3.644622    1.039521
     30          1           0       -0.279966    2.822224    1.492095
     31          6           0        3.324675    0.103008    0.083027
     32          6           0        4.523726    0.034726   -0.863334
     33          6           0        5.295134   -1.280191   -0.746207
     34          1           0        3.674264   -0.027273    1.116569
     35          1           0        2.651067   -0.738938   -0.127506
     36          1           0        5.194462    0.877041   -0.650652
     37          1           0        4.172148    0.166479   -1.894669
     38          1           0        4.645374   -2.130057   -0.978888
     39          1           0        5.673498   -1.415458    0.272197
     40          1           0        6.148088   -1.307660   -1.431462
 ---------------------------------------------------------------------

 SCF Done:  E(RHF) =  -470.732750821     A.U. after   11 cycles
 E2 =    -0.1584120258D+01 EUMP2 =    -0.47231687107854D+03

 The electronic state is 1-A.
 Alpha  occ. eigenvalues --  -11.21646 -11.21615 -11.21606 -11.21600 -11.21425
 Alpha  occ. eigenvalues --  -11.21420 -11.21360 -11.21359 -11.21144 -11.21072
 Alpha  occ. eigenvalues --  -11.21055 -11.21055  -1.08483  -1.08424  -1.03579
 Alpha  occ. eigenvalues --   -1.03523  -0.96017  -0.95980  -0.87023  -0.87009
 Alpha  occ. eigenvalues --   -0.79665  -0.79580  -0.78355  -0.78182  -0.65297
 Alpha  occ. eigenvalues --   -0.64911  -0.61112  -0.60798  -0.59402  -0.59322
 Alpha  occ. eigenvalues --   -0.57657  -0.57570  -0.55381  -0.55208  -0.52712
 Alpha  occ. eigenvalues --   -0.52680  -0.52445  -0.52400  -0.49976  -0.49929
 Alpha  occ. eigenvalues --   -0.48062  -0.47886  -0.46906  -0.46560  -0.46032
 Alpha  occ. eigenvalues --   -0.45766  -0.45751  -0.45175  -0.43807  -0.43794
 Alpha virt. eigenvalues --    0.20321   0.22975   0.23732   0.24302   0.25621
 Alpha virt. eigenvalues --    0.26598   0.26941   0.27505   0.28861   0.29276
 Alpha virt. eigenvalues --    0.30969   0.31538   0.31698   0.31787   0.32040

 Mulliken charges:
               1
     1  C   -0.297782
     2  C   -0.299888
     3  C   -0.475701
     4  H    0.149740
     5  H    0.149606
     6  H    0.151776
     7  H    0.152271
     8  H    0.155286
     9  H    0.155147
    10  H    0.160289
    11  C   -0.303995
    12  C   -0.299029
    13  C   -0.485768
    14  H    0.149452
    15  H    0.153952
    16  H    0.152230
    17  H    0.152237
    18  H    0.164174
    19  H    0.154666
    20  H    0.160846
    21  C   -0.297691
    22  C   -0.311015
    23  C   -0.475345
    24  H    0.149895
    25  H    0.149400
    26  H    0.152259
    27  H    0.161623
    28  H    0.155048
    29  H    0.155858
    30  H    0.159845
    31  C   -0.304065
    32  C   -0.299384
    33  C   -0.475833
    34  H    0.149510
    35  H    0.155408
    36  H    0.151924
    37  H    0.151968
    38  H    0.155744
    39  H    0.155171
    40  H    0.160171
 Sum of Mulliken charges =  -0.00000

 Dipole moment (field-independent basis, Debye):
    X=              0.0123    Y=              0.0027    Z=              0.0037  Tot=              0.0131
 Quadrupole moment (field-independent basis, Debye-Ang):
   XX=            -85.6885   YY=            -85.0503   ZZ=            -83.9953
   XY=              1.6157   XZ=              0.7250   YZ=              0.6518

 Normal termination of Gaussian 16 at Thu May  6 09:58:20 2021.
