 Gaussian 16, Revision A.03,
 Gaussian 16:  EM64L-G16RevA.03 25-Dec-2016

 -------------
 #p 6-31g* mp2
 -------------

 ------------------------------------------------------
 Input file generated by CHIRIPA (05-May-2021 14:57:27)
 ------------------------------------------------------
 Symbolic Z-matrix:
 Charge =  0 Multiplicity = 1

                         Standard orientation:
 ---------------------------------------------------------------------
 Center     Atomic      Atomic             Coordinates (Angstroms)
 Number     Number       Type             X           Y           Z
 ---------------------------------------------------------------------
      1          6           0       -2.894178    2.621799    0.407371
      2          6           0       -3.899682    2.295290   -0.508529
      3          6           0       -4.268449    0.962314   -0.712817
      4          6           0       -3.607882   -0.023222    0.019071
      5          6           0       -2.602199    0.270258    0.938724
      6          6           0       -2.249781    1.610025    1.126806
      7          1           0       -2.614061    3.659925    0.559772
      8          1           0       -4.401844    3.078965   -1.068648
      9          1           0       -5.043459    0.681457   -1.415595
     10          1           0       -2.119687   -0.532894    1.482365
     11          1           0       -1.468535    1.860652    1.838765
     12          7           0       -3.989625   -1.437979   -0.188621
     13          8           0       -3.392411   -2.287708    0.468595
     14          8           0       -4.878820   -1.670347   -1.004693
     15          6           0        1.167844   -0.961653    0.334189
     16          6           0        2.052691   -0.854588    1.412197
     17          6           0        3.372052   -0.439085    1.209243
     18          6           0        3.774778   -0.137275   -0.090763
     19          6           0        2.916904   -0.234098   -1.185280
     20          6           0        1.602009   -0.651613   -0.958830
     21          1           0        0.144667   -1.285208    0.500975
     22          1           0        1.718273   -1.094714    2.417458
     23          1           0        4.078003   -0.347509    2.025739
     24          1           0        3.279354    0.012182   -2.175933
     25          1           0        0.917019   -0.733850   -1.797920
     26          7           0        5.169162    0.303666   -0.318058
     27          8           0        5.499408    0.563726   -1.473022
     28          8           0        5.905433    0.380863    0.663055
 ---------------------------------------------------------------------

 SCF Done:  E(RHF) =  -868.337856756     A.U. after   16 cycles
 E2 =    -0.2599964919D+01 EUMP2 =    -0.87093782167543D+03

 The electronic state is 1-A.
 Alpha  occ. eigenvalues --  -20.61709 -20.61672 -20.60927 -20.60921 -15.86738
 Alpha  occ. eigenvalues --  -15.85982 -11.32099 -11.31363 -11.28715 -11.28574
 Alpha  occ. eigenvalues --  -11.28282 -11.27951 -11.27915 -11.27652 -11.27641
 Alpha  occ. eigenvalues --  -11.27577 -11.26978 -11.26906  -1.60764  -1.60003
 Alpha  occ. eigenvalues --   -1.40321  -1.39556  -1.20239  -1.19538  -1.09616
 Alpha  occ. eigenvalues --   -1.08928  -1.05638  -1.04942  -0.96467  -0.95758
 Alpha  occ. eigenvalues --   -0.87028  -0.86336  -0.83296  -0.82590  -0.78373
 Alpha  occ. eigenvalues --   -0.77636  -0.72949  -0.72197  -0.72094  -0.71366
 Alpha  occ. eigenvalues --   -0.71328  -0.70604  -0.65878  -0.65615  -0.65186
 Alpha  occ. eigenvalues --   -0.64939  -0.62996  -0.62285  -0.56105  -0.55435
 Alpha  occ. eigenvalues --   -0.53949  -0.53690  -0.53268  -0.53027  -0.49723
 Alpha  occ. eigenvalues --   -0.49696  -0.48958  -0.48953  -0.45724  -0.44957
 Alpha  occ. eigenvalues --   -0.38182  -0.37625  -0.37127  -0.36552
 Alpha virt. eigenvalues --    0.04101   0.04917   0.10323   0.11091   0.15643
 Alpha virt. eigenvalues --    0.16412   0.19604   0.21694   0.25421   0.27049
 Alpha virt. eigenvalues --    0.27228   0.28948   0.30105   0.30889   0.32230

 Mulliken charges:
               1
     1  C   -0.170750
     2  C   -0.217531
     3  C   -0.171234
     4  C    0.158738
     5  C   -0.178324
     6  C   -0.215740
     7  H    0.229709
     8  H    0.227033
     9  H    0.277859
    10  H    0.268611
    11  H    0.226063
    12  N    0.488258
    13  O   -0.465185
    14  O   -0.455668
    15  C   -0.176092
    16  C   -0.222007
    17  C   -0.171080
    18  C    0.158237
    19  C   -0.171268
    20  C   -0.219125
    21  H    0.231702
    22  H    0.221922
    23  H    0.275603
    24  H    0.276102
    25  H    0.226582
    26  N    0.488001
    27  O   -0.459959
    28  O   -0.460457
 Sum of Mulliken charges =  -0.00000

 Dipole moment (field-independent basis, Debye):
    X=             -3.7526    Y=              3.5974    Z=              1.4073  Tot=              5.3855
 Quadrupole moment (field-independent basis, Debye-Ang):
   XX=           -149.5306   YY=           -105.1286   ZZ=            -98.2929
   XY=            -25.0622   XZ=              4.7668   YZ=             -1.3534

 Normal termination of Gaussian 16 at Fri May  7 00:31:03 2021.
