 Gaussian 16, Revision A.03,
 Gaussian 16:  EM64L-G16RevA.03 25-Dec-2016

 -------------
 #p 6-31g* mp2
 -------------

 ------------------------------------------------------
 Input file generated by CHIRIPA (05-May-2021 14:57:23)
 ------------------------------------------------------
 Symbolic Z-matrix:
 Charge =  0 Multiplicity = 1

                         Standard orientation:
 ---------------------------------------------------------------------
 Center     Atomic      Atomic             Coordinates (Angstroms)
 Number     Number       Type             X           Y           Z
 ---------------------------------------------------------------------
      1          6           0        2.089480   -1.486320    1.043292
      2          6           0        3.429573   -1.713556    1.373498
      3          6           0        4.439066   -0.907523    0.838913
      4          6           0        4.071075    0.121460   -0.026574
      5          6           0        2.744871    0.372991   -0.374720
      6          6           0        1.752001   -0.445606    0.171774
      7          1           0        1.311738   -2.117346    1.463196
      8          1           0        3.694600   -2.521057    2.050069
      9          1           0        5.484431   -1.061268    1.077646
     10          1           0        2.511624    1.185652   -1.051916
     11          1           0        0.712096   -0.266808   -0.086440
     12          7           0        5.130981    0.981422   -0.598818
     13          8           0        4.780655    1.881452   -1.358985
     14          8           0        6.291993    0.739146   -0.276342
     15          6           0       -4.809204    2.222303    0.759155
     16          6           0       -5.646758    1.324837    0.088647
     17          6           0       -5.151789    0.101886   -0.373894
     18          6           0       -3.808143   -0.192612   -0.147681
     19          6           0       -2.948565    0.680637    0.517040
     20          6           0       -3.465151    1.897910    0.970839
     21          1           0       -5.202104    3.170115    1.115073
     22          1           0       -6.690987    1.574110   -0.077165
     23          1           0       -5.778045   -0.611359   -0.895913
     24          1           0       -1.912043    0.404177    0.667409
     25          1           0       -2.812374    2.592959    1.491257
     26          7           0       -3.272698   -1.484290   -0.632725
     27          8           0       -2.085214   -1.720127   -0.420834
     28          8           0       -4.050641   -2.236413   -1.215608
 ---------------------------------------------------------------------

 SCF Done:  E(RHF) =  -868.339189243     A.U. after   16 cycles
 E2 =    -0.2598986037D+01 EUMP2 =    -0.87093817528050D+03

 The electronic state is 1-A.
 Alpha  occ. eigenvalues --  -20.61763 -20.61699 -20.60496 -20.60490 -15.86772
 Alpha  occ. eigenvalues --  -15.85546 -11.31973 -11.30808 -11.28591 -11.28463
 Alpha  occ. eigenvalues --  -11.28171 -11.27489 -11.27440 -11.27375 -11.27366
 Alpha  occ. eigenvalues --  -11.26994 -11.26338 -11.26277  -1.60789  -1.59574
 Alpha  occ. eigenvalues --   -1.40356  -1.39131  -1.20114  -1.18960  -1.09527
 Alpha  occ. eigenvalues --   -1.08351  -1.05496  -1.04352  -0.96399  -0.95209
 Alpha  occ. eigenvalues --   -0.86901  -0.85737  -0.83244  -0.82053  -0.78331
 Alpha  occ. eigenvalues --   -0.77131  -0.73002  -0.72096  -0.71765  -0.71220
 Alpha  occ. eigenvalues --   -0.70897  -0.70015  -0.65770  -0.65496  -0.64600
 Alpha  occ. eigenvalues --   -0.64329  -0.62862  -0.61695  -0.55974  -0.54777
 Alpha  occ. eigenvalues --   -0.53822  -0.53590  -0.52683  -0.52423  -0.49765
 Alpha  occ. eigenvalues --   -0.49713  -0.48528  -0.48511  -0.45793  -0.44560
 Alpha  occ. eigenvalues --   -0.38060  -0.37088  -0.36902  -0.35968
 Alpha virt. eigenvalues --    0.04199   0.05403   0.10558   0.11670   0.15751
 Alpha virt. eigenvalues --    0.16925   0.19395   0.21954   0.25062   0.27083
 Alpha virt. eigenvalues --    0.28618   0.28931   0.30325   0.31021   0.32351

 Mulliken charges:
               1
     1  C   -0.171982
     2  C   -0.219160
     3  C   -0.171672
     4  C    0.158403
     5  C   -0.172898
     6  C   -0.227026
     7  H    0.232899
     8  H    0.222735
     9  H    0.274212
    10  H    0.273247
    11  H    0.235080
    12  N    0.488152
    13  O   -0.462166
    14  O   -0.461427
    15  C   -0.169783
    16  C   -0.218105
    17  C   -0.169863
    18  C    0.158359
    19  C   -0.172722
    20  C   -0.219290
    21  H    0.228831
    22  H    0.226394
    23  H    0.277434
    24  H    0.270819
    25  H    0.226195
    26  N    0.490626
    27  O   -0.473252
    28  O   -0.454038
 Sum of Mulliken charges =  -0.00000

 Dipole moment (field-independent basis, Debye):
    X=             -6.0691    Y=              1.4943    Z=              3.7343  Tot=              7.2809
 Quadrupole moment (field-independent basis, Debye-Ang):
   XX=           -113.8751   YY=           -106.4306   ZZ=           -104.8628
   XY=            -31.4005   XZ=              6.0347   YZ=             -1.5452

 Normal termination of Gaussian 16 at Fri May  7 06:26:21 2021.
