 Gaussian 16, Revision A.03,
 Gaussian 16:  EM64L-G16RevA.03 25-Dec-2016

 -------------
 #p 6-31g* mp2
 -------------

 ------------------------------------------------------
 Input file generated by CHIRIPA (05-May-2021 14:57:26)
 ------------------------------------------------------
 Symbolic Z-matrix:
 Charge =  0 Multiplicity = 1

                         Standard orientation:
 ---------------------------------------------------------------------
 Center     Atomic      Atomic             Coordinates (Angstroms)
 Number     Number       Type             X           Y           Z
 ---------------------------------------------------------------------
      1          6           0       -1.915419    0.843055    2.515008
      2          6           0       -1.340354   -0.348340    2.060695
      3          6           0       -1.699154   -0.881689    0.819184
      4          6           0       -2.640451   -0.194362    0.054442
      5          6           0       -3.231155    0.994615    0.479522
      6          6           0       -2.857324    1.509555    1.724366
      7          1           0       -1.630857    1.250223    3.480738
      8          1           0       -0.608595   -0.868105    2.672591
      9          1           0       -1.269622   -1.802297    0.443149
     10          1           0       -3.957827    1.490058   -0.152856
     11          1           0       -3.305569    2.434988    2.074642
     12          7           0       -3.028252   -0.749250   -1.261654
     13          8           0       -3.859885   -0.124562   -1.916472
     14          8           0       -2.493235   -1.798354   -1.613471
     15          6           0        2.048978    2.416516   -1.128572
     16          6           0        3.287985    2.155951   -0.534022
     17          6           0        3.591124    0.877794   -0.055514
     18          6           0        2.627539   -0.120762   -0.188478
     19          6           0        1.384187    0.107599   -0.776030
     20          6           0        1.102701    1.393313   -1.247468
     21          1           0        1.821902    3.412354   -1.497542
     22          1           0        4.024797    2.948653   -0.440344
     23          1           0        4.542469    0.648503    0.409012
     24          1           0        0.669954   -0.702962   -0.855278
     25          1           0        0.139650    1.592781   -1.708758
     26          7           0        2.936997   -1.477888    0.314356
     27          8           0        2.070975   -2.340432    0.185280
     28          8           0        4.039713   -1.653364    0.828030
 ---------------------------------------------------------------------

 SCF Done:  E(RHF) =  -868.338472689     A.U. after   16 cycles
 E2 =    -0.2602090117D+01 EUMP2 =    -0.87094056280670D+03

 The electronic state is 1-A.
 Alpha  occ. eigenvalues --  -20.61248 -20.61231 -20.61121 -20.61101 -15.86276
 Alpha  occ. eigenvalues --  -15.86150 -11.31567 -11.31335 -11.28143 -11.27998
 Alpha  occ. eigenvalues --  -11.27918 -11.27838 -11.27789 -11.27618 -11.27120
 Alpha  occ. eigenvalues --  -11.26986 -11.26895 -11.26820  -1.60324  -1.60186
 Alpha  occ. eigenvalues --   -1.39872  -1.39745  -1.19729  -1.19502  -1.09126
 Alpha  occ. eigenvalues --   -1.08936  -1.05103  -1.04854  -0.95976  -0.95790
 Alpha  occ. eigenvalues --   -0.86506  -0.86274  -0.82777  -0.82627  -0.77890
 Alpha  occ. eigenvalues --   -0.77664  -0.72477  -0.72368  -0.71680  -0.71511
 Alpha  occ. eigenvalues --   -0.70843  -0.70566  -0.65346  -0.65156  -0.65094
 Alpha  occ. eigenvalues --   -0.64832  -0.62505  -0.62119  -0.55577  -0.55395
 Alpha  occ. eigenvalues --   -0.53625  -0.53184  -0.53061  -0.52874  -0.49250
 Alpha  occ. eigenvalues --   -0.49234  -0.49135  -0.49107  -0.45279  -0.45186
 Alpha  occ. eigenvalues --   -0.37714  -0.37537  -0.36946  -0.36118
 Alpha virt. eigenvalues --    0.04472   0.04935   0.10792   0.11235   0.16163
 Alpha virt. eigenvalues --    0.16328   0.20858   0.21556   0.26278   0.27248
 Alpha virt. eigenvalues --    0.27764   0.28614   0.30651   0.30981   0.31600

 Mulliken charges:
               1
     1  C   -0.170300
     2  C   -0.217846
     3  C   -0.186086
     4  C    0.155521
     5  C   -0.174531
     6  C   -0.218535
     7  H    0.227485
     8  H    0.232613
     9  H    0.289201
    10  H    0.274842
    11  H    0.223615
    12  N    0.486085
    13  O   -0.460344
    14  O   -0.458421
    15  C   -0.170987
    16  C   -0.219475
    17  C   -0.171515
    18  C    0.154882
    19  C   -0.170118
    20  C   -0.219417
    21  H    0.226042
    22  H    0.223122
    23  H    0.274846
    24  H    0.279308
    25  H    0.226548
    26  N    0.487920
    27  O   -0.465273
    28  O   -0.459182
 Sum of Mulliken charges =  -0.00000

 Dipole moment (field-independent basis, Debye):
    X=              0.2506    Y=              6.7066    Z=              2.9737  Tot=              7.3405
 Quadrupole moment (field-independent basis, Debye-Ang):
   XX=           -112.6248   YY=           -104.0514   ZZ=           -104.0905
   XY=              6.3668   XZ=            -14.9356   YZ=             -1.6557

 Normal termination of Gaussian 16 at Fri May  7 12:43:42 2021.
