 Gaussian 16, Revision A.03,
 Gaussian 16:  EM64L-G16RevA.03 25-Dec-2016

 -------------
 #p 6-31g* mp2
 -------------

 ------------------------------------------------------
 Input file generated by CHIRIPA (05-May-2021 14:55:19)
 ------------------------------------------------------
 Symbolic Z-matrix:
 Charge =  0 Multiplicity = 1

                         Standard orientation:
 ---------------------------------------------------------------------
 Center     Atomic      Atomic             Coordinates (Angstroms)
 Number     Number       Type             X           Y           Z
 ---------------------------------------------------------------------
      1          6           0       -1.299756    0.327089    0.327198
      2          6           0       -1.825721   -0.827017   -0.262651
      3          6           0       -3.198696   -0.940136   -0.500751
      4          6           0       -4.020408    0.124828   -0.134787
      5          6           0       -3.526532    1.287597    0.454573
      6          6           0       -2.150340    1.378858    0.683300
      7          1           0       -0.231946    0.406473    0.508519
      8          1           0       -1.167527   -1.645412   -0.540237
      9          1           0       -3.632489   -1.822219   -0.955911
     10          1           0       -4.207744    2.086788    0.720398
     11          1           0       -1.744658    2.276345    1.141539
     12          7           0       -5.475618    0.016644   -0.381891
     13          8           0       -6.178363    0.968917   -0.050285
     14          8           0       -5.885911   -1.018374   -0.902500
     15          6           0        5.442236    0.285414    0.146055
     16          6           0        6.428242    0.067368   -1.002089
     17          6           0        7.629464    1.011095   -0.936993
     18          1           0        5.093386    1.327019    0.128526
     19          1           0        5.966707    0.147475    1.101720
     20          1           0        5.901742    0.204318   -1.955325
     21          1           0        6.774639   -0.973890   -0.981940
     22          1           0        8.179943    0.870014   -0.001220
     23          1           0        7.302086    2.054916   -0.980136
     24          1           0        8.321455    0.837988   -1.767080
     25          6           0        4.236028   -0.650620    0.094742
     26          6           0        3.250022   -0.432574    1.242885
     27          6           0        2.048799   -1.376300    1.177791
     28          1           0        3.711556   -0.512681   -0.860924
     29          1           0        4.584878   -1.692224    0.112271
     30          1           0        2.903625    0.608685    1.222737
     31          1           0        3.776522   -0.569523    2.196121
     32          1           0        2.376177   -2.420122    1.220933
     33          1           0        1.498320   -1.235219    0.242018
     34          1           0        1.356809   -1.203194    2.007877
 ---------------------------------------------------------------------

 SCF Done:  E(RHF) =  -669.535151717     A.U. after   15 cycles
 E2 =    -0.2091413164D+01 EUMP2 =    -0.67162656488099D+03

 The electronic state is 1-A.
 Alpha  occ. eigenvalues --  -20.60701 -20.60696 -15.85755 -11.31101 -11.27674
 Alpha  occ. eigenvalues --  -11.27670 -11.27334 -11.26671 -11.26656 -11.22763
 Alpha  occ. eigenvalues --  -11.22477 -11.22302 -11.22208 -11.22104 -11.21574
 Alpha  occ. eigenvalues --   -1.59777  -1.39331  -1.19270  -1.09308  -1.08662
 Alpha  occ. eigenvalues --   -1.04675  -1.04441  -0.96909  -0.95499  -0.87926
 Alpha  occ. eigenvalues --   -0.86068  -0.82340  -0.80517  -0.79062  -0.77393
 Alpha  occ. eigenvalues --   -0.71973  -0.71101  -0.70405  -0.65945  -0.64920
 Alpha  occ. eigenvalues --   -0.64690  -0.62052  -0.61819  -0.60297  -0.58478
 Alpha  occ. eigenvalues --   -0.56315  -0.55043  -0.53580  -0.53321  -0.52990
 Alpha  occ. eigenvalues --   -0.52757  -0.50824  -0.48822  -0.48729  -0.48726
 Alpha  occ. eigenvalues --   -0.47544  -0.46614  -0.46508  -0.44741  -0.44662
 Alpha  occ. eigenvalues --   -0.37236  -0.36284
 Alpha virt. eigenvalues --    0.05136   0.11362   0.16608   0.19597   0.22414
 Alpha virt. eigenvalues --    0.23722   0.25266   0.25837   0.26748   0.27559
 Alpha virt. eigenvalues --    0.29293   0.29881   0.30684   0.31112   0.31667

 Mulliken charges:
               1
     1  C   -0.175451
     2  C   -0.222269
     3  C   -0.170885
     4  C    0.158100
     5  C   -0.170815
     6  C   -0.220018
     7  H    0.235487
     8  H    0.224535
     9  H    0.275303
    10  H    0.275162
    11  H    0.223020
    12  N    0.488059
    13  O   -0.460712
    14  O   -0.460688
    15  C   -0.298847
    16  C   -0.300308
    17  C   -0.476158
    18  H    0.149650
    19  H    0.151283
    20  H    0.152469
    21  H    0.153127
    22  H    0.156078
    23  H    0.155613
    24  H    0.162153
    25  C   -0.298773
    26  C   -0.301960
    27  C   -0.484774
    28  H    0.149031
    29  H    0.152439
    30  H    0.148808
    31  H    0.157805
    32  H    0.163806
    33  H    0.146557
    34  H    0.163170
 Sum of Mulliken charges =  -0.00000

 Dipole moment (field-independent basis, Debye):
    X=              5.4325    Y=              0.3310    Z=              0.9135  Tot=              5.5187
 Quadrupole moment (field-independent basis, Debye-Ang):
   XX=           -136.1877   YY=            -90.4429   ZZ=            -94.5673
   XY=             -2.6449   XZ=             -4.0387   YZ=              1.7099

 Normal termination of Gaussian 16 at Wed May  5 15:49:03 2021.
