 Gaussian 16, Revision A.03,
 Gaussian 16:  EM64L-G16RevA.03 25-Dec-2016

 -------------
 #p 6-31g* mp2
 -------------

 ------------------------------------------------------
 Input file generated by CHIRIPA (05-May-2021 14:57:26)
 ------------------------------------------------------
 Symbolic Z-matrix:
 Charge =  0 Multiplicity = 1

                         Standard orientation:
 ---------------------------------------------------------------------
 Center     Atomic      Atomic             Coordinates (Angstroms)
 Number     Number       Type             X           Y           Z
 ---------------------------------------------------------------------
      1          6           0       -1.261922    0.980961    0.515475
      2          6           0       -1.745618   -0.029948    1.352507
      3          6           0       -3.001441   -0.600388    1.124358
      4          6           0       -3.750379   -0.133791    0.045159
      5          6           0       -3.296008    0.871852   -0.806615
      6          6           0       -2.037294    1.427847   -0.559519
      7          1           0       -0.285245    1.418483    0.700066
      8          1           0       -1.145635   -0.378980    2.188116
      9          1           0       -3.400209   -1.384369    1.756637
     10          1           0       -3.917085    1.198973   -1.631644
     11          1           0       -1.664197    2.212789   -1.211217
     12          7           0       -5.081393   -0.730044   -0.206401
     13          8           0       -5.721803   -0.301401   -1.163886
     14          8           0       -5.459030   -1.614740    0.558674
     15          6           0        2.343820    2.236355    0.249284
     16          6           0        2.897728    1.565486    1.344566
     17          6           0        3.557759    0.345441    1.170224
     18          6           0        3.645785   -0.177247   -0.119094
     19          6           0        3.104238    0.467177   -1.230280
     20          6           0        2.448658    1.686028   -1.032384
     21          1           0        1.832820    3.183652    0.393866
     22          1           0        2.817829    1.990508    2.341069
     23          1           0        3.995688   -0.195080    2.000570
     24          1           0        3.199894    0.018530   -2.211597
     25          1           0        2.019440    2.204815   -1.884836
     26          7           0        4.342174   -1.468224   -0.316130
     27          8           0        4.406210   -1.907636   -1.462189
     28          8           0        4.810782   -2.016233    0.679225
 ---------------------------------------------------------------------

 SCF Done:  E(RHF) =  -868.336575451     A.U. after   16 cycles
 E2 =    -0.2601383415D+01 EUMP2 =    -0.87093795886536D+03

 The electronic state is 1-A.
 Alpha  occ. eigenvalues --  -20.61577 -20.61568 -20.60949 -20.60942 -15.86636
 Alpha  occ. eigenvalues --  -15.86007 -11.32268 -11.31423 -11.28849 -11.28824
 Alpha  occ. eigenvalues --  -11.28694 -11.28046 -11.27998 -11.27972 -11.27953
 Alpha  occ. eigenvalues --  -11.27689 -11.27095 -11.27000  -1.60644  -1.60023
 Alpha  occ. eigenvalues --   -1.40190  -1.39575  -1.20483  -1.19613  -1.09862
 Alpha  occ. eigenvalues --   -1.08992  -1.05897  -1.05036  -0.96637  -0.95814
 Alpha  occ. eigenvalues --   -0.87293  -0.86433  -0.83439  -0.82657  -0.78416
 Alpha  occ. eigenvalues --   -0.77698  -0.72848  -0.72223  -0.71971  -0.71649
 Alpha  occ. eigenvalues --   -0.71348  -0.70705  -0.66125  -0.65892  -0.65267
 Alpha  occ. eigenvalues --   -0.65066  -0.63210  -0.62391  -0.56472  -0.55753
 Alpha  occ. eigenvalues --   -0.54008  -0.53976  -0.53341  -0.53137  -0.49629
 Alpha  occ. eigenvalues --   -0.49587  -0.48987  -0.48974  -0.45535  -0.44969
 Alpha  occ. eigenvalues --   -0.38516  -0.37653  -0.37421  -0.36647
 Alpha virt. eigenvalues --    0.04048   0.04854   0.10068   0.11012   0.15378
 Alpha virt. eigenvalues --    0.16324   0.19622   0.21787   0.25708   0.26599
 Alpha virt. eigenvalues --    0.27425   0.29205   0.29641   0.31120   0.31932

 Mulliken charges:
               1
     1  C   -0.172907
     2  C   -0.222006
     3  C   -0.169542
     4  C    0.158110
     5  C   -0.169844
     6  C   -0.222718
     7  H    0.230683
     8  H    0.223765
     9  H    0.276862
    10  H    0.275579
    11  H    0.216176
    12  N    0.488052
    13  O   -0.460412
    14  O   -0.459294
    15  C   -0.188400
    16  C   -0.220840
    17  C   -0.170640
    18  C    0.160608
    19  C   -0.168460
    20  C   -0.216212
    21  H    0.226949
    22  H    0.226639
    23  H    0.279005
    24  H    0.280099
    25  H    0.225225
    26  N    0.487841
    27  O   -0.456498
    28  O   -0.457818
 Sum of Mulliken charges =  -0.00000

 Dipole moment (field-independent basis, Debye):
    X=              2.5362    Y=              6.4507    Z=              1.5413  Tot=              7.1007
 Quadrupole moment (field-independent basis, Debye-Ang):
   XX=           -157.9894   YY=           -106.4967   ZZ=            -97.0723
   XY=              8.0211   XZ=              1.1224   YZ=             -3.7606

 Normal termination of Gaussian 16 at Thu May  6 09:54:42 2021.
