 Gaussian 16, Revision A.03,
 Gaussian 16:  EM64L-G16RevA.03 25-Dec-2016

 -------------
 #p 6-31g* mp2
 -------------

 ------------------------------------------------------
 Input file generated by CHIRIPA (05-May-2021 14:53:17)
 ------------------------------------------------------
 Symbolic Z-matrix:
 Charge =  0 Multiplicity = 1

                         Standard orientation:
 ---------------------------------------------------------------------
 Center     Atomic      Atomic             Coordinates (Angstroms)
 Number     Number       Type             X           Y           Z
 ---------------------------------------------------------------------
      1          6           0       -4.072019    0.723319    0.344393
      2          6           0       -4.627310    1.841481   -0.538416
      3          6           0       -4.629752    3.201010    0.161204
      4          1           0       -4.667498    0.662164    1.265593
      5          1           0       -3.048619    0.981150    0.650286
      6          1           0       -5.648858    1.580969   -0.843686
      7          1           0       -4.030559    1.899854   -1.457707
      8          1           0       -3.613501    3.486799    0.451309
      9          1           0       -5.240995    3.166102    1.068819
     10          1           0       -5.030653    3.985794   -0.487835
     11          6           0       -4.063096   -0.641878   -0.341090
     12          6           0       -3.507805   -1.760040    0.541719
     13          6           0       -3.505364   -3.119569   -0.157901
     14          1           0       -5.086496   -0.899709   -0.646983
     15          1           0       -3.467618   -0.580724   -1.262290
     16          1           0       -4.104556   -1.818413    1.461010
     17          1           0       -2.486258   -1.499529    0.846989
     18          1           0       -2.894120   -3.084662   -1.065516
     19          1           0       -4.521614   -3.405358   -0.448006
     20          1           0       -3.104462   -3.904353    0.491138
     21          6           0        0.787956   -0.839810    0.041219
     22          6           0        1.454172   -0.561417    1.239207
     23          6           0        2.778369   -0.113180    1.227641
     24          6           0        3.408819    0.046302   -0.005400
     25          6           0        2.771933   -0.222702   -1.215898
     26          6           0        1.447799   -0.669863   -1.180355
     27          1           0       -0.240688   -1.187594    0.059516
     28          1           0        0.944224   -0.692490    2.189374
     29          1           0        3.317853    0.109725    2.140159
     30          1           0        3.306559   -0.082452   -2.147521
     31          1           0        0.932894   -0.885294   -2.112293
     32          7           0        4.810653    0.520261   -0.030335
     33          8           0        5.343890    0.652667   -1.129774
     34          8           0        5.349632    0.750368    1.050030
 ---------------------------------------------------------------------

 SCF Done:  E(RHF) =  -669.535483951     A.U. after   15 cycles
 E2 =    -0.2091168409D+01 EUMP2 =    -0.67162665235985D+03

 The electronic state is 1-A.
 Alpha  occ. eigenvalues --  -20.60756 -20.60751 -15.85811 -11.31179 -11.27750
 Alpha  occ. eigenvalues --  -11.27746 -11.27470 -11.26766 -11.26755 -11.22817
 Alpha  occ. eigenvalues --  -11.22381 -11.22274 -11.22198 -11.22138 -11.21601
 Alpha  occ. eigenvalues --   -1.59832  -1.39386  -1.19352  -1.09359  -1.08745
 Alpha  occ. eigenvalues --   -1.04757  -1.04415  -0.96834  -0.95581  -0.87849
 Alpha  occ. eigenvalues --   -0.86153  -0.82416  -0.80500  -0.79140  -0.77460
 Alpha  occ. eigenvalues --   -0.72028  -0.71155  -0.70489  -0.66004  -0.65004
 Alpha  occ. eigenvalues --   -0.64759  -0.62105  -0.61830  -0.60220  -0.58440
 Alpha  occ. eigenvalues --   -0.56131  -0.55254  -0.53522  -0.53242  -0.53085
 Alpha  occ. eigenvalues --   -0.52848  -0.50783  -0.48814  -0.48783  -0.48766
 Alpha  occ. eigenvalues --   -0.47558  -0.46671  -0.46596  -0.44790  -0.44661
 Alpha  occ. eigenvalues --   -0.37330  -0.36363
 Alpha virt. eigenvalues --    0.05071   0.11290   0.16536   0.18555   0.22750
 Alpha virt. eigenvalues --    0.23612   0.25302   0.26050   0.27205   0.27526
 Alpha virt. eigenvalues --    0.29116   0.30534   0.30894   0.30975   0.32116

 Mulliken charges:
               1
     1  C   -0.298641
     2  C   -0.300067
     3  C   -0.476372
     4  H    0.151935
     5  H    0.146936
     6  H    0.153611
     7  H    0.152069
     8  H    0.156165
     9  H    0.156115
    10  H    0.162638
    11  C   -0.298731
    12  C   -0.304057
    13  C   -0.476556
    14  H    0.154225
    15  H    0.146647
    16  H    0.158023
    17  H    0.141072
    18  H    0.152092
    19  H    0.160811
    20  H    0.162702
    21  C   -0.178343
    22  C   -0.221357
    23  C   -0.170818
    24  C    0.158277
    25  C   -0.170621
    26  C   -0.220540
    27  H    0.237520
    28  H    0.223370
    29  H    0.275645
    30  H    0.275516
    31  H    0.223615
    32  N    0.488004
    33  O   -0.460451
    34  O   -0.460434
 Sum of Mulliken charges =  -0.00000

 Dipole moment (field-independent basis, Debye):
    X=             -5.1806    Y=             -1.6524    Z=              0.0902  Tot=              5.4385
 Quadrupole moment (field-independent basis, Debye-Ang):
   XX=           -127.1532   YY=            -96.4713   ZZ=            -89.7481
   XY=             -5.6131   XZ=              0.0088   YZ=             -0.1986

 Normal termination of Gaussian 16 at Thu May  6 17:17:22 2021.
