 Gaussian 16, Revision A.03,
 Gaussian 16:  EM64L-G16RevA.03 25-Dec-2016

 -------------
 #p 6-31g* mp2
 -------------

 ------------------------------------------------------
 Input file generated by CHIRIPA (05-May-2021 14:57:21)
 ------------------------------------------------------
 Symbolic Z-matrix:
 Charge =  0 Multiplicity = 1

                         Standard orientation:
 ---------------------------------------------------------------------
 Center     Atomic      Atomic             Coordinates (Angstroms)
 Number     Number       Type             X           Y           Z
 ---------------------------------------------------------------------
      1          6           0       -3.676599   -2.285521   -0.051634
      2          6           0       -4.055604   -1.526162    1.060234
      3          6           0       -3.764371   -0.160076    1.119738
      4          6           0       -3.089829    0.416828    0.044813
      5          6           0       -2.699024   -0.313006   -1.076750
      6          6           0       -3.000710   -1.677591   -1.114703
      7          1           0       -3.906897   -3.346146   -0.089487
      8          1           0       -4.580614   -1.995625    1.887285
      9          1           0       -4.046143    0.451384    1.968349
     10          1           0       -2.176776    0.183037   -1.885834
     11          1           0       -2.705150   -2.264847   -1.979469
     12          7           0       -2.775980    1.862247    0.096399
     13          8           0       -2.180773    2.346810   -0.863582
     14          8           0       -3.131136    2.483235    1.095837
     15          6           0        5.566526    0.321500    0.448804
     16          6           0        5.060119   -0.964311    0.665054
     17          6           0        3.718129   -1.252778    0.399735
     18          6           0        2.907118   -0.226953   -0.083210
     19          6           0        3.382081    1.064079   -0.308896
     20          6           0        4.727370    1.329814   -0.036625
     21          1           0        6.610298    0.536758    0.657610
     22          1           0        5.709501   -1.749344    1.041979
     23          1           0        3.299983   -2.239433    0.558121
     24          1           0        2.710321    1.825962   -0.685316
     25          1           0        5.117916    2.329311   -0.205513
     26          7           0        1.484667   -0.520307   -0.367770
     27          8           0        0.790787    0.400903   -0.792670
     28          8           0        1.090564   -1.665894   -0.160522
 ---------------------------------------------------------------------

 SCF Done:  E(RHF) =  -868.338970807     A.U. after   16 cycles
 E2 =    -0.2599878228D+01 EUMP2 =    -0.87093884903503D+03

 The electronic state is 1-A.
 Alpha  occ. eigenvalues --  -20.60930 -20.60874 -20.59456 -20.59389 -15.85921
 Alpha  occ. eigenvalues --  -15.84467 -11.31175 -11.29649 -11.27769 -11.27683
 Alpha  occ. eigenvalues --  -11.27475 -11.26754 -11.26698 -11.26356 -11.26149
 Alpha  occ. eigenvalues --  -11.26079 -11.25355 -11.25197  -1.59974  -1.58492
 Alpha  occ. eigenvalues --   -1.39524  -1.38049  -1.19344  -1.17851  -1.08767
 Alpha  occ. eigenvalues --   -1.07301  -1.04726  -1.03246  -0.95617  -0.94158
 Alpha  occ. eigenvalues --   -0.86131  -0.84668  -0.82443  -0.81008  -0.77500
 Alpha  occ. eigenvalues --   -0.76047  -0.72150  -0.71287  -0.70715  -0.70451
 Alpha  occ. eigenvalues --   -0.69780  -0.69027  -0.64996  -0.64731  -0.63538
 Alpha  occ. eigenvalues --   -0.63301  -0.62067  -0.60612  -0.55246  -0.53838
 Alpha  occ. eigenvalues --   -0.53068  -0.52815  -0.51589  -0.51383  -0.48913
 Alpha  occ. eigenvalues --   -0.48887  -0.47474  -0.47440  -0.44959  -0.43481
 Alpha  occ. eigenvalues --   -0.37328  -0.36325  -0.35851  -0.34781
 Alpha virt. eigenvalues --    0.05012   0.06507   0.11330   0.12854   0.16522
 Alpha virt. eigenvalues --    0.17990   0.21481   0.22757   0.27403   0.28372
 Alpha virt. eigenvalues --    0.28670   0.29665   0.31043   0.32206   0.32656

 Mulliken charges:
               1
     1  C   -0.169629
     2  C   -0.219979
     3  C   -0.172584
     4  C    0.155716
     5  C   -0.150138
     6  C   -0.213991
     7  H    0.220004
     8  H    0.216754
     9  H    0.269904
    10  H    0.279468
    11  H    0.220379
    12  N    0.489146
    13  O   -0.457362
    14  O   -0.469636
    15  C   -0.170405
    16  C   -0.218819
    17  C   -0.171154
    18  C    0.157314
    19  C   -0.170707
    20  C   -0.218842
    21  H    0.225795
    22  H    0.222765
    23  H    0.273716
    24  H    0.281531
    25  H    0.225163
    26  N    0.488426
    27  O   -0.457693
    28  O   -0.465144
 Sum of Mulliken charges =  -0.00000

 Dipole moment (field-independent basis, Debye):
    X=              4.2838    Y=             -3.9553    Z=              0.5896  Tot=              5.8603
 Quadrupole moment (field-independent basis, Debye-Ang):
   XX=            -70.4178   YY=           -106.2032   ZZ=           -101.6519
   XY=             16.7106   XZ=              1.6769   YZ=             -2.0005

 Normal termination of Gaussian 16 at Thu May  6 21:02:56 2021.
