 Gaussian 16, Revision A.03,
 Gaussian 16:  EM64L-G16RevA.03 25-Dec-2016

 -------------
 #p 6-31g* mp2
 -------------

 ------------------------------------------------------
 Input file generated by CHIRIPA (05-May-2021 14:53:18)
 ------------------------------------------------------
 Symbolic Z-matrix:
 Charge =  0 Multiplicity = 1

                         Standard orientation:
 ---------------------------------------------------------------------
 Center     Atomic      Atomic             Coordinates (Angstroms)
 Number     Number       Type             X           Y           Z
 ---------------------------------------------------------------------
      1          6           0       -3.566030   -0.628376   -0.126766
      2          6           0       -4.895223   -1.310350    0.199027
      3          6           0       -4.742240   -2.809022    0.460504
      4          1           0       -3.119097   -1.111740   -1.006286
      5          1           0       -2.866857   -0.786738    0.705984
      6          1           0       -5.592136   -1.149573   -0.633487
      7          1           0       -5.339136   -0.825181    1.077758
      8          1           0       -4.067772   -2.985940    1.304539
      9          1           0       -4.322209   -3.312175   -0.416430
     10          1           0       -5.704511   -3.276551    0.691398
     11          6           0       -3.702634    0.870105   -0.390629
     12          6           0       -2.373441    1.552079   -0.716422
     13          6           0       -2.526424    3.050751   -0.977900
     14          1           0       -4.401807    1.028467   -1.223380
     15          1           0       -4.149567    1.353469    0.488891
     16          1           0       -1.929528    1.066910   -1.595154
     17          1           0       -1.676528    1.391302    0.116092
     18          1           0       -2.946455    3.553904   -0.100966
     19          1           0       -3.200892    3.227669   -1.821934
     20          1           0       -1.564153    3.518280   -1.208794
     21          6           0        4.217018   -1.916416   -0.869446
     22          6           0        4.698159   -0.603464   -0.835072
     23          6           0        3.943353    0.414075   -0.243944
     24          6           0        2.706131    0.081718    0.305702
     25          6           0        2.199508   -1.216849    0.287098
     26          6           0        2.971424   -2.218386   -0.309240
     27          1           0        4.810015   -2.700649   -1.330671
     28          1           0        5.665152   -0.366037   -1.269349
     29          1           0        4.291791    1.438953   -0.203529
     30          1           0        1.231863   -1.422832    0.728293
     31          1           0        2.595244   -3.237158   -0.334489
     32          7           0        1.897995    1.150470    0.934259
     33          8           0        0.811123    0.831748    1.411503
     34          8           0        2.366752    2.286644    0.937776
 ---------------------------------------------------------------------

 SCF Done:  E(RHF) =  -669.536373848     A.U. after   15 cycles
 E2 =    -0.2091098337D+01 EUMP2 =    -0.67162747218550D+03

 The electronic state is 1-A.
 Alpha  occ. eigenvalues --  -20.60959 -20.60953 -15.85983 -11.31282 -11.27845
 Alpha  occ. eigenvalues --  -11.27838 -11.27581 -11.26849 -11.26838 -11.21199
 Alpha  occ. eigenvalues --  -11.20835 -11.20829 -11.20618 -11.20457 -11.20085
 Alpha  occ. eigenvalues --   -1.60012  -1.39570  -1.19449  -1.08858  -1.07757
 Alpha  occ. eigenvalues --   -1.04843  -1.02837  -0.95704  -0.95328  -0.86349
 Alpha  occ. eigenvalues --   -0.86244  -0.82541  -0.78931  -0.77621  -0.77505
 Alpha  occ. eigenvalues --   -0.72210  -0.71319  -0.70560  -0.65108  -0.64847
 Alpha  occ. eigenvalues --   -0.64381  -0.62190  -0.60224  -0.58719  -0.56916
 Alpha  occ. eigenvalues --   -0.55350  -0.54628  -0.53175  -0.52935  -0.52022
 Alpha  occ. eigenvalues --   -0.51755  -0.49293  -0.48973  -0.48962  -0.47255
 Alpha  occ. eigenvalues --   -0.45985  -0.45282  -0.45075  -0.44586  -0.43098
 Alpha  occ. eigenvalues --   -0.37427  -0.36443
 Alpha virt. eigenvalues --    0.04898   0.11212   0.16369   0.21289   0.23474
 Alpha virt. eigenvalues --    0.25026   0.26911   0.27364   0.27740   0.28498
 Alpha virt. eigenvalues --    0.28877   0.30988   0.32043   0.32238   0.32726

 Mulliken charges:
               1
     1  C   -0.298602
     2  C   -0.298939
     3  C   -0.475280
     4  H    0.144669
     5  H    0.152983
     6  H    0.150768
     7  H    0.152814
     8  H    0.154083
     9  H    0.152273
    10  H    0.159239
    11  C   -0.297093
    12  C   -0.312049
    13  C   -0.474292
    14  H    0.145385
    15  H    0.150155
    16  H    0.143141
    17  H    0.179219
    18  H    0.155766
    19  H    0.148824
    20  H    0.162440
    21  C   -0.170558
    22  C   -0.218618
    23  C   -0.170765
    24  C    0.158314
    25  C   -0.170385
    26  C   -0.218653
    27  H    0.225975
    28  H    0.223757
    29  H    0.275759
    30  H    0.276027
    31  H    0.223994
    32  N    0.489185
    33  O   -0.460761
    34  O   -0.458773
 Sum of Mulliken charges =  -0.00000

 Dipole moment (field-independent basis, Debye):
    X=              3.0954    Y=             -3.7087    Z=             -2.0796  Tot=              5.2593
 Quadrupole moment (field-independent basis, Debye-Ang):
   XX=            -77.7262   YY=            -94.8255   ZZ=            -95.9692
   XY=             -7.5356   XZ=             -6.4691   YZ=             -1.4533

 Normal termination of Gaussian 16 at Thu May  6 04:25:44 2021.
