 Gaussian 16, Revision A.03,
 Gaussian 16:  EM64L-G16RevA.03 25-Dec-2016

 -------------
 #p 6-31g* mp2
 -------------

 ------------------------------------------------------
 Input file generated by CHIRIPA (05-May-2021 14:55:19)
 ------------------------------------------------------
 Symbolic Z-matrix:
 Charge =  0 Multiplicity = 1

                         Standard orientation:
 ---------------------------------------------------------------------
 Center     Atomic      Atomic             Coordinates (Angstroms)
 Number     Number       Type             X           Y           Z
 ---------------------------------------------------------------------
      1          6           0       -2.573615    2.336287    1.095123
      2          6           0       -3.481818    1.273817    1.148485
      3          6           0       -3.295852    0.140102    0.351834
      4          6           0       -2.185804    0.102126   -0.490568
      5          6           0       -1.263284    1.144492   -0.566199
      6          6           0       -1.469194    2.268353    0.239460
      7          1           0       -2.725824    3.213156    1.717480
      8          1           0       -4.340422    1.323828    1.812069
      9          1           0       -3.983374   -0.696719    0.373322
     10          1           0       -0.416825    1.065687   -1.237552
     11          1           0       -0.762238    3.091982    0.195941
     12          7           0       -1.978373   -1.092872   -1.338715
     13          8           0       -0.992450   -1.101885   -2.072549
     14          8           0       -2.805640   -1.997870   -1.253600
     15          6           0        2.676641   -1.035913    0.809129
     16          6           0        1.206413   -1.151028    1.213062
     17          6           0        0.892000   -2.463023    1.932511
     18          1           0        2.939717   -1.883221    0.161206
     19          1           0        3.304194   -1.122350    1.706960
     20          1           0        0.581759   -1.063014    0.314909
     21          1           0        0.946755   -0.303243    1.859942
     22          1           0        1.490482   -2.555236    2.844607
     23          1           0        1.123412   -3.319323    1.290795
     24          1           0       -0.164343   -2.524357    2.212221
     25          6           0        3.006535    0.270278    0.088876
     26          6           0        4.476763    0.385394   -0.315056
     27          6           0        4.791176    1.697389   -1.034506
     28          1           0        2.378982    0.356716   -0.808955
     29          1           0        2.743459    1.117588    0.736799
     30          1           0        4.736420   -0.462391   -0.961937
     31          1           0        5.101416    0.297379    0.583096
     32          1           0        4.559765    2.553689   -0.392790
     33          1           0        4.192695    1.789602   -1.946602
     34          1           0        5.847519    1.758723   -1.314216
 ---------------------------------------------------------------------

 SCF Done:  E(RHF) =  -669.535621229     A.U. after   15 cycles
 E2 =    -0.2093755772D+01 EUMP2 =    -0.67162937700086D+03

 The electronic state is 1-A.
 Alpha  occ. eigenvalues --  -20.60932 -20.60924 -15.85935 -11.31198 -11.27790
 Alpha  occ. eigenvalues --  -11.27771 -11.27522 -11.26776 -11.26761 -11.21596
 Alpha  occ. eigenvalues --  -11.21417 -11.21278 -11.21166 -11.21156 -11.20739
 Alpha  occ. eigenvalues --   -1.59981  -1.39541  -1.19386  -1.08802  -1.08320
 Alpha  occ. eigenvalues --   -1.04777  -1.03397  -0.95863  -0.95650  -0.86877
 Alpha  occ. eigenvalues --   -0.86186  -0.82486  -0.79488  -0.78188  -0.77523
 Alpha  occ. eigenvalues --   -0.72171  -0.71304  -0.70507  -0.65067  -0.64943
 Alpha  occ. eigenvalues --   -0.64751  -0.62130  -0.60774  -0.59247  -0.57488
 Alpha  occ. eigenvalues --   -0.55295  -0.55144  -0.53134  -0.52876  -0.52531
 Alpha  occ. eigenvalues --   -0.52294  -0.49799  -0.48952  -0.48920  -0.47809
 Alpha  occ. eigenvalues --   -0.46546  -0.45785  -0.45640  -0.44712  -0.43661
 Alpha  occ. eigenvalues --   -0.37340  -0.36335
 Alpha virt. eigenvalues --    0.04962   0.11224   0.16447   0.20796   0.23029
 Alpha virt. eigenvalues --    0.24418   0.25215   0.26799   0.27767   0.27945
 Alpha virt. eigenvalues --    0.29401   0.31087   0.31520   0.31891   0.31927

 Mulliken charges:
               1
     1  C   -0.170422
     2  C   -0.218952
     3  C   -0.170692
     4  C    0.158646
     5  C   -0.170608
     6  C   -0.219739
     7  H    0.225681
     8  H    0.223399
     9  H    0.275461
    10  H    0.277722
    11  H    0.224044
    12  N    0.488989
    13  O   -0.459984
    14  O   -0.457963
    15  C   -0.296725
    16  C   -0.308233
    17  C   -0.475666
    18  H    0.155029
    19  H    0.147656
    20  H    0.160395
    21  H    0.146586
    22  H    0.152329
    23  H    0.160884
    24  H    0.158706
    25  C   -0.301153
    26  C   -0.299331
    27  C   -0.476009
    28  H    0.150975
    29  H    0.143276
    30  H    0.155656
    31  H    0.151875
    32  H    0.151690
    33  H    0.155110
    34  H    0.161367
 Sum of Mulliken charges =  -0.00000

 Dipole moment (field-independent basis, Debye):
    X=             -0.7885    Y=              4.1161    Z=              2.8991  Tot=              5.0959
 Quadrupole moment (field-independent basis, Debye-Ang):
   XX=            -88.3226   YY=            -94.0811   ZZ=            -97.3471
   XY=             -7.9207   XZ=             -7.8875   YZ=             -1.5828

 Normal termination of Gaussian 16 at Wed May  5 18:51:30 2021.
