 Gaussian 16, Revision A.03,
 Gaussian 16:  EM64L-G16RevA.03 25-Dec-2016

 -------------
 #p 6-31g* mp2
 -------------

 ------------------------------------------------------
 Input file generated by CHIRIPA (05-May-2021 14:55:22)
 ------------------------------------------------------
 Symbolic Z-matrix:
 Charge =  0 Multiplicity = 1

                         Standard orientation:
 ---------------------------------------------------------------------
 Center     Atomic      Atomic             Coordinates (Angstroms)
 Number     Number       Type             X           Y           Z
 ---------------------------------------------------------------------
      1          6           0       -3.377325   -2.177426    0.983139
      2          6           0       -4.227271   -1.447014    0.146112
      3          6           0       -3.789773   -0.259851   -0.448688
      4          6           0       -2.490334    0.169594   -0.183496
      5          6           0       -1.619806   -0.535878    0.645830
      6          6           0       -2.078595   -1.720332    1.229891
      7          1           0       -3.725454   -3.098591    1.441023
      8          1           0       -5.236388   -1.799598   -0.047308
      9          1           0       -4.426854    0.325247   -1.100766
     10          1           0       -0.619210   -0.159097    0.819786
     11          1           0       -1.416324   -2.285521    1.879509
     12          7           0       -2.015905    1.424956   -0.807499
     13          8           0       -0.866588    1.781931   -0.557946
     14          8           0       -2.802347    2.028165   -1.534331
     15          6           0        3.285523    0.811167    0.078276
     16          6           0        2.445318    1.451586    1.183674
     17          6           0        2.450793    2.979255    1.120484
     18          1           0        4.318151    1.178910    0.151687
     19          1           0        2.905332    1.140020   -0.898814
     20          1           0        2.826111    1.120529    2.158361
     21          1           0        1.414614    1.082129    1.107741
     22          1           0        2.051049    3.326621    0.162287
     23          1           0        3.470566    3.365239    1.218875
     24          1           0        1.844041    3.416298    1.919675
     25          6           0        3.289904   -0.715666    0.128193
     26          6           0        4.130108   -1.356084   -0.977205
     27          6           0        4.124633   -2.883753   -0.914015
     28          1           0        3.670094   -1.044518    1.105284
     29          1           0        2.257276   -1.083408    0.054782
     30          1           0        5.160813   -0.986627   -0.901271
     31          1           0        3.749315   -1.025027   -1.951892
     32          1           0        3.104861   -3.269737   -1.012405
     33          1           0        4.524378   -3.231119    0.044183
     34          1           0        4.731386   -3.320796   -1.713206
 ---------------------------------------------------------------------

 SCF Done:  E(RHF) =  -669.535759681     A.U. after   15 cycles
 E2 =    -0.2092359130D+01 EUMP2 =    -0.67162811881131D+03

 The electronic state is 1-A.
 Alpha  occ. eigenvalues --  -20.60906 -20.60898 -15.85946 -11.31265 -11.27827
 Alpha  occ. eigenvalues --  -11.27816 -11.27562 -11.26837 -11.26823 -11.21480
 Alpha  occ. eigenvalues --  -11.21276 -11.21070 -11.21059 -11.20904 -11.20207
 Alpha  occ. eigenvalues --   -1.59974  -1.39530  -1.19434  -1.08838  -1.08117
 Alpha  occ. eigenvalues --   -1.04830  -1.03147  -0.95688  -0.95590  -0.86613
 Alpha  occ. eigenvalues --   -0.86233  -0.82515  -0.79269  -0.77972  -0.77538
 Alpha  occ. eigenvalues --   -0.72180  -0.71288  -0.70548  -0.65103  -0.64903
 Alpha  occ. eigenvalues --   -0.64659  -0.62194  -0.60493  -0.59008  -0.57218
 Alpha  occ. eigenvalues --   -0.55336  -0.54864  -0.53161  -0.52937  -0.52284
 Alpha  occ. eigenvalues --   -0.52029  -0.49537  -0.48937  -0.48915  -0.47565
 Alpha  occ. eigenvalues --   -0.46282  -0.45466  -0.45326  -0.44939  -0.43426
 Alpha  occ. eigenvalues --   -0.37413  -0.36429
 Alpha virt. eigenvalues --    0.04952   0.11209   0.16461   0.20153   0.23095
 Alpha virt. eigenvalues --    0.24328   0.25286   0.27383   0.27759   0.28319
 Alpha virt. eigenvalues --    0.29654   0.30608   0.31532   0.31979   0.32547

 Mulliken charges:
               1
     1  C   -0.170072
     2  C   -0.219205
     3  C   -0.169361
     4  C    0.153464
     5  C   -0.175776
     6  C   -0.224065
     7  H    0.226037
     8  H    0.223732
     9  H    0.275806
    10  H    0.292064
    11  H    0.225137
    12  N    0.489774
    13  O   -0.466894
    14  O   -0.459247
    15  C   -0.298675
    16  C   -0.308403
    17  C   -0.474519
    18  H    0.148310
    19  H    0.158515
    20  H    0.144459
    21  H    0.160940
    22  H    0.170432
    23  H    0.149412
    24  H    0.158142
    25  C   -0.297644
    26  C   -0.299565
    27  C   -0.475446
    28  H    0.146645
    29  H    0.141599
    30  H    0.152812
    31  H    0.154732
    32  H    0.152558
    33  H    0.153648
    34  H    0.160653
 Sum of Mulliken charges =  -0.00000

 Dipole moment (field-independent basis, Debye):
    X=             -1.7877    Y=             -4.2837    Z=              2.0654  Tot=              5.0805
 Quadrupole moment (field-independent basis, Debye-Ang):
   XX=            -82.1292   YY=            -97.9386   ZZ=            -95.0504
   XY=             10.7431   XZ=             -2.8694   YZ=              0.5067

 Normal termination of Gaussian 16 at Thu May  6 06:14:49 2021.
