 Gaussian 16, Revision A.03,
 Gaussian 16:  EM64L-G16RevA.03 25-Dec-2016

 -------------
 #p 6-31g* mp2
 -------------

 ------------------------------------------------------
 Input file generated by CHIRIPA (05-May-2021 14:55:22)
 ------------------------------------------------------
 Symbolic Z-matrix:
 Charge =  0 Multiplicity = 1

                         Standard orientation:
 ---------------------------------------------------------------------
 Center     Atomic      Atomic             Coordinates (Angstroms)
 Number     Number       Type             X           Y           Z
 ---------------------------------------------------------------------
      1          6           0        0.721658   -0.978465    1.609684
      2          6           0        1.630574   -1.939184    1.154260
      3          6           0        2.726888   -1.564743    0.371677
      4          6           0        2.884450   -0.214717    0.062005
      5          6           0        1.996179    0.765993    0.500723
      6          6           0        0.907035    0.368682    1.282040
      7          1           0       -0.127201   -1.278223    2.217122
      8          1           0        1.489117   -2.986121    1.407161
      9          1           0        3.445811   -2.287744    0.005838
     10          1           0        2.163634    1.802001    0.232277
     11          1           0        0.202759    1.116965    1.634338
     12          7           0        4.041273    0.193793   -0.765810
     13          8           0        4.157759    1.389608   -1.024834
     14          8           0        4.809602   -0.689568   -1.139953
     15          6           0       -4.052572   -0.101179   -0.320041
     16          6           0       -3.675957   -1.554271   -0.611027
     17          6           0       -4.896052   -2.466642   -0.740406
     18          1           0       -4.642570   -0.060335    0.605799
     19          1           0       -4.704939    0.269059   -1.122996
     20          1           0       -3.023372   -1.921223    0.191528
     21          1           0       -3.086625   -1.591638   -1.536180
     22          1           0       -5.546116   -2.127619   -1.553475
     23          1           0       -5.482504   -2.459078    0.184048
     24          1           0       -4.603861   -3.500682   -0.948362
     25          6           0       -2.843532    0.823214   -0.187963
     26          6           0       -3.220149    2.276305    0.103023
     27          6           0       -2.000053    3.188676    0.232402
     28          1           0       -2.191165    0.452976    0.614992
     29          1           0       -2.253535    0.782369   -1.113804
     30          1           0       -3.809480    2.313673    1.028175
     31          1           0       -3.872733    2.643258   -0.699532
     32          1           0       -1.413600    3.181111   -0.692053
     33          1           0       -1.349989    2.849654    1.045471
     34          1           0       -2.292243    4.222717    0.440358
 ---------------------------------------------------------------------

 SCF Done:  E(RHF) =  -669.535006770     A.U. after   15 cycles
 E2 =    -0.2092436769D+01 EUMP2 =    -0.67162744353859D+03

 The electronic state is 1-A.
 Alpha  occ. eigenvalues --  -20.60735 -20.60730 -15.85788 -11.31151 -11.27714
 Alpha  occ. eigenvalues --  -11.27695 -11.27463 -11.26738 -11.26697 -11.22360
 Alpha  occ. eigenvalues --  -11.22244 -11.22140 -11.22026 -11.21986 -11.21611
 Alpha  occ. eigenvalues --   -1.59811  -1.39364  -1.19319  -1.09151  -1.08717
 Alpha  occ. eigenvalues --   -1.04722  -1.04244  -0.96699  -0.95554  -0.87715
 Alpha  occ. eigenvalues --   -0.86128  -0.82387  -0.80307  -0.78961  -0.77426
 Alpha  occ. eigenvalues --   -0.72007  -0.71134  -0.70434  -0.65830  -0.64972
 Alpha  occ. eigenvalues --   -0.64721  -0.62137  -0.61590  -0.60048  -0.58305
 Alpha  occ. eigenvalues --   -0.56016  -0.55225  -0.53380  -0.53178  -0.53038
 Alpha  occ. eigenvalues --   -0.52795  -0.50648  -0.48788  -0.48761  -0.48589
 Alpha  occ. eigenvalues --   -0.47329  -0.46485  -0.46410  -0.44770  -0.44487
 Alpha  occ. eigenvalues --   -0.37281  -0.36299
 Alpha virt. eigenvalues --    0.05081   0.11236   0.16518   0.19346   0.22577
 Alpha virt. eigenvalues --    0.23344   0.25327   0.25779   0.26537   0.28686
 Alpha virt. eigenvalues --    0.29274   0.30059   0.31136   0.31404   0.31832

 Mulliken charges:
               1
     1  C   -0.172096
     2  C   -0.218455
     3  C   -0.171243
     4  C    0.158593
     5  C   -0.174276
     6  C   -0.218765
     7  H    0.225253
     8  H    0.223220
     9  H    0.275408
    10  H    0.275964
    11  H    0.230133
    12  N    0.488086
    13  O   -0.460391
    14  O   -0.460648
    15  C   -0.299172
    16  C   -0.298435
    17  C   -0.476132
    18  H    0.149130
    19  H    0.152676
    20  H    0.145344
    21  H    0.155375
    22  H    0.157521
    23  H    0.155000
    24  H    0.161157
    25  C   -0.298801
    26  C   -0.300838
    27  C   -0.478021
    28  H    0.140956
    29  H    0.154780
    30  H    0.152199
    31  H    0.156407
    32  H    0.160107
    33  H    0.144274
    34  H    0.165687
 Sum of Mulliken charges =  -0.00000

 Dipole moment (field-independent basis, Debye):
    X=             -4.2191    Y=             -1.3952    Z=              2.7801  Tot=              5.2418
 Quadrupole moment (field-independent basis, Debye-Ang):
   XX=           -118.7124   YY=            -89.9485   ZZ=            -94.1753
   XY=             -5.7240   XZ=              8.3926   YZ=             -0.8629

 Normal termination of Gaussian 16 at Wed May  5 23:53:14 2021.
