 Gaussian 16, Revision A.03,
 Gaussian 16:  EM64L-G16RevA.03 25-Dec-2016

 -------------
 #p 6-31g* mp2
 -------------

 ------------------------------------------------------
 Input file generated by CHIRIPA (05-May-2021 14:53:17)
 ------------------------------------------------------
 Symbolic Z-matrix:
 Charge =  0 Multiplicity = 1

                         Standard orientation:
 ---------------------------------------------------------------------
 Center     Atomic      Atomic             Coordinates (Angstroms)
 Number     Number       Type             X           Y           Z
 ---------------------------------------------------------------------
      1          6           0        5.226567    0.014303   -0.109063
      2          6           0        5.619771   -1.457109   -0.244418
      3          6           0        7.115973   -1.690988   -0.033526
      4          1           0        5.797954    0.608260   -0.835477
      5          1           0        5.518050    0.374351    0.887329
      6          1           0        5.326384   -1.814654   -1.239758
      7          1           0        5.047240   -2.047657    0.482272
      8          1           0        7.420479   -1.361071    0.964988
      9          1           0        7.701208   -1.126743   -0.766826
     10          1           0        7.375038   -2.749523   -0.134759
     11          6           0        3.733921    0.264116   -0.317222
     12          6           0        3.340717    1.735528   -0.181868
     13          6           0        1.844515    1.969407   -0.392759
     14          1           0        3.442438   -0.095932   -1.313614
     15          1           0        3.162534   -0.329841    0.409192
     16          1           0        3.913248    2.326076   -0.908558
     17          1           0        3.634104    2.093073    0.813473
     18          1           0        1.259280    1.405162    0.340541
     19          1           0        1.540009    1.639490   -1.391274
     20          1           0        1.585450    3.027942   -0.291526
     21          6           0       -1.655696    0.685872    1.693713
     22          6           0       -2.568293   -0.275741    2.139794
     23          6           0       -3.594272   -0.723379    1.302216
     24          6           0       -3.678510   -0.185579    0.018874
     25          6           0       -2.784603    0.773615   -0.454589
     26          6           0       -1.766569    1.206564    0.400227
     27          1           0       -0.861777    1.027902    2.351060
     28          1           0       -2.484613   -0.681877    3.143834
     29          1           0       -4.314305   -1.466843    1.621948
     30          1           0       -2.893579    1.159934   -1.460720
     31          1           0       -1.059252    1.953469    0.051111
     32          7           0       -4.760462   -0.651697   -0.876957
     33          8           0       -4.813097   -0.162245   -2.003146
     34          8           0       -5.535376   -1.497667   -0.435956
 ---------------------------------------------------------------------

 SCF Done:  E(RHF) =  -669.535043164     A.U. after   15 cycles
 E2 =    -0.2091575899D+01 EUMP2 =    -0.67162661906253D+03

 The electronic state is 1-A.
 Alpha  occ. eigenvalues --  -20.60719 -20.60714 -15.85769 -11.31128 -11.27688
 Alpha  occ. eigenvalues --  -11.27658 -11.27424 -11.26720 -11.26614 -11.22432
 Alpha  occ. eigenvalues --  -11.22200 -11.22035 -11.22018 -11.21885 -11.21420
 Alpha  occ. eigenvalues --   -1.59794  -1.39348  -1.19290  -1.09053  -1.08692
 Alpha  occ. eigenvalues --   -1.04690  -1.04193  -0.96677  -0.95529  -0.87724
 Alpha  occ. eigenvalues --   -0.86079  -0.82357  -0.80283  -0.78825  -0.77400
 Alpha  occ. eigenvalues --   -0.71989  -0.71116  -0.70411  -0.65691  -0.64942
 Alpha  occ. eigenvalues --   -0.64706  -0.62075  -0.61561  -0.60056  -0.58246
 Alpha  occ. eigenvalues --   -0.55962  -0.55203  -0.53479  -0.53211  -0.52959
 Alpha  occ. eigenvalues --   -0.52611  -0.50603  -0.48760  -0.48745  -0.48547
 Alpha  occ. eigenvalues --   -0.47280  -0.46374  -0.46275  -0.44755  -0.44434
 Alpha  occ. eigenvalues --   -0.37268  -0.36274
 Alpha virt. eigenvalues --    0.05106   0.11280   0.16588   0.20760   0.22342
 Alpha virt. eigenvalues --    0.23785   0.25799   0.26012   0.26821   0.27560
 Alpha virt. eigenvalues --    0.28881   0.29569   0.30854   0.31553   0.32260

 Mulliken charges:
               1
     1  C   -0.298865
     2  C   -0.300054
     3  C   -0.476039
     4  H    0.151057
     5  H    0.149391
     6  H    0.153415
     7  H    0.151897
     8  H    0.155160
     9  H    0.155975
    10  H    0.161717
    11  C   -0.298796
    12  C   -0.300188
    13  C   -0.483860
    14  H    0.152126
    15  H    0.148855
    16  H    0.155652
    17  H    0.152189
    18  H    0.150801
    19  H    0.159965
    20  H    0.158688
    21  C   -0.174611
    22  C   -0.218292
    23  C   -0.171527
    24  C    0.158869
    25  C   -0.173558
    26  C   -0.221167
    27  H    0.225105
    28  H    0.222973
    29  H    0.275265
    30  H    0.275479
    31  H    0.235463
    32  N    0.488056
    33  O   -0.460489
    34  O   -0.460652
 Sum of Mulliken charges =  -0.00000

 Dipole moment (field-independent basis, Debye):
    X=              4.0074    Y=              1.6241    Z=              3.0982  Tot=              5.3194
 Quadrupole moment (field-independent basis, Debye-Ang):
   XX=           -123.4815   YY=            -94.1448   ZZ=            -91.3788
   XY=             -5.3087   XZ=            -13.4089   YZ=             -3.2667

 Normal termination of Gaussian 16 at Thu May  6 05:58:59 2021.
