 Gaussian 16, Revision A.03,
 Gaussian 16:  EM64L-G16RevA.03 25-Dec-2016

 -------------
 #p 6-31g* mp2
 -------------

 ------------------------------------------------------
 Input file generated by CHIRIPA (05-May-2021 14:55:22)
 ------------------------------------------------------
 Symbolic Z-matrix:
 Charge =  0 Multiplicity = 1

                         Standard orientation:
 ---------------------------------------------------------------------
 Center     Atomic      Atomic             Coordinates (Angstroms)
 Number     Number       Type             X           Y           Z
 ---------------------------------------------------------------------
      1          6           0        0.983432   -1.879705    1.533542
      2          6           0        1.658977   -2.463161    0.456631
      3          6           0        2.507939   -1.697337   -0.347934
      4          6           0        2.658807   -0.344884   -0.045613
      5          6           0        1.999538    0.265398    1.020319
      6          6           0        1.155564   -0.519685    1.811459
      7          1           0        0.325876   -2.482096    2.153333
      8          1           0        1.527205   -3.519133    0.238446
      9          1           0        3.043094   -2.123469   -1.187838
     10          1           0        2.151002    1.320545    1.213038
     11          1           0        0.632203   -0.063885    2.647153
     12          7           0        3.554924    0.476054   -0.890264
     13          8           0        3.670864    1.665455   -0.602998
     14          8           0        4.124393   -0.085440   -1.823574
     15          6           0       -3.649752    0.008768    0.043528
     16          6           0       -4.570220   -0.403801   -1.105606
     17          6           0       -5.435216   -1.617324   -0.763640
     18          1           0       -3.004746   -0.839435    0.310856
     19          1           0       -4.259026    0.229941    0.930807
     20          1           0       -3.959488   -0.622794   -1.990853
     21          1           0       -5.212978    0.445543   -1.370355
     22          1           0       -6.068737   -1.406626    0.104034
     23          1           0       -4.808124   -2.481033   -0.519990
     24          1           0       -6.085467   -1.895066   -1.599038
     25          6           0       -2.778706    1.220502   -0.283134
     26          6           0       -1.858238    1.633072    0.865999
     27          6           0       -0.993243    2.846595    0.524035
     28          1           0       -2.169433    0.999330   -1.170412
     29          1           0       -3.423712    2.068706   -0.550461
     30          1           0       -1.215480    0.783728    1.130750
     31          1           0       -2.468970    1.852065    1.751248
     32          1           0       -1.620334    3.710303    0.280385
     33          1           0       -0.359721    2.635897   -0.343639
     34          1           0       -0.342990    3.124337    1.359433
 ---------------------------------------------------------------------

 SCF Done:  E(RHF) =  -669.534960538     A.U. after   15 cycles
 E2 =    -0.2093126201D+01 EUMP2 =    -0.67162808673809D+03

 The electronic state is 1-A.
 Alpha  occ. eigenvalues --  -20.60819 -20.60814 -15.85872 -11.31263 -11.27828
 Alpha  occ. eigenvalues --  -11.27814 -11.27579 -11.26854 -11.26832 -11.21915
 Alpha  occ. eigenvalues --  -11.21912 -11.21765 -11.21661 -11.21414 -11.21383
 Alpha  occ. eigenvalues --   -1.59894  -1.39446  -1.19445  -1.08843  -1.08760
 Alpha  occ. eigenvalues --   -1.04857  -1.03863  -0.96316  -0.95658  -0.87328
 Alpha  occ. eigenvalues --   -0.86243  -0.82494  -0.79939  -0.78599  -0.77530
 Alpha  occ. eigenvalues --   -0.72089  -0.71219  -0.70536  -0.65423  -0.65090
 Alpha  occ. eigenvalues --   -0.64840  -0.62237  -0.61240  -0.59691  -0.57939
 Alpha  occ. eigenvalues --   -0.55613  -0.55325  -0.53190  -0.53024  -0.52925
 Alpha  occ. eigenvalues --   -0.52728  -0.50232  -0.48853  -0.48842  -0.48248
 Alpha  occ. eigenvalues --   -0.46960  -0.46135  -0.46047  -0.44844  -0.44124
 Alpha  occ. eigenvalues --   -0.37407  -0.36374
 Alpha virt. eigenvalues --    0.04981   0.11098   0.16404   0.20591   0.22698
 Alpha virt. eigenvalues --    0.23843   0.26152   0.26393   0.26891   0.28299
 Alpha virt. eigenvalues --    0.29002   0.30370   0.31142   0.31443   0.32114

 Mulliken charges:
               1
     1  C   -0.172514
     2  C   -0.218458
     3  C   -0.170907
     4  C    0.157762
     5  C   -0.169726
     6  C   -0.219092
     7  H    0.226408
     8  H    0.223799
     9  H    0.275864
    10  H    0.277875
    11  H    0.226407
    12  N    0.488025
    13  O   -0.459865
    14  O   -0.460271
    15  C   -0.297822
    16  C   -0.300015
    17  C   -0.475548
    18  H    0.145574
    19  H    0.148679
    20  H    0.153302
    21  H    0.153548
    22  H    0.155128
    23  H    0.152808
    24  H    0.161719
    25  C   -0.297417
    26  C   -0.308368
    27  C   -0.477276
    28  H    0.152467
    29  H    0.151194
    30  H    0.153324
    31  H    0.149083
    32  H    0.158744
    33  H    0.162138
    34  H    0.153431
 Sum of Mulliken charges =  -0.00000

 Dipole moment (field-independent basis, Debye):
    X=             -3.1280    Y=             -2.8855    Z=              2.8984  Tot=              5.1489
 Quadrupole moment (field-independent basis, Debye-Ang):
   XX=           -112.0287   YY=            -90.0488   ZZ=            -93.8793
   XY=             -8.7209   XZ=              7.4710   YZ=              1.7824

 Normal termination of Gaussian 16 at Thu May  6 01:29:27 2021.
