 Gaussian 16, Revision A.03,
 Gaussian 16:  EM64L-G16RevA.03 25-Dec-2016

 -------------
 #p 6-31g* mp2
 -------------

 ------------------------------------------------------
 Input file generated by CHIRIPA (05-May-2021 14:51:11)
 ------------------------------------------------------
 Symbolic Z-matrix:
 Charge =  0 Multiplicity = 1

                         Standard orientation:
 ---------------------------------------------------------------------
 Center     Atomic      Atomic             Coordinates (Angstroms)
 Number     Number       Type             X           Y           Z
 ---------------------------------------------------------------------
      1          6           0        2.394103    1.570325   -0.292023
      2          6           0        1.519793    2.455275    0.597038
      3          6           0        1.309137    3.853347    0.014960
      4          1           0        3.367392    2.057943   -0.439955
      5          1           0        1.931045    1.489068   -1.285184
      6          1           0        1.983654    2.533711    1.588651
      7          1           0        0.548541    1.965404    0.743028
      8          1           0        0.824941    3.793642   -0.965137
      9          1           0        2.268207    4.365178   -0.114709
     10          1           0        0.681347    4.469102    0.666563
     11          6           0        2.613837    0.169524    0.276485
     12          6           0        3.488147   -0.715426   -0.612576
     13          6           0        3.698803   -2.113497   -0.030498
     14          1           0        3.076895    0.250781    1.269646
     15          1           0        1.640548   -0.318093    0.424417
     16          1           0        4.459399   -0.225555   -0.758566
     17          1           0        3.024286   -0.793862   -1.604189
     18          1           0        2.739733   -2.625328    0.099171
     19          1           0        4.182999   -2.053792    0.949599
     20          1           0        4.326592   -2.729253   -0.682101
     21          6           0       -2.991824   -0.380966    0.333882
     22          6           0       -3.803511    0.430323   -0.676542
     23          6           0       -4.775020    1.404059   -0.008859
     24          1           0       -3.679825   -0.936448    0.985832
     25          1           0       -2.433752    0.307906    0.983041
     26          1           0       -4.358810   -0.259909   -1.324493
     27          1           0       -3.113493    0.983789   -1.326286
     28          1           0       -4.233825    2.115464    0.623289
     29          1           0       -5.486218    0.864700    0.625091
     30          1           0       -5.344961    1.973673   -0.749513
     31          6           0       -2.016116   -1.358883   -0.318345
     32          6           0       -1.204428   -2.170172    0.692081
     33          6           0       -0.232920   -3.143908    0.024397
     34          1           0       -2.574188   -2.047754   -0.967503
     35          1           0       -1.328115   -0.803401   -0.970295
     36          1           0       -1.894447   -2.723637    1.341823
     37          1           0       -0.649131   -1.479940    1.340031
     38          1           0        0.478278   -2.604550   -0.609553
     39          1           0       -0.774115   -3.855314   -0.607751
     40          1           0        0.337021   -3.713523    0.765050
 ---------------------------------------------------------------------

 SCF Done:  E(RHF) =  -470.732739124     A.U. after   11 cycles
 E2 =    -0.1584291469D+01 EUMP2 =    -0.47231703059346D+03

 The electronic state is 1-A.
 Alpha  occ. eigenvalues --  -11.21682 -11.21661 -11.21649 -11.21594 -11.21481
 Alpha  occ. eigenvalues --  -11.21434 -11.21419 -11.21370 -11.21154 -11.21117
 Alpha  occ. eigenvalues --  -11.21102 -11.20937  -1.08519  -1.08441  -1.03625
 Alpha  occ. eigenvalues --   -1.03517  -0.96075  -0.95963  -0.87108  -0.86965
 Alpha  occ. eigenvalues --   -0.79690  -0.79579  -0.78315  -0.78272  -0.65370
 Alpha  occ. eigenvalues --   -0.64892  -0.61247  -0.60725  -0.59434  -0.59338
 Alpha  occ. eigenvalues --   -0.57658  -0.57600  -0.55499  -0.55142  -0.52792
 Alpha  occ. eigenvalues --   -0.52669  -0.52472  -0.52370  -0.50169  -0.49743
 Alpha  occ. eigenvalues --   -0.48016  -0.47876  -0.46746  -0.46547  -0.46009
 Alpha  occ. eigenvalues --   -0.45781  -0.45764  -0.45557  -0.43846  -0.43794
 Alpha virt. eigenvalues --    0.19076   0.22429   0.23834   0.24641   0.25852
 Alpha virt. eigenvalues --    0.26640   0.26885   0.27915   0.28500   0.29903
 Alpha virt. eigenvalues --    0.30989   0.31220   0.31537   0.31725   0.32187

 Mulliken charges:
               1
     1  C   -0.297868
     2  C   -0.300371
     3  C   -0.475683
     4  H    0.150104
     5  H    0.149028
     6  H    0.152289
     7  H    0.151227
     8  H    0.155117
     9  H    0.155544
    10  H    0.160325
    11  C   -0.305352
    12  C   -0.299344
    13  C   -0.483398
    14  H    0.149751
    15  H    0.155770
    16  H    0.152129
    17  H    0.150874
    18  H    0.164545
    19  H    0.154325
    20  H    0.159707
    21  C   -0.299176
    22  C   -0.299619
    23  C   -0.475777
    24  H    0.150083
    25  H    0.150051
    26  H    0.152075
    27  H    0.151819
    28  H    0.155413
    29  H    0.155271
    30  H    0.160452
    31  C   -0.299238
    32  C   -0.302662
    33  C   -0.481031
    34  H    0.150065
    35  H    0.149429
    36  H    0.152957
    37  H    0.154210
    38  H    0.159022
    39  H    0.156160
    40  H    0.161779
 Sum of Mulliken charges =  -0.00000

 Dipole moment (field-independent basis, Debye):
    X=             -0.0426    Y=             -0.0272    Z=              0.0124  Tot=              0.0520
 Quadrupole moment (field-independent basis, Debye-Ang):
   XX=            -84.2513   YY=            -85.6791   ZZ=            -84.7532
   XY=              1.7043   XZ=              0.6074   YZ=              0.2024

 Normal termination of Gaussian 16 at Thu May  6 07:00:10 2021.
