 Gaussian 16, Revision A.03,
 Gaussian 16:  EM64L-G16RevA.03 25-Dec-2016

 -------------
 #p 6-31g* mp2
 -------------

 ------------------------------------------------------
 Input file generated by CHIRIPA (05-May-2021 14:57:25)
 ------------------------------------------------------
 Symbolic Z-matrix:
 Charge =  0 Multiplicity = 1

                         Standard orientation:
 ---------------------------------------------------------------------
 Center     Atomic      Atomic             Coordinates (Angstroms)
 Number     Number       Type             X           Y           Z
 ---------------------------------------------------------------------
      1          6           0       -4.933487   -1.912460    0.007934
      2          6           0       -3.575162   -1.873428    0.339521
      3          6           0       -2.872690   -0.664930    0.314721
      4          6           0       -3.562956    0.490624   -0.047932
      5          6           0       -4.915951    0.484152   -0.383571
      6          6           0       -5.598374   -0.735621   -0.351920
      7          1           0       -5.471397   -2.855629    0.029860
      8          1           0       -3.056229   -2.785808    0.619370
      9          1           0       -1.820822   -0.606109    0.566775
     10          1           0       -5.406135    1.410187   -0.658520
     11          1           0       -6.653236   -0.762935   -0.609922
     12          7           0       -2.829893    1.775974   -0.077814
     13          8           0       -3.460911    2.780064   -0.400704
     14          8           0       -1.638182    1.755004    0.222221
     15          6           0        1.556419   -1.602526    0.339634
     16          6           0        1.654583   -0.308899    0.862525
     17          6           0        2.828443    0.433747    0.704166
     18          6           0        3.889439   -0.150808    0.014331
     19          6           0        3.822288   -1.437350   -0.518202
     20          6           0        2.638677   -2.161637   -0.347849
     21          1           0        0.640748   -2.172299    0.467310
     22          1           0        0.815685    0.127857    1.396885
     23          1           0        2.931485    1.437285    1.098768
     24          1           0        4.675388   -1.845931   -1.046122
     25          1           0        2.565277   -3.166068   -0.755003
     26          7           0        5.137314    0.625679   -0.159666
     27          8           0        6.057831    0.088060   -0.771426
     28          8           0        5.171252    1.757207    0.319010
 ---------------------------------------------------------------------

 SCF Done:  E(RHF) =  -868.337527807     A.U. after   16 cycles
 E2 =    -0.2600091655D+01 EUMP2 =    -0.87093761946257D+03

 The electronic state is 1-A.
 Alpha  occ. eigenvalues --  -20.61606 -20.61566 -20.60474 -20.60458 -15.86639
 Alpha  occ. eigenvalues --  -15.85519 -11.32012 -11.30915 -11.28690 -11.28512
 Alpha  occ. eigenvalues --  -11.28277 -11.27644 -11.27518 -11.27501 -11.27387
 Alpha  occ. eigenvalues --  -11.27364 -11.26611 -11.26440  -1.60648  -1.59542
 Alpha  occ. eigenvalues --   -1.40208  -1.39094  -1.20174  -1.19090  -1.09554
 Alpha  occ. eigenvalues --   -1.08521  -1.05594  -1.04471  -0.96399  -0.95348
 Alpha  occ. eigenvalues --   -0.86985  -0.85899  -0.83246  -0.82150  -0.78309
 Alpha  occ. eigenvalues --   -0.77160  -0.72864  -0.71962  -0.71742  -0.71292
 Alpha  occ. eigenvalues --   -0.70861  -0.70298  -0.65835  -0.65608  -0.64757
 Alpha  occ. eigenvalues --   -0.64482  -0.62957  -0.61793  -0.56062  -0.55120
 Alpha  occ. eigenvalues --   -0.53895  -0.53696  -0.52819  -0.52563  -0.49621
 Alpha  occ. eigenvalues --   -0.49592  -0.48503  -0.48489  -0.45609  -0.44491
 Alpha  occ. eigenvalues --   -0.38123  -0.37199  -0.37123  -0.36040
 Alpha virt. eigenvalues --    0.04255   0.05332   0.10468   0.11533   0.15752
 Alpha virt. eigenvalues --    0.16797   0.18300   0.22094   0.25097   0.26335
 Alpha virt. eigenvalues --    0.27814   0.29435   0.30491   0.31587   0.31680

 Mulliken charges:
               1
     1  C   -0.169878
     2  C   -0.219014
     3  C   -0.171847
     4  C    0.159008
     5  C   -0.169236
     6  C   -0.218164
     7  H    0.228066
     8  H    0.220385
     9  H    0.269095
    10  H    0.278303
    11  H    0.226624
    12  N    0.490122
    13  O   -0.454697
    14  O   -0.468289
    15  C   -0.172598
    16  C   -0.217117
    17  C   -0.169964
    18  C    0.158952
    19  C   -0.171918
    20  C   -0.217635
    21  H    0.211716
    22  H    0.235113
    23  H    0.280121
    24  H    0.274635
    25  H    0.220429
    26  N    0.487912
    27  O   -0.461827
    28  O   -0.458298
 Sum of Mulliken charges =  -0.00000

 Dipole moment (field-independent basis, Debye):
    X=             -7.2397    Y=             -7.0111    Z=              0.6884  Tot=             10.1017
 Quadrupole moment (field-independent basis, Debye-Ang):
   XX=           -115.4630   YY=           -105.2278   ZZ=           -104.6251
   XY=              1.2627   XZ=              2.6381   YZ=              1.6461

 Normal termination of Gaussian 16 at Wed May  5 22:47:24 2021.
