 Gaussian 16, Revision A.03,
 Gaussian 16:  EM64L-G16RevA.03 25-Dec-2016

 -------------
 #p 6-31g* mp2
 -------------

 ------------------------------------------------------
 Input file generated by CHIRIPA (05-May-2021 14:55:20)
 ------------------------------------------------------
 Symbolic Z-matrix:
 Charge =  0 Multiplicity = 1

                         Standard orientation:
 ---------------------------------------------------------------------
 Center     Atomic      Atomic             Coordinates (Angstroms)
 Number     Number       Type             X           Y           Z
 ---------------------------------------------------------------------
      1          6           0        2.517772    2.049694    1.355428
      2          6           0        3.392359    1.741019    0.308366
      3          6           0        3.237859    0.557996   -0.420422
      4          6           0        2.193213   -0.297404   -0.073586
      5          6           0        1.305509   -0.017850    0.964258
      6          6           0        1.478969    1.170824    1.679461
      7          1           0        2.645155    2.970890    1.916291
      8          1           0        4.200000    2.421690    0.054499
      9          1           0        3.900526    0.294336   -1.235759
     10          1           0        0.509828   -0.716102    1.193942
     11          1           0        0.798243    1.407956    2.492126
     12          7           0        2.019614   -1.552809   -0.837931
     13          8           0        1.091330   -2.289763   -0.512626
     14          8           0        2.815119   -1.776069   -1.747856
     15          6           0       -2.865526   -0.639879   -0.175950
     16          6           0       -2.745983   -1.442874    1.119771
     17          6           0       -2.790808   -2.953148    0.885551
     18          1           0       -3.804685   -0.906520   -0.679763
     19          1           0       -2.052663   -0.930732   -0.855695
     20          1           0       -3.558019   -1.149593    1.797413
     21          1           0       -1.807090   -1.174149    1.620653
     22          1           0       -1.971816   -3.265754    0.229707
     23          1           0       -3.732694   -3.241058    0.407471
     24          1           0       -2.703749   -3.507865    1.825002
     25          6           0       -2.822343    0.871554    0.041840
     26          6           0       -2.941886    1.674549   -1.253882
     27          6           0       -2.897061    3.184822   -1.019661
     28          1           0       -3.635206    1.162407    0.721584
     29          1           0       -1.883183    1.138195    0.545653
     30          1           0       -3.880779    1.405824   -1.754764
     31          1           0       -2.129850    1.381268   -1.931523
     32          1           0       -1.955176    3.472733   -0.541581
     33          1           0       -3.716053    3.497429   -0.363817
     34          1           0       -2.984121    3.739540   -1.959112
 ---------------------------------------------------------------------

 SCF Done:  E(RHF) =  -669.536070351     A.U. after   15 cycles
 E2 =    -0.2092935323D+01 EUMP2 =    -0.67162900567458D+03

 The electronic state is 1-A.
 Alpha  occ. eigenvalues --  -20.60932 -20.60925 -15.85970 -11.31284 -11.27858
 Alpha  occ. eigenvalues --  -11.27838 -11.27589 -11.26863 -11.26853 -11.21635
 Alpha  occ. eigenvalues --  -11.21591 -11.21453 -11.21205 -11.21191 -11.20574
 Alpha  occ. eigenvalues --   -1.59993  -1.39549  -1.19461  -1.08862  -1.08392
 Alpha  occ. eigenvalues --   -1.04857  -1.03452  -0.95869  -0.95704  -0.86884
 Alpha  occ. eigenvalues --   -0.86254  -0.82538  -0.79541  -0.78217  -0.77589
 Alpha  occ. eigenvalues --   -0.72192  -0.71309  -0.70575  -0.65131  -0.65112
 Alpha  occ. eigenvalues --   -0.64779  -0.62215  -0.60814  -0.59260  -0.57495
 Alpha  occ. eigenvalues --   -0.55358  -0.55143  -0.53183  -0.52954  -0.52565
 Alpha  occ. eigenvalues --   -0.52286  -0.49782  -0.48950  -0.48940  -0.47842
 Alpha  occ. eigenvalues --   -0.46579  -0.45776  -0.45647  -0.44926  -0.43712
 Alpha  occ. eigenvalues --   -0.37437  -0.36438
 Alpha virt. eigenvalues --    0.04889   0.11168   0.16311   0.19737   0.23049
 Alpha virt. eigenvalues --    0.23962   0.25493   0.27144   0.27846   0.28179
 Alpha virt. eigenvalues --    0.29660   0.30444   0.31454   0.31785   0.32134

 Mulliken charges:
               1
     1  C   -0.170607
     2  C   -0.218882
     3  C   -0.169937
     4  C    0.157094
     5  C   -0.178242
     6  C   -0.222589
     7  H    0.226312
     8  H    0.223970
     9  H    0.275909
    10  H    0.289185
    11  H    0.224894
    12  N    0.488640
    13  O   -0.463032
    14  O   -0.458950
    15  C   -0.303495
    16  C   -0.297349
    17  C   -0.481791
    18  H    0.151122
    19  H    0.161299
    20  H    0.150284
    21  H    0.137588
    22  H    0.175931
    23  H    0.153760
    24  H    0.157512
    25  C   -0.298877
    26  C   -0.299335
    27  C   -0.475522
    28  H    0.148023
    29  H    0.141716
    30  H    0.153495
    31  H    0.154456
    32  H    0.152109
    33  H    0.154372
    34  H    0.160942
 Sum of Mulliken charges =  -0.00000

 Dipole moment (field-independent basis, Debye):
    X=              0.6958    Y=              4.2953    Z=              2.5396  Tot=              5.0382
 Quadrupole moment (field-independent basis, Debye-Ang):
   XX=            -88.1653   YY=            -98.7519   ZZ=            -94.1644
   XY=             11.0137   XZ=              3.6115   YZ=             -1.6511

 Normal termination of Gaussian 16 at Thu May  6 19:08:00 2021.
