 Gaussian 16, Revision A.03,
 Gaussian 16:  EM64L-G16RevA.03 25-Dec-2016

 -------------
 #p 6-31g* mp2
 -------------

 ------------------------------------------------------
 Input file generated by CHIRIPA (05-May-2021 14:55:22)
 ------------------------------------------------------
 Symbolic Z-matrix:
 Charge =  0 Multiplicity = 1

                         Standard orientation:
 ---------------------------------------------------------------------
 Center     Atomic      Atomic             Coordinates (Angstroms)
 Number     Number       Type             X           Y           Z
 ---------------------------------------------------------------------
      1          6           0       -5.471041    0.242135   -0.103802
      2          6           0       -5.015937   -0.999068    0.353165
      3          6           0       -3.647305   -1.280783    0.398236
      4          6           0       -2.757631   -0.293768   -0.023156
      5          6           0       -3.180043    0.952386   -0.483545
      6          6           0       -4.553260    1.212190   -0.519964
      7          1           0       -6.536008    0.452467   -0.135454
      8          1           0       -5.726410   -1.754324    0.676987
      9          1           0       -3.267608   -2.233286    0.747503
     10          1           0       -2.447703    1.685260   -0.799760
     11          1           0       -4.903831    2.177004   -0.875322
     12          7           0       -1.306295   -0.580409    0.019980
     13          8           0       -0.542842    0.306040   -0.356828
     14          8           0       -0.959672   -1.686100    0.429781
     15          6           0        3.864439   -0.415979    0.256640
     16          6           0        4.795239   -1.269596   -0.605295
     17          6           0        4.841603   -2.730640   -0.156969
     18          1           0        4.192957   -0.469492    1.303615
     19          1           0        2.852365   -0.842667    0.224414
     20          1           0        5.804958   -0.840628   -0.572562
     21          1           0        4.464582   -1.213890   -1.650369
     22          1           0        3.844801   -3.180662   -0.206640
     23          1           0        5.192793   -2.805279    0.877291
     24          1           0        5.512908   -3.322726   -0.786765
     25          6           0        3.807443    1.047085   -0.179162
     26          6           0        2.876642    1.900703    0.682773
     27          6           0        2.830279    3.361746    0.234447
     28          1           0        4.819517    1.473774   -0.146936
     29          1           0        3.478925    1.100599   -1.226137
     30          1           0        3.207299    1.844998    1.727846
     31          1           0        1.866924    1.471735    0.650040
     32          1           0        2.479089    3.436386   -0.799813
     33          1           0        3.827081    3.811770    0.284118
     34          1           0        2.158974    3.953833    0.864243
 ---------------------------------------------------------------------

 SCF Done:  E(RHF) =  -669.536725519     A.U. after   15 cycles
 E2 =    -0.2091173262D+01 EUMP2 =    -0.67162789878096D+03

 The electronic state is 1-A.
 Alpha  occ. eigenvalues --  -20.61100 -20.61093 -15.86113 -11.31377 -11.27931
 Alpha  occ. eigenvalues --  -11.27928 -11.27660 -11.26926 -11.26917 -11.20425
 Alpha  occ. eigenvalues --  -11.20069 -11.20007 -11.20001 -11.19970 -11.19882
 Alpha  occ. eigenvalues --   -1.60147  -1.39705  -1.19539  -1.08955  -1.07060
 Alpha  occ. eigenvalues --   -1.04926  -1.02272  -0.95806  -0.94755  -0.86329
 Alpha  occ. eigenvalues --   -0.85779  -0.82642  -0.78329  -0.77700  -0.76857
 Alpha  occ. eigenvalues --   -0.72337  -0.71452  -0.70647  -0.65197  -0.64929
 Alpha  occ. eigenvalues --   -0.63666  -0.62273  -0.59656  -0.58133  -0.56367
 Alpha  occ. eigenvalues --   -0.55434  -0.54038  -0.53261  -0.53017  -0.51500
 Alpha  occ. eigenvalues --   -0.51188  -0.49135  -0.49091  -0.48676  -0.46663
 Alpha  occ. eigenvalues --   -0.45397  -0.45060  -0.44444  -0.44182  -0.42504
 Alpha  occ. eigenvalues --   -0.37515  -0.36524
 Alpha virt. eigenvalues --    0.04806   0.11132   0.16303   0.21262   0.24235
 Alpha virt. eigenvalues --    0.25476   0.27197   0.27910   0.28223   0.28971
 Alpha virt. eigenvalues --    0.29234   0.30863   0.32317   0.32613   0.32927

 Mulliken charges:
               1
     1  C   -0.170382
     2  C   -0.218620
     3  C   -0.170415
     4  C    0.157620
     5  C   -0.170666
     6  C   -0.218580
     7  H    0.226327
     8  H    0.224113
     9  H    0.276026
    10  H    0.276064
    11  H    0.224200
    12  N    0.490925
    13  O   -0.462497
    14  O   -0.458734
    15  C   -0.303766
    16  C   -0.298367
    17  C   -0.475829
    18  H    0.144349
    19  H    0.169045
    20  H    0.146919
    21  H    0.150814
    22  H    0.159749
    23  H    0.152539
    24  H    0.155304
    25  C   -0.294917
    26  C   -0.311170
    27  C   -0.474007
    28  H    0.142068
    29  H    0.149614
    30  H    0.144807
    31  H    0.179620
    32  H    0.153549
    33  H    0.149954
    34  H    0.154343
 Sum of Mulliken charges =  -0.00000

 Dipole moment (field-independent basis, Debye):
    X=             -5.5862    Y=              0.8596    Z=             -0.1707  Tot=              5.6545
 Quadrupole moment (field-independent basis, Debye-Ang):
   XX=            -67.9946   YY=            -93.2251   ZZ=            -94.7146
   XY=             -0.3708   XZ=              0.5347   YZ=             -1.7466

 Normal termination of Gaussian 16 at Thu May  6 10:58:58 2021.
