 Gaussian 16, Revision A.03,
 Gaussian 16:  EM64L-G16RevA.03 25-Dec-2016

 -------------
 #p 6-31g* mp2
 -------------

 ------------------------------------------------------
 Input file generated by CHIRIPA (05-May-2021 14:53:17)
 ------------------------------------------------------
 Symbolic Z-matrix:
 Charge =  0 Multiplicity = 1

                         Standard orientation:
 ---------------------------------------------------------------------
 Center     Atomic      Atomic             Coordinates (Angstroms)
 Number     Number       Type             X           Y           Z
 ---------------------------------------------------------------------
      1          6           0       -4.330442    0.310890    0.274049
      2          6           0       -3.231528   -0.748835    0.359806
      3          6           0       -1.897303   -0.179156    0.842614
      4          1           0       -4.005823    1.112608   -0.403310
      5          1           0       -4.463692    0.771745    1.262610
      6          1           0       -3.101349   -1.208520   -0.628303
      7          1           0       -3.558880   -1.548218    1.036891
      8          1           0       -2.004836    0.262566    1.838566
      9          1           0       -1.544705    0.604194    0.163910
     10          1           0       -1.125997   -0.953779    0.896517
     11          6           0       -5.670247   -0.243291   -0.207130
     12          6           0       -6.769162    0.816434   -0.292887
     13          6           0       -8.103387    0.246754   -0.775695
     14          1           0       -5.536998   -0.704146   -1.195691
     15          1           0       -5.994867   -1.045009    0.470229
     16          1           0       -6.441809    1.615817   -0.969972
     17          1           0       -6.899341    1.276119    0.695222
     18          1           0       -8.455985   -0.536595   -0.096991
     19          1           0       -7.995853   -0.194968   -1.771646
     20          1           0       -8.874693    1.021377   -0.829598
     21          6           0        6.235084    0.811487   -0.517714
     22          6           0        5.916704   -0.534372   -0.727043
     23          6           0        4.629727   -1.009668   -0.458095
     24          6           0        3.681402   -0.107410    0.021383
     25          6           0        3.967926    1.239187    0.240177
     26          6           0        5.261395    1.692418   -0.035622
     27          1           0        7.237361    1.172139   -0.729300
     28          1           0        6.670869   -1.220786   -1.101363
     29          1           0        4.356172   -2.046572   -0.611119
     30          1           0        3.194906    1.899498    0.614140
     31          1           0        5.505816    2.738155    0.127892
     32          7           0        2.315501   -0.598906    0.309732
     33          8           0        1.497949    0.216197    0.731460
     34          8           0        2.088322   -1.789936    0.108554
 ---------------------------------------------------------------------

 SCF Done:  E(RHF) =  -669.535883645     A.U. after   15 cycles
 E2 =    -0.2091268025D+01 EUMP2 =    -0.67162715166986D+03

 The electronic state is 1-A.
 Alpha  occ. eigenvalues --  -20.60957 -20.60951 -15.85971 -11.31301 -11.27861
 Alpha  occ. eigenvalues --  -11.27858 -11.27599 -11.26869 -11.26859 -11.20934
 Alpha  occ. eigenvalues --  -11.20536 -11.20522 -11.20297 -11.20125 -11.18964
 Alpha  occ. eigenvalues --   -1.60009  -1.39564  -1.19467  -1.08872  -1.07427
 Alpha  occ. eigenvalues --   -1.04863  -1.02394  -0.95717  -0.94796  -0.86264
 Alpha  occ. eigenvalues --   -0.85804  -0.82544  -0.78505  -0.77600  -0.77182
 Alpha  occ. eigenvalues --   -0.72179  -0.71320  -0.70576  -0.65121  -0.64866
 Alpha  occ. eigenvalues --   -0.64078  -0.62210  -0.59813  -0.58270  -0.56395
 Alpha  occ. eigenvalues --   -0.55367  -0.54120  -0.53195  -0.52955  -0.51498
 Alpha  occ. eigenvalues --   -0.51233  -0.48954  -0.48949  -0.48676  -0.46787
 Alpha  occ. eigenvalues --   -0.45598  -0.44980  -0.44707  -0.44622  -0.42560
 Alpha  occ. eigenvalues --   -0.37447  -0.36464
 Alpha virt. eigenvalues --    0.04931   0.11191   0.16428   0.21330   0.23765
 Alpha virt. eigenvalues --    0.25499   0.27246   0.27575   0.28202   0.28412
 Alpha virt. eigenvalues --    0.29274   0.30898   0.32400   0.32499   0.32663

 Mulliken charges:
               1
     1  C   -0.296713
     2  C   -0.301944
     3  C   -0.470707
     4  H    0.146993
     5  H    0.146948
     6  H    0.148759
     7  H    0.147172
     8  H    0.146006
     9  H    0.153060
    10  H    0.181209
    11  C   -0.297080
    12  C   -0.298709
    13  C   -0.475090
    14  H    0.148047
    15  H    0.148256
    16  H    0.150499
    17  H    0.150728
    18  H    0.154435
    19  H    0.154280
    20  H    0.157962
    21  C   -0.170597
    22  C   -0.218595
    23  C   -0.170678
    24  C    0.158305
    25  C   -0.170907
    26  C   -0.218562
    27  H    0.225995
    28  H    0.223816
    29  H    0.275834
    30  H    0.276002
    31  H    0.223864
    32  N    0.489010
    33  O   -0.457071
    34  O   -0.460528
 Sum of Mulliken charges =  -0.00000

 Dipole moment (field-independent basis, Debye):
    X=              5.2757    Y=              1.7053    Z=             -0.9945  Tot=              5.6329
 Quadrupole moment (field-independent basis, Debye-Ang):
   XX=            -62.2523   YY=            -91.0827   ZZ=            -94.5084
   XY=              4.4496   XZ=             -4.8402   YZ=              1.3777

 Normal termination of Gaussian 16 at Thu May  6 02:47:58 2021.
