 Gaussian 16, Revision A.03,
 Gaussian 16:  EM64L-G16RevA.03 25-Dec-2016

 -------------
 #p 6-31g* mp2
 -------------

 ------------------------------------------------------
 Input file generated by CHIRIPA (05-May-2021 14:53:18)
 ------------------------------------------------------
 Symbolic Z-matrix:
 Charge =  0 Multiplicity = 1

                         Standard orientation:
 ---------------------------------------------------------------------
 Center     Atomic      Atomic             Coordinates (Angstroms)
 Number     Number       Type             X           Y           Z
 ---------------------------------------------------------------------
      1          6           0       -3.916169    1.140197   -0.027155
      2          6           0       -2.451726    1.579940   -0.022826
      3          6           0       -2.288084    3.092034   -0.179628
      4          1           0       -4.387520    1.466214   -0.964431
      5          1           0       -4.448377    1.653761    0.785496
      6          1           0       -1.922127    1.064648   -0.834377
      7          1           0       -1.983757    1.252670    0.914466
      8          1           0       -2.791247    3.620653    0.636453
      9          1           0       -2.729268    3.431562   -1.122326
     10          1           0       -1.233415    3.384439   -0.173899
     11          6           0       -4.096047   -0.368799    0.128742
     12          6           0       -5.560490   -0.808542    0.124413
     13          6           0       -5.724132   -2.320636    0.281216
     14          1           0       -3.563839   -0.882363   -0.683909
     15          1           0       -3.624696   -0.694816    1.066018
     16          1           0       -6.028459   -0.481272   -0.812878
     17          1           0       -6.090089   -0.293250    0.935964
     18          1           0       -5.282949   -2.660164    1.223913
     19          1           0       -5.220969   -2.849255   -0.534866
     20          1           0       -6.778801   -2.613041    0.275487
     21          6           0        0.670445   -0.740451   -0.392956
     22          6           0        1.581378   -1.801675   -0.415938
     23          6           0        2.946320   -1.570085   -0.221394
     24          6           0        3.367531   -0.258875   -0.005529
     25          6           0        2.484549    0.819467    0.022992
     26          6           0        1.124137    0.564431   -0.173951
     27          1           0       -0.388115   -0.929463   -0.545014
     28          1           0        1.231883   -2.816093   -0.585804
     29          1           0        3.673243   -2.373102   -0.234223
     30          1           0        2.862973    1.819848    0.194600
     31          1           0        0.418971    1.390535   -0.155582
     32          7           0        4.810135   -0.001290    0.201695
     33          8           0        5.155868    1.163040    0.389949
     34          8           0        5.567800   -0.968604    0.171941
 ---------------------------------------------------------------------

 SCF Done:  E(RHF) =  -669.534827539     A.U. after   15 cycles
 E2 =    -0.2092736840D+01 EUMP2 =    -0.67162756437931D+03

 The electronic state is 1-A.
 Alpha  occ. eigenvalues --  -20.60678 -20.60673 -15.85729 -11.31067 -11.27636
 Alpha  occ. eigenvalues --  -11.27616 -11.27315 -11.26640 -11.26549 -11.23028
 Alpha  occ. eigenvalues --  -11.22531 -11.22481 -11.22432 -11.22329 -11.21824
 Alpha  occ. eigenvalues --   -1.59754  -1.39308  -1.19230  -1.09565  -1.08623
 Alpha  occ. eigenvalues --   -1.04700  -1.04563  -0.97046  -0.95469  -0.88055
 Alpha  occ. eigenvalues --   -0.86039  -0.82303  -0.80754  -0.79389  -0.77351
 Alpha  occ. eigenvalues --   -0.71948  -0.71077  -0.70335  -0.66176  -0.64878
 Alpha  occ. eigenvalues --   -0.64697  -0.62098  -0.61979  -0.60350  -0.58646
 Alpha  occ. eigenvalues --   -0.56291  -0.55128  -0.53745  -0.53488  -0.52963
 Alpha  occ. eigenvalues --   -0.52657  -0.50963  -0.49024  -0.48705  -0.48693
 Alpha  occ. eigenvalues --   -0.47751  -0.46877  -0.46796  -0.44881  -0.44720
 Alpha  occ. eigenvalues --   -0.37199  -0.36233
 Alpha virt. eigenvalues --    0.05168   0.11351   0.16668   0.19691   0.22128
 Alpha virt. eigenvalues --    0.22899   0.24424   0.25734   0.25891   0.28507
 Alpha virt. eigenvalues --    0.29568   0.30193   0.30697   0.31297   0.32434

 Mulliken charges:
               1
     1  C   -0.297112
     2  C   -0.313360
     3  C   -0.478836
     4  H    0.153477
     5  H    0.154491
     6  H    0.146933
     7  H    0.154812
     8  H    0.162318
     9  H    0.161316
    10  H    0.156949
    11  C   -0.301036
    12  C   -0.300341
    13  C   -0.476508
    14  H    0.144607
    15  H    0.150753
    16  H    0.154174
    17  H    0.154950
    18  H    0.156048
    19  H    0.154430
    20  H    0.163639
    21  C   -0.177675
    22  C   -0.218871
    23  C   -0.171322
    24  C    0.158589
    25  C   -0.173014
    26  C   -0.227249
    27  H    0.230123
    28  H    0.222919
    29  H    0.275008
    30  H    0.275195
    31  H    0.238184
    32  N    0.488016
    33  O   -0.460755
    34  O   -0.460851
 Sum of Mulliken charges =  -0.00000

 Dipole moment (field-independent basis, Debye):
    X=             -5.4560    Y=             -0.8180    Z=             -0.6866  Tot=              5.5595
 Quadrupole moment (field-independent basis, Debye-Ang):
   XX=           -128.3058   YY=            -90.2525   ZZ=            -94.5365
   XY=             -3.4026   XZ=             -2.6858   YZ=              0.9894

 Normal termination of Gaussian 16 at Thu May  6 06:02:17 2021.
