 Gaussian 16, Revision A.03,
 Gaussian 16:  EM64L-G16RevA.03 25-Dec-2016

 -------------
 #p 6-31g* mp2
 -------------

 ------------------------------------------------------
 Input file generated by CHIRIPA (05-May-2021 14:53:16)
 ------------------------------------------------------
 Symbolic Z-matrix:
 Charge =  0 Multiplicity = 1

                         Standard orientation:
 ---------------------------------------------------------------------
 Center     Atomic      Atomic             Coordinates (Angstroms)
 Number     Number       Type             X           Y           Z
 ---------------------------------------------------------------------
      1          6           0        3.943445   -0.226489   -0.480767
      2          6           0        4.026873   -1.507571    0.349808
      3          6           0        5.232319   -2.373197   -0.018138
      4          1           0        3.895710   -0.490267   -1.546172
      5          1           0        4.867299    0.352256   -0.343138
      6          1           0        3.102555   -2.083062    0.211737
      7          1           0        4.074221   -1.240718    1.413370
      8          1           0        6.164839   -1.820964    0.136927
      9          1           0        5.187652   -2.668094   -1.071534
     10          1           0        5.272542   -3.283816    0.587680
     11          6           0        2.743593    0.649402   -0.124540
     12          6           0        2.660165    1.930483   -0.955115
     13          6           0        1.454719    2.796110   -0.587168
     14          1           0        1.819738    0.070657   -0.262169
     15          1           0        2.791328    0.913180    0.940865
     16          1           0        2.612816    1.663631   -2.018676
     17          1           0        3.584482    2.505974   -0.817043
     18          1           0        1.499385    3.091006    0.466227
     19          1           0        0.522198    2.243877   -0.742234
     20          1           0        1.414496    3.706729   -1.192986
     21          6           0       -1.351375    0.958742    2.110798
     22          6           0       -1.638964    1.665227    0.938325
     23          6           0       -2.336910    1.052557   -0.106689
     24          6           0       -2.734008   -0.273859    0.055243
     25          6           0       -2.462526   -1.004244    1.211151
     26          6           0       -1.763348   -0.371394    2.243236
     27          1           0       -0.808715    1.442516    2.917569
     28          1           0       -1.320256    2.698335    0.832700
     29          1           0       -2.572831    1.576115   -1.025192
     30          1           0       -2.793250   -2.032957    1.287225
     31          1           0       -1.541394   -0.922510    3.152660
     32          7           0       -3.473545   -0.933146   -1.044224
     33          8           0       -3.812397   -2.102683   -0.876893
     34          8           0       -3.700339   -0.267874   -2.052497
 ---------------------------------------------------------------------

 SCF Done:  E(RHF) =  -669.534515320     A.U. after   15 cycles
 E2 =    -0.2092693253D+01 EUMP2 =    -0.67162720857323D+03

 The electronic state is 1-A.
 Alpha  occ. eigenvalues --  -20.60786 -20.60781 -15.85839 -11.31211 -11.27750
 Alpha  occ. eigenvalues --  -11.27743 -11.27478 -11.26791 -11.26730 -11.22054
 Alpha  occ. eigenvalues --  -11.21881 -11.21766 -11.21694 -11.21660 -11.21283
 Alpha  occ. eigenvalues --   -1.59862  -1.39415  -1.19374  -1.08805  -1.08749
 Alpha  occ. eigenvalues --   -1.04786  -1.03915  -0.96390  -0.95599  -0.87432
 Alpha  occ. eigenvalues --   -0.86158  -0.82438  -0.80003  -0.78596  -0.77476
 Alpha  occ. eigenvalues --   -0.72056  -0.71186  -0.70467  -0.65421  -0.65019
 Alpha  occ. eigenvalues --   -0.64782  -0.62148  -0.61310  -0.59750  -0.57993
 Alpha  occ. eigenvalues --   -0.55697  -0.55261  -0.53303  -0.53106  -0.52939
 Alpha  occ. eigenvalues --   -0.52527  -0.50324  -0.48819  -0.48812  -0.48284
 Alpha  occ. eigenvalues --   -0.47012  -0.46142  -0.46040  -0.44819  -0.44163
 Alpha  occ. eigenvalues --   -0.37329  -0.36303
 Alpha virt. eigenvalues --    0.05013   0.11264   0.16429   0.20978   0.22566
 Alpha virt. eigenvalues --    0.24040   0.26014   0.26302   0.27218   0.28053
 Alpha virt. eigenvalues --    0.28701   0.30516   0.30987   0.31440   0.31891

 Mulliken charges:
               1
     1  C   -0.298739
     2  C   -0.299817
     3  C   -0.475896
     4  H    0.152056
     5  H    0.149518
     6  H    0.153119
     7  H    0.149554
     8  H    0.155178
     9  H    0.156917
    10  H    0.160562
    11  C   -0.298806
    12  C   -0.299242
    13  C   -0.481829
    14  H    0.153581
    15  H    0.144867
    16  H    0.155655
    17  H    0.152623
    18  H    0.146766
    19  H    0.159211
    20  H    0.161154
    21  C   -0.172021
    22  C   -0.216198
    23  C   -0.174294
    24  C    0.158825
    25  C   -0.171863
    26  C   -0.218102
    27  H    0.225561
    28  H    0.229501
    29  H    0.275797
    30  H    0.275493
    31  H    0.223594
    32  N    0.488013
    33  O   -0.460369
    34  O   -0.460369
 Sum of Mulliken charges =  -0.00000

 Dipole moment (field-independent basis, Debye):
    X=              2.6407    Y=              2.2714    Z=              3.8452  Tot=              5.1882
 Quadrupole moment (field-independent basis, Debye-Ang):
   XX=           -110.1699   YY=            -93.1731   ZZ=            -92.8180
   XY=             -6.1773   XZ=            -10.3733   YZ=             -3.3013

 Normal termination of Gaussian 16 at Thu May  6 20:27:56 2021.
