 Gaussian 16, Revision A.03,
 Gaussian 16:  EM64L-G16RevA.03 25-Dec-2016

 -------------
 #p 6-31g* mp2
 -------------

 ------------------------------------------------------
 Input file generated by CHIRIPA (05-May-2021 14:53:13)
 ------------------------------------------------------
 Symbolic Z-matrix:
 Charge =  0 Multiplicity = 1

                         Standard orientation:
 ---------------------------------------------------------------------
 Center     Atomic      Atomic             Coordinates (Angstroms)
 Number     Number       Type             X           Y           Z
 ---------------------------------------------------------------------
      1          6           0       -3.283023   -0.439254   -0.418078
      2          6           0       -2.311459   -1.618104   -0.484123
      3          6           0       -3.000349   -2.931870   -0.854586
      4          1           0       -4.070164   -0.661704    0.315319
      5          1           0       -3.783351   -0.330551   -1.390318
      6          1           0       -1.812098   -1.723689    0.487528
      7          1           0       -1.526433   -1.392741   -1.217309
      8          1           0       -3.483862   -2.850646   -1.833473
      9          1           0       -3.771150   -3.183474   -0.118949
     10          1           0       -2.287402   -3.761232   -0.896122
     11          6           0       -2.609251    0.881139   -0.048861
     12          6           0       -3.580815    2.059988    0.017184
     13          6           0       -2.891925    3.373755    0.387647
     14          1           0       -2.108923    0.772436    0.923379
     15          1           0       -1.822110    1.103588   -0.782259
     16          1           0       -4.365841    1.834626    0.750370
     17          1           0       -4.080176    2.165573   -0.954467
     18          1           0       -2.121124    3.625359   -0.347990
     19          1           0       -2.408412    3.292531    1.366533
     20          1           0       -3.604871    4.203117    0.429183
     21          6           0        3.604400    1.308048   -1.391280
     22          6           0        3.089780    0.088245   -1.842687
     23          6           0        2.366439   -0.740183   -0.979534
     24          6           0        2.175727   -0.315756    0.334535
     25          6           0        2.675859    0.893871    0.814077
     26          6           0        3.396164    1.706265   -0.066674
     27          1           0        4.165131    1.945363   -2.068634
     28          1           0        3.249949   -0.223575   -2.870870
     29          1           0        1.956922   -1.689536   -1.302710
     30          1           0        2.499862    1.177741    1.844544
     31          1           0        3.794660    2.653054    0.286650
     32          7           0        1.411564   -1.184288    1.257632
     33          8           0        1.257335   -0.787599    2.410666
     34          8           0        0.981311   -2.245288    0.810641
 ---------------------------------------------------------------------

 SCF Done:  E(RHF) =  -669.536211069     A.U. after   15 cycles
 E2 =    -0.2091961675D+01 EUMP2 =    -0.67162817274404D+03

 The electronic state is 1-A.
 Alpha  occ. eigenvalues --  -20.60915 -20.60889 -15.85922 -11.31252 -11.27813
 Alpha  occ. eigenvalues --  -11.27809 -11.27553 -11.26824 -11.26814 -11.21275
 Alpha  occ. eigenvalues --  -11.20922 -11.20871 -11.20735 -11.20610 -11.20246
 Alpha  occ. eigenvalues --   -1.59959  -1.39515  -1.19417  -1.08822  -1.07866
 Alpha  occ. eigenvalues --   -1.04815  -1.02941  -0.95666  -0.95430  -0.86456
 Alpha  occ. eigenvalues --   -0.86215  -0.82501  -0.79029  -0.77681  -0.77519
 Alpha  occ. eigenvalues --   -0.72150  -0.71262  -0.70528  -0.65074  -0.64822
 Alpha  occ. eigenvalues --   -0.64496  -0.62163  -0.60341  -0.58808  -0.57011
 Alpha  occ. eigenvalues --   -0.55322  -0.54738  -0.53144  -0.52908  -0.52124
 Alpha  occ. eigenvalues --   -0.51858  -0.49403  -0.48922  -0.48912  -0.47374
 Alpha  occ. eigenvalues --   -0.46072  -0.45374  -0.45116  -0.44612  -0.43200
 Alpha  occ. eigenvalues --   -0.37391  -0.36414
 Alpha virt. eigenvalues --    0.04953   0.11210   0.16442   0.21309   0.23349
 Alpha virt. eigenvalues --    0.24807   0.26865   0.27410   0.27638   0.28385
 Alpha virt. eigenvalues --    0.28626   0.30820   0.31679   0.32149   0.32525

 Mulliken charges:
               1
     1  C   -0.297970
     2  C   -0.302414
     3  C   -0.476024
     4  H    0.149672
     5  H    0.145009
     6  H    0.172819
     7  H    0.142507
     8  H    0.148668
     9  H    0.154309
    10  H    0.164314
    11  C   -0.300073
    12  C   -0.298713
    13  C   -0.475533
    14  H    0.154364
    15  H    0.144740
    16  H    0.152962
    17  H    0.150213
    18  H    0.151868
    19  H    0.155977
    20  H    0.158929
    21  C   -0.170669
    22  C   -0.218738
    23  C   -0.171108
    24  C    0.159601
    25  C   -0.170519
    26  C   -0.218491
    27  H    0.225830
    28  H    0.223629
    29  H    0.276041
    30  H    0.275671
    31  H    0.223769
    32  N    0.488025
    33  O   -0.460478
    34  O   -0.458188
 Sum of Mulliken charges =  -0.00000

 Dipole moment (field-independent basis, Debye):
    X=              2.8505    Y=              2.9550    Z=             -3.1049  Tot=              5.1476
 Quadrupole moment (field-independent basis, Debye-Ang):
   XX=            -84.2296   YY=            -95.9617   ZZ=            -93.7623
   XY=              6.2988   XZ=             -6.4964   YZ=              4.2578

 Normal termination of Gaussian 16 at Thu May  6 07:23:18 2021.
