 Gaussian 16, Revision A.03,
 Gaussian 16:  EM64L-G16RevA.03 25-Dec-2016

 -------------
 #p 6-31g* mp2
 -------------

 ------------------------------------------------------
 Input file generated by CHIRIPA (05-May-2021 14:57:24)
 ------------------------------------------------------
 Symbolic Z-matrix:
 Charge =  0 Multiplicity = 1

                         Standard orientation:
 ---------------------------------------------------------------------
 Center     Atomic      Atomic             Coordinates (Angstroms)
 Number     Number       Type             X           Y           Z
 ---------------------------------------------------------------------
      1          6           0        3.082332    2.643243    0.553678
      2          6           0        2.952442    1.734780    1.609303
      3          6           0        3.047288    0.359259    1.378011
      4          6           0        3.273552   -0.074933    0.072802
      5          6           0        3.407351    0.805265   -0.999877
      6          6           0        3.308972    2.176409   -0.745253
      7          1           0        3.007281    3.710080    0.742414
      8          1           0        2.776387    2.094469    2.619092
      9          1           0        2.950602   -0.366036    2.176770
     10          1           0        3.582405    0.416570   -1.995713
     11          1           0        3.410252    2.879628   -1.567001
     12          7           0        3.375832   -1.528819   -0.184407
     13          8           0        3.575547   -1.885898   -1.343392
     14          8           0        3.254346   -2.283765    0.777847
     15          6           0       -0.884042   -0.922466   -0.517941
     16          6           0       -1.617892   -1.455450    0.546913
     17          6           0       -2.933293   -1.042939    0.779515
     18          6           0       -3.486075   -0.091425   -0.076257
     19          6           0       -2.780628    0.458234   -1.145606
     20          6           0       -1.466724    0.030994   -1.359318
     21          1           0        0.137211   -1.248635   -0.691294
     22          1           0       -1.167941   -2.196063    1.201955
     23          1           0       -3.524097   -1.439115    1.596468
     24          1           0       -3.256215    1.194996   -1.781545
     25          1           0       -0.899184    0.446639   -2.187076
     26          7           0       -4.877838    0.353078    0.159989
     27          8           0       -5.342000    1.192646   -0.608332
     28          8           0       -5.478188   -0.146504    1.109007
 ---------------------------------------------------------------------

 SCF Done:  E(RHF) =  -868.338487355     A.U. after   16 cycles
 E2 =    -0.2599643001D+01 EUMP2 =    -0.87093813035552D+03

 The electronic state is 1-A.
 Alpha  occ. eigenvalues --  -20.61865 -20.61854 -20.60714 -20.60707 -15.86906
 Alpha  occ. eigenvalues --  -15.85765 -11.32128 -11.31073 -11.28674 -11.28646
 Alpha  occ. eigenvalues --  -11.28316 -11.27654 -11.27616 -11.27615 -11.27579
 Alpha  occ. eigenvalues --  -11.27317 -11.26645 -11.26565  -1.60961  -1.59790
 Alpha  occ. eigenvalues --   -1.40507  -1.39345  -1.20273  -1.19233  -1.09688
 Alpha  occ. eigenvalues --   -1.08626  -1.05633  -1.04629  -0.96544  -0.95475
 Alpha  occ. eigenvalues --   -0.87036  -0.86018  -0.83365  -0.82312  -0.78449
 Alpha  occ. eigenvalues --   -0.77376  -0.73101  -0.72348  -0.71982  -0.71338
 Alpha  occ. eigenvalues --   -0.71115  -0.70292  -0.65906  -0.65609  -0.64878
 Alpha  occ. eigenvalues --   -0.64614  -0.62976  -0.61976  -0.56102  -0.55109
 Alpha  occ. eigenvalues --   -0.53974  -0.53706  -0.52956  -0.52710  -0.49878
 Alpha  occ. eigenvalues --   -0.49854  -0.48742  -0.48735  -0.45930  -0.44764
 Alpha  occ. eigenvalues --   -0.38241  -0.37251  -0.37162  -0.36241
 Alpha virt. eigenvalues --    0.04035   0.05154   0.10405   0.11426   0.15581
 Alpha virt. eigenvalues --    0.16671   0.20646   0.21418   0.26562   0.27393
 Alpha virt. eigenvalues --    0.27512   0.27812   0.30339   0.30908   0.31690

 Mulliken charges:
               1
     1  C   -0.169288
     2  C   -0.217010
     3  C   -0.171480
     4  C    0.151878
     5  C   -0.175679
     6  C   -0.218603
     7  H    0.229738
     8  H    0.227422
     9  H    0.276252
    10  H    0.275886
    11  H    0.225974
    12  N    0.485925
    13  O   -0.459445
    14  O   -0.459951
    15  C   -0.170752
    16  C   -0.220774
    17  C   -0.171699
    18  C    0.157979
    19  C   -0.171949
    20  C   -0.218848
    21  H    0.229556
    22  H    0.228663
    23  H    0.275243
    24  H    0.273911
    25  H    0.221276
    26  N    0.488067
    27  O   -0.461644
    28  O   -0.460648
 Sum of Mulliken charges =  -0.00000

 Dipole moment (field-independent basis, Debye):
    X=              4.7447    Y=              3.6636    Z=              0.1830  Tot=              5.9973
 Quadrupole moment (field-independent basis, Debye-Ang):
   XX=           -142.9054   YY=           -103.8335   ZZ=            -96.9132
   XY=             22.9093   XZ=              4.5219   YZ=             -3.2195

 Normal termination of Gaussian 16 at Thu May  6 16:19:22 2021.
