 Gaussian 16, Revision A.03,
 Gaussian 16:  EM64L-G16RevA.03 25-Dec-2016

 -------------
 #p 6-31g* mp2
 -------------

 ------------------------------------------------------
 Input file generated by CHIRIPA (05-May-2021 14:51:12)
 ------------------------------------------------------
 Symbolic Z-matrix:
 Charge =  0 Multiplicity = 1

                         Standard orientation:
 ---------------------------------------------------------------------
 Center     Atomic      Atomic             Coordinates (Angstroms)
 Number     Number       Type             X           Y           Z
 ---------------------------------------------------------------------
      1          6           0       -3.960034    0.035468    0.318590
      2          6           0       -5.200345   -0.085679   -0.567377
      3          6           0       -6.353109    0.800777   -0.095015
      4          1           0       -4.227624   -0.227798    1.351078
      5          1           0       -3.633018    1.084311    0.338192
      6          1           0       -5.524107   -1.134217   -0.586412
      7          1           0       -4.929726    0.177721   -1.597912
      8          1           0       -6.053525    1.853795   -0.093077
      9          1           0       -6.651284    0.534403    0.924169
     10          1           0       -7.229523    0.698585   -0.742562
     11          6           0       -2.799046   -0.844740   -0.140836
     12          6           0       -1.558735   -0.723593    0.745131
     13          6           0       -0.405971   -1.610049    0.272769
     14          1           0       -3.126062   -1.893583   -0.160438
     15          1           0       -2.531456   -0.581474   -1.173324
     16          1           0       -1.829354   -0.986993    1.775666
     17          1           0       -1.234973    0.324945    0.764166
     18          1           0       -0.107796   -1.343675   -0.746415
     19          1           0       -0.705555   -2.663067    0.270831
     20          1           0        0.470443   -1.507857    0.920316
     21          6           0        3.304424   -0.289569   -0.398504
     22          6           0        4.166222   -1.353556    0.282100
     23          6           0        4.005033   -2.737064   -0.348550
     24          1           0        2.250253   -0.595201   -0.350996
     25          1           0        3.567999   -0.240775   -1.464122
     26          1           0        3.902067   -1.399362    1.346403
     27          1           0        5.218445   -1.045264    0.233136
     28          1           0        4.287741   -2.713738   -1.405969
     29          1           0        2.963884   -3.069848   -0.286375
     30          1           0        4.629961   -3.482333    0.153345
     31          6           0        3.454656    1.098841    0.220750
     32          6           0        2.592858    2.162829   -0.459854
     33          6           0        2.754047    3.546336    0.170796
     34          1           0        3.191081    1.050047    1.286368
     35          1           0        4.508827    1.404472    0.173242
     36          1           0        1.540635    1.854536   -0.410890
     37          1           0        2.857013    2.208634   -1.524157
     38          1           0        3.795195    3.879120    0.108622
     39          1           0        2.471339    3.523010    1.228215
     40          1           0        2.129119    4.291605   -0.331099
 ---------------------------------------------------------------------

 SCF Done:  E(RHF) =  -470.732647763     A.U. after   11 cycles
 E2 =    -0.1583493322D+01 EUMP2 =    -0.47231614108495D+03

 The electronic state is 1-A.
 Alpha  occ. eigenvalues --  -11.21711 -11.21638 -11.21584 -11.21523 -11.21468
 Alpha  occ. eigenvalues --  -11.21405 -11.21321 -11.21191 -11.21174 -11.21099
 Alpha  occ. eigenvalues --  -11.21060 -11.20989  -1.08502  -1.08355  -1.03612
 Alpha  occ. eigenvalues --   -1.03473  -0.96073  -0.95909  -0.87103  -0.86922
 Alpha  occ. eigenvalues --   -0.79705  -0.79519  -0.78314  -0.78156  -0.65184
 Alpha  occ. eigenvalues --   -0.64974  -0.61010  -0.60893  -0.59441  -0.59269
 Alpha  occ. eigenvalues --   -0.57672  -0.57529  -0.55441  -0.55130  -0.52807
 Alpha  occ. eigenvalues --   -0.52619  -0.52482  -0.52327  -0.50094  -0.49783
 Alpha  occ. eigenvalues --   -0.47987  -0.47856  -0.46776  -0.46530  -0.45888
 Alpha  occ. eigenvalues --   -0.45778  -0.45682  -0.45521  -0.43787  -0.43711
 Alpha virt. eigenvalues --    0.20631   0.22908   0.23777   0.24393   0.26139
 Alpha virt. eigenvalues --    0.26736   0.27144   0.27388   0.27915   0.29771
 Alpha virt. eigenvalues --    0.30115   0.31178   0.31713   0.31890   0.32107

 Mulliken charges:
               1
     1  C   -0.298406
     2  C   -0.299728
     3  C   -0.475756
     4  H    0.149766
     5  H    0.149695
     6  H    0.152019
     7  H    0.152097
     8  H    0.155282
     9  H    0.155224
    10  H    0.160406
    11  C   -0.298827
    12  C   -0.300964
    13  C   -0.480895
    14  H    0.149881
    15  H    0.150243
    16  H    0.152503
    17  H    0.152445
    18  H    0.157887
    19  H    0.156245
    20  H    0.162870
    21  C   -0.309658
    22  C   -0.299068
    23  C   -0.477258
    24  H    0.163336
    25  H    0.148215
    26  H    0.150650
    27  H    0.151570
    28  H    0.154872
    29  H    0.157289
    30  H    0.159734
    31  C   -0.297464
    32  C   -0.300417
    33  C   -0.475611
    34  H    0.148612
    35  H    0.149357
    36  H    0.151687
    37  H    0.151846
    38  H    0.155328
    39  H    0.155129
    40  H    0.159867
 Sum of Mulliken charges =  -0.00000

 Dipole moment (field-independent basis, Debye):
    X=             -0.0816    Y=             -0.0287    Z=             -0.0055  Tot=              0.0867
 Quadrupole moment (field-independent basis, Debye-Ang):
   XX=            -85.1566   YY=            -85.6574   ZZ=            -84.2003
   XY=              0.9766   XZ=             -0.5168   YZ=             -1.0831

 Normal termination of Gaussian 16 at Wed May  5 18:19:17 2021.
