 Gaussian 16, Revision A.03,
 Gaussian 16:  EM64L-G16RevA.03 25-Dec-2016

 -------------
 #p 6-31g* mp2
 -------------

 ------------------------------------------------------
 Input file generated by CHIRIPA (05-May-2021 14:55:22)
 ------------------------------------------------------
 Symbolic Z-matrix:
 Charge =  0 Multiplicity = 1

                         Standard orientation:
 ---------------------------------------------------------------------
 Center     Atomic      Atomic             Coordinates (Angstroms)
 Number     Number       Type             X           Y           Z
 ---------------------------------------------------------------------
      1          6           0       -1.802629   -2.594704    0.907813
      2          6           0       -2.943183   -1.822724    1.152158
      3          6           0       -3.087757   -0.563279    0.562713
      4          6           0       -2.067724   -0.104727   -0.269484
      5          6           0       -0.919502   -0.850218   -0.532391
      6          6           0       -0.796203   -2.106847    0.067799
      7          1           0       -1.698584   -3.571977    1.369882
      8          1           0       -3.726388   -2.199055    1.804087
      9          1           0       -3.960272    0.055231    0.734705
     10          1           0       -0.155632   -0.448260   -1.186875
     11          1           0        0.090663   -2.704189   -0.123762
     12          7           0       -2.209517    1.227101   -0.899191
     13          8           0       -1.296626    1.608450   -1.628465
     14          8           0       -3.230859    1.864419   -0.651557
     15          6           0        2.693833   -0.338723    0.308936
     16          6           0        3.423711   -1.026855   -0.845073
     17          6           0        3.570090   -2.534494   -0.636761
     18          1           0        3.237458   -0.530009    1.244258
     19          1           0        1.699725   -0.791732    0.426946
     20          1           0        4.415616   -0.571747   -0.961763
     21          1           0        2.878390   -0.833749   -1.777784
     22          1           0        2.587294   -3.007546   -0.542251
     23          1           0        4.133254   -2.744056    0.278406
     24          1           0        4.094661   -3.006318   -1.473460
     25          6           0        2.539715    1.168746    0.115257
     26          6           0        1.809837    1.856878    1.269266
     27          6           0        1.663458    3.364516    1.060954
     28          1           0        3.533824    1.621756   -0.002754
     29          1           0        1.996091    1.360032   -0.820065
     30          1           0        2.355158    1.663772    2.201978
     31          1           0        0.817932    1.401770    1.385956
     32          1           0        1.100294    3.574079    0.145787
     33          1           0        2.646255    3.837569    0.966444
     34          1           0        1.138887    3.836342    1.897653
 ---------------------------------------------------------------------

 SCF Done:  E(RHF) =  -669.534373497     A.U. after   15 cycles
 E2 =    -0.2095493733D+01 EUMP2 =    -0.67162986722919D+03

 The electronic state is 1-A.
 Alpha  occ. eigenvalues --  -20.60926 -20.60919 -15.85964 -11.31299 -11.27859
 Alpha  occ. eigenvalues --  -11.27853 -11.27587 -11.26860 -11.26838 -11.22089
 Alpha  occ. eigenvalues --  -11.21818 -11.21618 -11.21380 -11.21282 -11.20533
 Alpha  occ. eigenvalues --   -1.59986  -1.39542  -1.19477  -1.08868  -1.08597
 Alpha  occ. eigenvalues --   -1.04881  -1.03645  -0.96104  -0.95704  -0.87111
 Alpha  occ. eigenvalues --   -0.86269  -0.82562  -0.79765  -0.78334  -0.77591
 Alpha  occ. eigenvalues --   -0.72184  -0.71306  -0.70591  -0.65405  -0.65073
 Alpha  occ. eigenvalues --   -0.64883  -0.62164  -0.61015  -0.59517  -0.57684
 Alpha  occ. eigenvalues --   -0.55465  -0.55342  -0.53226  -0.52954  -0.52777
 Alpha  occ. eigenvalues --   -0.52482  -0.50064  -0.48940  -0.48926  -0.48042
 Alpha  occ. eigenvalues --   -0.46821  -0.45871  -0.45737  -0.44923  -0.43876
 Alpha  occ. eigenvalues --   -0.37441  -0.36366
 Alpha virt. eigenvalues --    0.04887   0.11096   0.16248   0.18884   0.22883
 Alpha virt. eigenvalues --    0.23629   0.25549   0.25908   0.28057   0.28486
 Alpha virt. eigenvalues --    0.29203   0.30943   0.31490   0.31976   0.32553

 Mulliken charges:
               1
     1  C   -0.172618
     2  C   -0.218543
     3  C   -0.170902
     4  C    0.156655
     5  C   -0.172754
     6  C   -0.223581
     7  H    0.226935
     8  H    0.223984
     9  H    0.275975
    10  H    0.281240
    11  H    0.232225
    12  N    0.488635
    13  O   -0.462099
    14  O   -0.458950
    15  C   -0.308656
    16  C   -0.302216
    17  C   -0.476506
    18  H    0.150934
    19  H    0.148057
    20  H    0.157284
    21  H    0.150505
    22  H    0.143431
    23  H    0.158653
    24  H    0.164207
    25  C   -0.304325
    26  C   -0.298184
    27  C   -0.480025
    28  H    0.150548
    29  H    0.159953
    30  H    0.148831
    31  H    0.149607
    32  H    0.169967
    33  H    0.152450
    34  H    0.159289
 Sum of Mulliken charges =  -0.00000

 Dipole moment (field-independent basis, Debye):
    X=              0.4369    Y=             -4.5694    Z=              2.1693  Tot=              5.0770
 Quadrupole moment (field-independent basis, Debye-Ang):
   XX=            -91.8779   YY=            -95.3228   ZZ=            -95.4908
   XY=              9.6023   XZ=             -6.8888   YZ=              1.1215

 Normal termination of Gaussian 16 at Thu May  6 07:51:52 2021.
