 Gaussian 16, Revision A.03,
 Gaussian 16:  EM64L-G16RevA.03 25-Dec-2016

 -------------
 #p 6-31g* mp2
 -------------

 ------------------------------------------------------
 Input file generated by CHIRIPA (05-May-2021 14:51:14)
 ------------------------------------------------------
 Symbolic Z-matrix:
 Charge =  0 Multiplicity = 1

                         Standard orientation:
 ---------------------------------------------------------------------
 Center     Atomic      Atomic             Coordinates (Angstroms)
 Number     Number       Type             X           Y           Z
 ---------------------------------------------------------------------
      1          6           0       -4.128873    0.673944    0.092931
      2          6           0       -3.555916    2.033707   -0.308005
      3          6           0       -4.415116    3.202774    0.174542
      4          1           0       -5.144682    0.576780   -0.314052
      5          1           0       -4.225096    0.632500    1.186741
      6          1           0       -3.459508    2.072054   -1.400640
      7          1           0       -2.541280    2.127567    0.099819
      8          1           0       -4.501535    3.192632    1.265885
      9          1           0       -5.424980    3.136804   -0.243099
     10          1           0       -3.987153    4.165166   -0.122962
     11          6           0       -3.281056   -0.504654   -0.382297
     12          6           0       -3.854013   -1.864417    0.018640
     13          6           0       -2.994813   -3.033484   -0.463908
     14          1           0       -3.184833   -0.463211   -1.476106
     15          1           0       -2.265247   -0.407490    0.024687
     16          1           0       -4.868648   -1.958278   -0.389184
     17          1           0       -3.950421   -1.902764    1.111274
     18          1           0       -1.984949   -2.967514   -0.046267
     19          1           0       -2.908393   -3.023343   -1.555251
     20          1           0       -3.422776   -3.995876   -0.166403
     21          6           0        3.147483   -0.232757    0.645392
     22          6           0        1.859307   -0.730422   -0.011051
     23          6           0        0.753383   -1.022418    1.003575
     24          1           0        3.498183   -0.984098    1.366114
     25          1           0        2.929044    0.676224    1.222828
     26          1           0        2.080385   -1.637414   -0.588203
     27          1           0        1.511736    0.022107   -0.730433
     28          1           0        0.504123   -0.120530    1.571967
     29          1           0        1.076003   -1.789480    1.715005
     30          1           0       -0.158369   -1.376902    0.512750
     31          6           0        4.262445    0.063468   -0.356026
     32          6           0        5.550622    0.561132    0.300416
     33          6           0        6.656546    0.853128   -0.714209
     34          1           0        4.480884   -0.845513   -0.933462
     35          1           0        3.911746    0.814809   -1.076748
     36          1           0        5.898193   -0.191397    1.019798
     37          1           0        5.329544    1.468124    0.877570
     38          1           0        6.333926    1.620190   -1.425638
     39          1           0        6.905805   -0.048759   -1.282602
     40          1           0        7.568298    1.207613   -0.223384
 ---------------------------------------------------------------------

 SCF Done:  E(RHF) =  -470.732873568     A.U. after   11 cycles
 E2 =    -0.1583089546D+01 EUMP2 =    -0.47231596311384D+03

 The electronic state is 1-A.
 Alpha  occ. eigenvalues --  -11.21632 -11.21612 -11.21589 -11.21577 -11.21423
 Alpha  occ. eigenvalues --  -11.21365 -11.21363 -11.21296 -11.21116 -11.21078
 Alpha  occ. eigenvalues --  -11.21063 -11.21062  -1.08454  -1.08404  -1.03567
 Alpha  occ. eigenvalues --   -1.03508  -0.96014  -0.95964  -0.87036  -0.86982
 Alpha  occ. eigenvalues --   -0.79652  -0.79550  -0.78265  -0.78219  -0.65097
 Alpha  occ. eigenvalues --   -0.65043  -0.60960  -0.60952  -0.59488  -0.59224
 Alpha  occ. eigenvalues --   -0.57628  -0.57566  -0.55354  -0.55201  -0.52767
 Alpha  occ. eigenvalues --   -0.52646  -0.52442  -0.52394  -0.50000  -0.49862
 Alpha  occ. eigenvalues --   -0.48029  -0.47820  -0.46652  -0.46594  -0.45806
 Alpha  occ. eigenvalues --   -0.45752  -0.45729  -0.45667  -0.43771  -0.43708
 Alpha virt. eigenvalues --    0.21272   0.23105   0.23541   0.24662   0.26365
 Alpha virt. eigenvalues --    0.26629   0.27219   0.27435   0.27698   0.29414
 Alpha virt. eigenvalues --    0.30271   0.31403   0.31813   0.31903   0.32005

 Mulliken charges:
               1
     1  C   -0.297638
     2  C   -0.299658
     3  C   -0.475692
     4  H    0.149490
     5  H    0.149539
     6  H    0.151795
     7  H    0.151781
     8  H    0.155192
     9  H    0.155208
    10  H    0.160056
    11  C   -0.306229
    12  C   -0.299249
    13  C   -0.480969
    14  H    0.148924
    15  H    0.157775
    16  H    0.151895
    17  H    0.152033
    18  H    0.159370
    19  H    0.155126
    20  H    0.160553
    21  C   -0.298670
    22  C   -0.298984
    23  C   -0.487120
    24  H    0.149723
    25  H    0.149461
    26  H    0.152319
    27  H    0.152602
    28  H    0.154614
    29  H    0.155527
    30  H    0.170877
    31  C   -0.298276
    32  C   -0.299659
    33  C   -0.475719
    34  H    0.149640
    35  H    0.149761
    36  H    0.151957
    37  H    0.151919
    38  H    0.155216
    39  H    0.155227
    40  H    0.160281
 Sum of Mulliken charges =  -0.00000

 Dipole moment (field-independent basis, Debye):
    X=              0.0229    Y=             -0.0067    Z=              0.0009  Tot=              0.0238
 Quadrupole moment (field-independent basis, Debye-Ang):
   XX=            -85.5388   YY=            -84.8285   ZZ=            -84.4857
   XY=             -0.0557   XZ=              1.1437   YZ=             -0.1727

 Normal termination of Gaussian 16 at Thu May  6 04:00:04 2021.
