 Gaussian 16, Revision A.03,
 Gaussian 16:  EM64L-G16RevA.03 25-Dec-2016

 -------------
 #p 6-31g* mp2
 -------------

 ------------------------------------------------------
 Input file generated by CHIRIPA (05-May-2021 14:53:11)
 ------------------------------------------------------
 Symbolic Z-matrix:
 Charge =  0 Multiplicity = 1

                         Standard orientation:
 ---------------------------------------------------------------------
 Center     Atomic      Atomic             Coordinates (Angstroms)
 Number     Number       Type             X           Y           Z
 ---------------------------------------------------------------------
      1          6           0        3.871530   -0.601230   -0.124370
      2          6           0        4.657416   -0.887693    1.155594
      3          6           0        5.138468   -2.336446    1.242185
      4          1           0        3.008754   -1.279322   -0.176844
      5          1           0        4.503264   -0.831359   -0.993478
      6          1           0        4.024864   -0.655778    2.022029
      7          1           0        5.518314   -0.208710    1.205121
      8          1           0        5.790834   -2.576947    0.396502
      9          1           0        4.288899   -3.026555    1.218051
     10          1           0        5.697922   -2.519228    2.164932
     11          6           0        3.383909    0.842977   -0.225459
     12          6           0        2.598023    1.129439   -1.505423
     13          6           0        2.116971    2.578192   -1.592014
     14          1           0        2.752175    1.073106    0.643649
     15          1           0        4.246685    1.521069   -0.172985
     16          1           0        1.737125    0.450457   -1.554951
     17          1           0        3.230575    0.897525   -2.371858
     18          1           0        2.966540    3.268301   -1.567880
     19          1           0        1.464605    2.818693   -0.746331
     20          1           0        1.557517    2.760974   -2.514761
     21          6           0       -2.267097    1.856739    1.632413
     22          6           0       -1.467700    1.571560    0.520586
     23          6           0       -1.772418    0.492983   -0.315097
     24          6           0       -2.888977   -0.283064   -0.007952
     25          6           0       -3.704822   -0.024396    1.092401
     26          6           0       -3.381143    1.059257    1.914274
     27          1           0       -2.023020    2.696575    2.276228
     28          1           0       -0.601906    2.189182    0.299255
     29          1           0       -1.170656    0.249738   -1.182353
     30          1           0       -4.561449   -0.658107    1.287386
     31          1           0       -4.003758    1.278377    2.777050
     32          7           0       -3.221605   -1.427592   -0.885343
     33          8           0       -4.210731   -2.096065   -0.593093
     34          8           0       -2.486895   -1.634528   -1.848678
 ---------------------------------------------------------------------

 SCF Done:  E(RHF) =  -669.535471705     A.U. after   15 cycles
 E2 =    -0.2091514005D+01 EUMP2 =    -0.67162698571006D+03

 The electronic state is 1-A.
 Alpha  occ. eigenvalues --  -20.60766 -20.60761 -15.85819 -11.31181 -11.27751
 Alpha  occ. eigenvalues --  -11.27743 -11.27489 -11.26767 -11.26734 -11.22286
 Alpha  occ. eigenvalues --  -11.21992 -11.21928 -11.21864 -11.21691 -11.21224
 Alpha  occ. eigenvalues --   -1.59841  -1.39395  -1.19352  -1.08901  -1.08748
 Alpha  occ. eigenvalues --   -1.04756  -1.04025  -0.96480  -0.95584  -0.87496
 Alpha  occ. eigenvalues --   -0.86154  -0.82416  -0.80093  -0.78669  -0.77467
 Alpha  occ. eigenvalues --   -0.72037  -0.71164  -0.70464  -0.65566  -0.65001
 Alpha  occ. eigenvalues --   -0.64769  -0.62203  -0.61335  -0.59856  -0.58067
 Alpha  occ. eigenvalues --   -0.55809  -0.55237  -0.53175  -0.53085  -0.52985
 Alpha  occ. eigenvalues --   -0.52768  -0.50411  -0.48797  -0.48793  -0.48395
 Alpha  occ. eigenvalues --   -0.47127  -0.46217  -0.46120  -0.44801  -0.44252
 Alpha  occ. eigenvalues --   -0.37335  -0.36356
 Alpha virt. eigenvalues --    0.05063   0.11283   0.16528   0.18701   0.22901
 Alpha virt. eigenvalues --    0.23766   0.25097   0.25689   0.27225   0.28411
 Alpha virt. eigenvalues --    0.29000   0.29573   0.31210   0.31494   0.32203

 Mulliken charges:
               1
     1  C   -0.299371
     2  C   -0.299918
     3  C   -0.476217
     4  H    0.153019
     5  H    0.151621
     6  H    0.151149
     7  H    0.151738
     8  H    0.156166
     9  H    0.157310
    10  H    0.160656
    11  C   -0.297909
    12  C   -0.302943
    13  C   -0.480341
    14  H    0.145427
    15  H    0.151113
    16  H    0.151262
    17  H    0.158112
    18  H    0.160830
    19  H    0.144937
    20  H    0.164403
    21  C   -0.172460
    22  C   -0.225315
    23  C   -0.176813
    24  C    0.159164
    25  C   -0.170900
    26  C   -0.218532
    27  H    0.226170
    28  H    0.233458
    29  H    0.278243
    30  H    0.275541
    31  H    0.223379
    32  N    0.488013
    33  O   -0.460495
    34  O   -0.460497
 Sum of Mulliken charges =  -0.00000

 Dipole moment (field-independent basis, Debye):
    X=              1.3365    Y=              3.9795    Z=              3.0383  Tot=              5.1821
 Quadrupole moment (field-independent basis, Debye-Ang):
   XX=            -97.4990   YY=            -98.4560   ZZ=            -93.2903
   XY=            -10.5174   XZ=            -12.4722   YZ=             -1.5614

 Normal termination of Gaussian 16 at Thu May  6 00:53:40 2021.
