 Gaussian 16, Revision A.03,
 Gaussian 16:  EM64L-G16RevA.03 25-Dec-2016

 -------------
 #p 6-31g* mp2
 -------------

 ------------------------------------------------------
 Input file generated by CHIRIPA (05-May-2021 14:57:23)
 ------------------------------------------------------
 Symbolic Z-matrix:
 Charge =  0 Multiplicity = 1

                         Standard orientation:
 ---------------------------------------------------------------------
 Center     Atomic      Atomic             Coordinates (Angstroms)
 Number     Number       Type             X           Y           Z
 ---------------------------------------------------------------------
      1          6           0       -3.150903   -2.202868    0.982183
      2          6           0       -1.918755   -1.606862    0.693898
      3          6           0       -1.862105   -0.316641    0.158483
      4          6           0       -3.062507    0.351795   -0.077143
      5          6           0       -4.305653   -0.215092    0.199476
      6          6           0       -4.338326   -1.506309    0.734489
      7          1           0       -3.185597   -3.205530    1.397951
      8          1           0       -0.994982   -2.145455    0.885229
      9          1           0       -0.921917    0.168528   -0.074058
     10          1           0       -5.209613    0.346717   -0.002127
     11          1           0       -5.296664   -1.966684    0.957394
     12          7           0       -3.015226    1.718221   -0.643750
     13          8           0       -4.087050    2.286082   -0.842155
     14          8           0       -1.907238    2.195492   -0.878723
     15          6           0        3.582879    1.143589    2.102680
     16          6           0        2.507514    0.249892    2.065025
     17          6           0        2.214254   -0.459260    0.896414
     18          6           0        3.020745   -0.249388   -0.221091
     19          6           0        4.099058    0.634066   -0.214922
     20          6           0        4.373825    1.332491    0.964594
     21          1           0        3.803507    1.690308    3.014721
     22          1           0        1.891549    0.101184    2.947362
     23          1           0        1.387832   -1.157269    0.839602
     24          1           0        4.695101    0.761193   -1.110461
     25          1           0        5.209605    2.025904    0.990938
     26          7           0        2.720074   -0.994457   -1.464018
     27          8           0        3.445774   -0.791734   -2.435048
     28          8           0        1.764400   -1.767056   -1.443660
 ---------------------------------------------------------------------

 SCF Done:  E(RHF) =  -868.337568054     A.U. after   16 cycles
 E2 =    -0.2600486675D+01 EUMP2 =    -0.87093805472904D+03

 The electronic state is 1-A.
 Alpha  occ. eigenvalues --  -20.61223 -20.61174 -20.60644 -20.60638 -15.86247
 Alpha  occ. eigenvalues --  -15.85698 -11.31622 -11.31058 -11.28293 -11.28080
 Alpha  occ. eigenvalues --  -11.27825 -11.27645 -11.27629 -11.27401 -11.27211
 Alpha  occ. eigenvalues --  -11.27105 -11.26689 -11.26654  -1.60262  -1.59718
 Alpha  occ. eigenvalues --   -1.39824  -1.39272  -1.19759  -1.19242  -1.09137
 Alpha  occ. eigenvalues --   -1.08640  -1.05178  -1.04653  -0.95990  -0.95471
 Alpha  occ. eigenvalues --   -0.86571  -0.86053  -0.82829  -0.82317  -0.77923
 Alpha  occ. eigenvalues --   -0.77341  -0.72467  -0.71920  -0.71574  -0.71040
 Alpha  occ. eigenvalues --   -0.70886  -0.70343  -0.65415  -0.65200  -0.64894
 Alpha  occ. eigenvalues --   -0.64674  -0.62650  -0.61894  -0.55636  -0.55155
 Alpha  occ. eigenvalues --   -0.53471  -0.53271  -0.52969  -0.52747  -0.49242
 Alpha  occ. eigenvalues --   -0.49205  -0.48678  -0.48670  -0.45225  -0.44678
 Alpha  occ. eigenvalues --   -0.37688  -0.37223  -0.36765  -0.36240
 Alpha virt. eigenvalues --    0.04630   0.05190   0.10790   0.11408   0.16182
 Alpha virt. eigenvalues --    0.16669   0.19185   0.22098   0.24880   0.27457
 Alpha virt. eigenvalues --    0.28298   0.29036   0.30136   0.31294   0.32200

 Mulliken charges:
               1
     1  C   -0.170503
     2  C   -0.221464
     3  C   -0.169746
     4  C    0.157766
     5  C   -0.170430
     6  C   -0.218919
     7  H    0.225891
     8  H    0.223515
     9  H    0.276165
    10  H    0.275345
    11  H    0.223175
    12  N    0.488202
    13  O   -0.461044
    14  O   -0.460188
    15  C   -0.169397
    16  C   -0.218404
    17  C   -0.179621
    18  C    0.161294
    19  C   -0.168350
    20  C   -0.216757
    21  H    0.228114
    22  H    0.223923
    23  H    0.271044
    24  H    0.278006
    25  H    0.226345
    26  N    0.488467
    27  O   -0.454673
    28  O   -0.467756
 Sum of Mulliken charges =  -0.00000

 Dipole moment (field-independent basis, Debye):
    X=              1.1423    Y=             -2.0535    Z=              6.3131  Tot=              6.7362
 Quadrupole moment (field-independent basis, Debye-Ang):
   XX=            -88.4219   YY=           -109.7928   ZZ=           -107.1553
   XY=             24.9559   XZ=              4.9393   YZ=             -1.5855

 Normal termination of Gaussian 16 at Fri May  7 04:55:59 2021.
