 Gaussian 16, Revision A.03,
 Gaussian 16:  EM64L-G16RevA.03 25-Dec-2016

 -------------
 #p 6-31g* mp2
 -------------

 ------------------------------------------------------
 Input file generated by CHIRIPA (05-May-2021 14:53:16)
 ------------------------------------------------------
 Symbolic Z-matrix:
 Charge =  0 Multiplicity = 1

                         Standard orientation:
 ---------------------------------------------------------------------
 Center     Atomic      Atomic             Coordinates (Angstroms)
 Number     Number       Type             X           Y           Z
 ---------------------------------------------------------------------
      1          6           0       -3.899623    0.086215   -0.855837
      2          6           0       -2.732673    1.040431   -0.599541
      3          6           0       -1.846324    1.234301   -1.830229
      4          1           0       -3.505233   -0.885829   -1.182230
      5          1           0       -4.504753    0.473178   -1.687386
      6          1           0       -2.130710    0.652499    0.232183
      7          1           0       -3.129880    2.010258   -0.273537
      8          1           0       -2.427439    1.643716   -2.662867
      9          1           0       -1.422592    0.278243   -2.154274
     10          1           0       -1.018457    1.920064   -1.624739
     11          6           0       -4.794789   -0.117758    0.365145
     12          6           0       -5.961738   -1.071974    0.108849
     13          6           0       -6.848088   -1.265844    1.339537
     14          1           0       -4.189659   -0.504721    1.196694
     15          1           0       -5.189179    0.854286    0.691538
     16          1           0       -5.564532   -2.041801   -0.217155
     17          1           0       -6.563702   -0.684042   -0.722875
     18          1           0       -7.271819   -0.309786    1.663582
     19          1           0       -6.266973   -1.675259    2.172175
     20          1           0       -7.675955   -1.951607    1.134047
     21          6           0        2.027914    1.997068    0.936225
     22          6           0        2.854798    1.334687    1.849480
     23          6           0        3.617407    0.233860    1.448033
     24          6           0        3.528541   -0.179557    0.119696
     25          6           0        2.714037    0.459547   -0.813803
     26          6           0        1.960292    1.558158   -0.390164
     27          1           0        1.438944    2.851354    1.256698
     28          1           0        2.909302    1.673341    2.880201
     29          1           0        4.265796   -0.297325    2.134221
     30          1           0        2.680651    0.098685   -1.834628
     31          1           0        1.318987    2.070644   -1.101592
     32          7           0        4.331189   -1.343779   -0.317044
     33          8           0        4.235213   -1.688352   -1.492925
     34          8           0        5.041081   -1.889679    0.524788
 ---------------------------------------------------------------------

 SCF Done:  E(RHF) =  -669.535422248     A.U. after   15 cycles
 E2 =    -0.2090961347D+01 EUMP2 =    -0.67162638359494D+03

 The electronic state is 1-A.
 Alpha  occ. eigenvalues --  -20.60755 -20.60750 -15.85808 -11.31172 -11.27742
 Alpha  occ. eigenvalues --  -11.27731 -11.27482 -11.26758 -11.26727 -11.22248
 Alpha  occ. eigenvalues --  -11.21912 -11.21896 -11.21854 -11.21749 -11.21320
 Alpha  occ. eigenvalues --   -1.59831  -1.39384  -1.19344  -1.08886  -1.08740
 Alpha  occ. eigenvalues --   -1.04746  -1.04019  -0.96481  -0.95575  -0.87507
 Alpha  occ. eigenvalues --   -0.86144  -0.82406  -0.80088  -0.78673  -0.77455
 Alpha  occ. eigenvalues --   -0.72027  -0.71154  -0.70451  -0.65507  -0.64995
 Alpha  occ. eigenvalues --   -0.64784  -0.62136  -0.61399  -0.59868  -0.58084
 Alpha  occ. eigenvalues --   -0.55748  -0.55250  -0.53355  -0.53059  -0.52958
 Alpha  occ. eigenvalues --   -0.52631  -0.50401  -0.48787  -0.48782  -0.48398
 Alpha  occ. eigenvalues --   -0.47099  -0.46223  -0.46124  -0.44790  -0.44273
 Alpha  occ. eigenvalues --   -0.37324  -0.36340
 Alpha virt. eigenvalues --    0.05079   0.11241   0.16549   0.20308   0.22589
 Alpha virt. eigenvalues --    0.23903   0.25933   0.26233   0.27024   0.28245
 Alpha virt. eigenvalues --    0.28481   0.29924   0.30967   0.31546   0.32044

 Mulliken charges:
               1
     1  C   -0.299157
     2  C   -0.300213
     3  C   -0.476840
     4  H    0.152294
     5  H    0.150562
     6  H    0.153270
     7  H    0.151008
     8  H    0.158623
     9  H    0.159104
    10  H    0.148727
    11  C   -0.298668
    12  C   -0.300134
    13  C   -0.475969
    14  H    0.150071
    15  H    0.149196
    16  H    0.153413
    17  H    0.152386
    18  H    0.154948
    19  H    0.155599
    20  H    0.161507
    21  C   -0.172196
    22  C   -0.218624
    23  C   -0.171143
    24  C    0.158557
    25  C   -0.172482
    26  C   -0.219622
    27  H    0.225637
    28  H    0.223332
    29  H    0.275498
    30  H    0.275964
    31  H    0.228281
    32  N    0.488051
    33  O   -0.460423
    34  O   -0.460554
 Sum of Mulliken charges =  -0.00000

 Dipole moment (field-independent basis, Debye):
    X=             -2.9673    Y=              4.0392    Z=              1.5418  Tot=              5.2438
 Quadrupole moment (field-independent basis, Debye-Ang):
   XX=           -114.5339   YY=            -96.4699   ZZ=            -90.7220
   XY=             14.3708   XZ=              7.9350   YZ=             -0.1970

 Normal termination of Gaussian 16 at Thu May  6 02:44:13 2021.
