 Gaussian 16, Revision A.03,
 Gaussian 16:  EM64L-G16RevA.03 25-Dec-2016

 -------------
 #p 6-31g* mp2
 -------------

 ------------------------------------------------------
 Input file generated by CHIRIPA (05-May-2021 14:57:23)
 ------------------------------------------------------
 Symbolic Z-matrix:
 Charge =  0 Multiplicity = 1

                         Standard orientation:
 ---------------------------------------------------------------------
 Center     Atomic      Atomic             Coordinates (Angstroms)
 Number     Number       Type             X           Y           Z
 ---------------------------------------------------------------------
      1          6           0        5.793830   -0.100163   -1.123734
      2          6           0        5.225747   -1.319889   -0.741544
      3          6           0        4.009025   -1.351905   -0.053713
      4          6           0        3.384814   -0.139805    0.236913
      5          6           0        3.925498    1.091465   -0.130410
      6          6           0        5.143040    1.099506   -0.817487
      7          1           0        6.739327   -0.084604   -1.657765
      8          1           0        5.728921   -2.253126   -0.978038
      9          1           0        3.546900   -2.282036    0.254045
     10          1           0        3.400336    2.005349    0.119466
     11          1           0        5.581880    2.048244   -1.113057
     12          7           0        2.096291   -0.161008    0.964690
     13          8           0        1.566263    0.920710    1.208806
     14          8           0        1.640774   -1.258944    1.277225
     15          6           0       -4.869759   -2.021594   -0.416818
     16          6           0       -3.603072   -2.032569    0.176396
     17          6           0       -2.888900   -0.842949    0.347593
     18          6           0       -3.474150    0.344929   -0.087979
     19          6           0       -4.734255    0.388459   -0.682561
     20          6           0       -5.430320   -0.813246   -0.843651
     21          1           0       -5.417512   -2.950414   -0.545881
     22          1           0       -3.165259   -2.969506    0.508834
     23          1           0       -1.906572   -0.822684    0.803706
     24          1           0       -5.144620    1.338066   -1.003907
     25          1           0       -6.413869   -0.801708   -1.304676
     26          7           0       -2.727673    1.610723    0.087910
     27          8           0       -3.265287    2.644053   -0.304309
     28          8           0       -1.619104    1.545554    0.614659
 ---------------------------------------------------------------------

 SCF Done:  E(RHF) =  -868.337229341     A.U. after   16 cycles
 E2 =    -0.2599999256D+01 EUMP2 =    -0.87093722859722D+03

 The electronic state is 1-A.
 Alpha  occ. eigenvalues --  -20.60442 -20.60290 -20.59636 -20.59529 -15.85388
 Alpha  occ. eigenvalues --  -15.84624 -11.30874 -11.30180 -11.27495 -11.27410
 Alpha  occ. eigenvalues --  -11.27234 -11.26858 -11.26649 -11.26631 -11.26526
 Alpha  occ. eigenvalues --  -11.26473 -11.25918 -11.25808  -1.59425  -1.58679
 Alpha  occ. eigenvalues --   -1.38972  -1.38213  -1.19060  -1.18395  -1.08437
 Alpha  occ. eigenvalues --   -1.07774  -1.04478  -1.03813  -0.95250  -0.94559
 Alpha  occ. eigenvalues --   -0.85872  -0.85207  -0.82079  -0.81367  -0.77107
 Alpha  occ. eigenvalues --   -0.76374  -0.71624  -0.70874  -0.70662  -0.70169
 Alpha  occ. eigenvalues --   -0.70022  -0.69500  -0.64709  -0.64485  -0.64034
 Alpha  occ. eigenvalues --   -0.63822  -0.61821  -0.61128  -0.54984  -0.54349
 Alpha  occ. eigenvalues --   -0.52805  -0.52572  -0.52162  -0.51897  -0.48412
 Alpha  occ. eigenvalues --   -0.48348  -0.47646  -0.47558  -0.44352  -0.43565
 Alpha  occ. eigenvalues --   -0.37052  -0.36427  -0.36087  -0.35433
 Alpha virt. eigenvalues --    0.05414   0.06138   0.11565   0.12211   0.16879
 Alpha virt. eigenvalues --    0.17573   0.21678   0.22335   0.27585   0.28237
 Alpha virt. eigenvalues --    0.28589   0.29303   0.31208   0.31843   0.32864

 Mulliken charges:
               1
     1  C   -0.171210
     2  C   -0.218675
     3  C   -0.171705
     4  C    0.158461
     5  C   -0.170549
     6  C   -0.218762
     7  H    0.224501
     8  H    0.221579
     9  H    0.272754
    10  H    0.280197
    11  H    0.223711
    12  N    0.487325
    13  O   -0.441785
    14  O   -0.473746
    15  C   -0.171850
    16  C   -0.220422
    17  C   -0.175968
    18  C    0.156411
    19  C   -0.172160
    20  C   -0.219452
    21  H    0.221783
    22  H    0.223532
    23  H    0.292801
    24  H    0.272690
    25  H    0.219465
    26  N    0.486435
    27  O   -0.469457
    28  O   -0.445902
 Sum of Mulliken charges =  -0.00000

 Dipole moment (field-independent basis, Debye):
    X=              2.2117    Y=             -4.1722    Z=             -3.0157  Tot=              5.6030
 Quadrupole moment (field-independent basis, Debye-Ang):
   XX=            -56.2089   YY=           -102.5027   ZZ=           -106.6449
   XY=             12.5862   XZ=             -3.8945   YZ=             -0.6209

 Normal termination of Gaussian 16 at Thu May  6 08:08:51 2021.
