 Gaussian 16, Revision A.03,
 Gaussian 16:  EM64L-G16RevA.03 25-Dec-2016

 -------------
 #p 6-31g* mp2
 -------------

 ------------------------------------------------------
 Input file generated by CHIRIPA (05-May-2021 14:57:22)
 ------------------------------------------------------
 Symbolic Z-matrix:
 Charge =  0 Multiplicity = 1

                         Standard orientation:
 ---------------------------------------------------------------------
 Center     Atomic      Atomic             Coordinates (Angstroms)
 Number     Number       Type             X           Y           Z
 ---------------------------------------------------------------------
      1          6           0       -4.903736   -1.738311    0.048974
      2          6           0       -4.391575   -1.221151   -1.145495
      3          6           0       -3.597417   -0.070582   -1.138268
      4          6           0       -3.334152    0.540122    0.086894
      5          6           0       -3.829870    0.049076    1.293720
      6          6           0       -4.621746   -1.102668    1.262630
      7          1           0       -5.519771   -2.632557    0.034091
      8          1           0       -4.608936   -1.712710   -2.089513
      9          1           0       -3.188070    0.351150   -2.048210
     10          1           0       -3.595954    0.561114    2.219203
     11          1           0       -5.018151   -1.502061    2.191819
     12          7           0       -2.494621    1.758800    0.107177
     13          8           0       -2.277238    2.278233    1.199684
     14          8           0       -2.069875    2.171490   -0.969816
     15          6           0        1.183454   -1.297153   -0.540248
     16          6           0        1.462384    0.034634   -0.864382
     17          6           0        2.727191    0.575947   -0.615801
     18          6           0        3.693815   -0.246665   -0.039400
     19          6           0        3.446540   -1.577246    0.294812
     20          6           0        2.174675   -2.097432    0.037296
     21          1           0        0.198181   -1.709451   -0.736823
     22          1           0        0.694527    0.658479   -1.313001
     23          1           0        2.970155    1.603717   -0.856790
     24          1           0        4.232397   -2.174494    0.741064
     25          1           0        1.960886   -3.132056    0.290064
     26          7           0        5.036546    0.315215    0.228492
     27          8           0        5.870904   -0.430301    0.737107
     28          8           0        5.229196    1.490495   -0.075222
 ---------------------------------------------------------------------

 SCF Done:  E(RHF) =  -868.339055348     A.U. after   16 cycles
 E2 =    -0.2599214112D+01 EUMP2 =    -0.87093826946052D+03

 The electronic state is 1-A.
 Alpha  occ. eigenvalues --  -20.61812 -20.61746 -20.60336 -20.60321 -15.86805
 Alpha  occ. eigenvalues --  -15.85380 -11.32106 -11.30706 -11.28681 -11.28610
 Alpha  occ. eigenvalues --  -11.28346 -11.27650 -11.27602 -11.27304 -11.27180
 Alpha  occ. eigenvalues --  -11.27036 -11.26362 -11.26135  -1.60839  -1.59407
 Alpha  occ. eigenvalues --   -1.40396  -1.38961  -1.20261  -1.18869  -1.09661
 Alpha  occ. eigenvalues --   -1.08288  -1.05642  -1.04246  -0.96506  -0.95130
 Alpha  occ. eigenvalues --   -0.87038  -0.85659  -0.83334  -0.81945  -0.78400
 Alpha  occ. eigenvalues --   -0.76987  -0.73015  -0.72161  -0.71601  -0.71340
 Alpha  occ. eigenvalues --   -0.70727  -0.70016  -0.65902  -0.65622  -0.64522
 Alpha  occ. eigenvalues --   -0.64232  -0.62979  -0.61576  -0.56120  -0.54815
 Alpha  occ. eigenvalues --   -0.53985  -0.53714  -0.52604  -0.52323  -0.49791
 Alpha  occ. eigenvalues --   -0.49764  -0.48361  -0.48353  -0.45797  -0.44374
 Alpha  occ. eigenvalues --   -0.38234  -0.37254  -0.36885  -0.35842
 Alpha virt. eigenvalues --    0.04086   0.05519   0.10385   0.11792   0.15575
 Alpha virt. eigenvalues --    0.17017   0.20587   0.21894   0.26508   0.27253
 Alpha virt. eigenvalues --    0.28069   0.28611   0.30226   0.31310   0.31939

 Mulliken charges:
               1
     1  C   -0.171001
     2  C   -0.219521
     3  C   -0.176439
     4  C    0.156887
     5  C   -0.170478
     6  C   -0.218684
     7  H    0.228402
     8  H    0.225564
     9  H    0.274819
    10  H    0.278531
    11  H    0.226708
    12  N    0.487866
    13  O   -0.452841
    14  O   -0.465863
    15  C   -0.173381
    16  C   -0.224596
    17  C   -0.170529
    18  C    0.158562
    19  C   -0.172273
    20  C   -0.218356
    21  H    0.220493
    22  H    0.238089
    23  H    0.278832
    24  H    0.273554
    25  H    0.219497
    26  N    0.488020
    27  O   -0.462625
    28  O   -0.459240
 Sum of Mulliken charges =  -0.00000

 Dipole moment (field-independent basis, Debye):
    X=             -7.9870    Y=             -6.1300    Z=             -0.9204  Tot=             10.1102
 Quadrupole moment (field-independent basis, Debye-Ang):
   XX=           -120.4435   YY=           -105.4348   ZZ=            -99.6927
   XY=              5.8013   XZ=             -3.7133   YZ=             -1.6533

 Normal termination of Gaussian 16 at Thu May  6 01:46:54 2021.
