 Gaussian 16, Revision A.03,
 Gaussian 16:  EM64L-G16RevA.03 25-Dec-2016

 -------------
 #p 6-31g* mp2
 -------------

 ------------------------------------------------------
 Input file generated by CHIRIPA (05-May-2021 14:53:12)
 ------------------------------------------------------
 Symbolic Z-matrix:
 Charge =  0 Multiplicity = 1

                         Standard orientation:
 ---------------------------------------------------------------------
 Center     Atomic      Atomic             Coordinates (Angstroms)
 Number     Number       Type             X           Y           Z
 ---------------------------------------------------------------------
      1          6           0       -3.784569    1.185462    0.231448
      2          6           0       -2.404961    1.790136   -0.031297
      3          6           0       -2.233089    3.169545    0.605480
      4          1           0       -4.555815    1.866962   -0.152846
      5          1           0       -3.944557    1.112148    1.316079
      6          1           0       -2.247064    1.861007   -1.115115
      7          1           0       -1.636903    1.107027    0.353496
      8          1           0       -2.364126    3.111826    1.690882
      9          1           0       -2.977753    3.870090    0.213927
     10          1           0       -1.239811    3.583240    0.405194
     11          6           0       -3.971639   -0.193501   -0.398786
     12          6           0       -5.351248   -0.798175   -0.136041
     13          6           0       -5.523120   -2.177584   -0.772817
     14          1           0       -3.811651   -0.120187   -1.483416
     15          1           0       -3.200394   -0.875002   -0.014491
     16          1           0       -6.119305   -0.115066   -0.520834
     17          1           0       -5.509145   -0.869046    0.947778
     18          1           0       -4.778456   -2.878130   -0.381265
     19          1           0       -5.392083   -2.119866   -1.858220
     20          1           0       -6.516398   -2.591279   -0.572532
     21          6           0        1.355905   -2.108015    0.842463
     22          6           0        2.631066   -2.508395    0.429934
     23          6           0        3.566563   -1.563773   -0.002595
     24          6           0        3.191592   -0.221150   -0.009761
     25          6           0        1.928962    0.209067    0.395172
     26          6           0        1.009533   -0.752950    0.823797
     27          1           0        0.635429   -2.848576    1.176946
     28          1           0        2.902826   -3.560065    0.443373
     29          1           0        4.560674   -1.846108   -0.327326
     30          1           0        1.687173    1.264697    0.370636
     31          1           0        0.019952   -0.439113    1.143610
     32          7           0        4.173456    0.788087   -0.465594
     33          8           0        3.818526    1.964800   -0.462501
     34          8           0        5.279379    0.383305   -0.817336
 ---------------------------------------------------------------------

 SCF Done:  E(RHF) =  -669.535408789     A.U. after   15 cycles
 E2 =    -0.2091309695D+01 EUMP2 =    -0.67162671848380D+03

 The electronic state is 1-A.
 Alpha  occ. eigenvalues --  -20.60746 -20.60741 -15.85799 -11.31163 -11.27737
 Alpha  occ. eigenvalues --  -11.27728 -11.27482 -11.26753 -11.26731 -11.22408
 Alpha  occ. eigenvalues --  -11.22189 -11.22097 -11.22038 -11.21657 -11.21614
 Alpha  occ. eigenvalues --   -1.59821  -1.39375  -1.19338  -1.09115  -1.08734
 Alpha  occ. eigenvalues --   -1.04743  -1.04176  -0.96601  -0.95569  -0.87614
 Alpha  occ. eigenvalues --   -0.86143  -0.82406  -0.80248  -0.78934  -0.77445
 Alpha  occ. eigenvalues --   -0.72018  -0.71144  -0.70449  -0.65786  -0.64991
 Alpha  occ. eigenvalues --   -0.64743  -0.62151  -0.61528  -0.59964  -0.58215
 Alpha  occ. eigenvalues --   -0.55886  -0.55248  -0.53284  -0.53072  -0.53032
 Alpha  occ. eigenvalues --   -0.52839  -0.50540  -0.48784  -0.48772  -0.48542
 Alpha  occ. eigenvalues --   -0.47287  -0.46467  -0.46382  -0.44780  -0.44430
 Alpha  occ. eigenvalues --   -0.37321  -0.36338
 Alpha virt. eigenvalues --    0.05083   0.11288   0.16526   0.19215   0.22665
 Alpha virt. eigenvalues --    0.23597   0.24889   0.26403   0.26591   0.28493
 Alpha virt. eigenvalues --    0.29002   0.29906   0.31151   0.31396   0.32333

 Mulliken charges:
               1
     1  C   -0.298737
     2  C   -0.304094
     3  C   -0.477070
     4  H    0.153719
     5  H    0.149175
     6  H    0.157636
     7  H    0.141843
     8  H    0.155202
     9  H    0.159559
    10  H    0.163222
    11  C   -0.297107
    12  C   -0.300216
    13  C   -0.475604
    14  H    0.152697
    15  H    0.141920
    16  H    0.154497
    17  H    0.151879
    18  H    0.152640
    19  H    0.156856
    20  H    0.162206
    21  C   -0.171311
    22  C   -0.218557
    23  C   -0.170926
    24  C    0.158439
    25  C   -0.172196
    26  C   -0.222443
    27  H    0.225582
    28  H    0.223324
    29  H    0.275555
    30  H    0.275842
    31  H    0.229350
    32  N    0.488138
    33  O   -0.460452
    34  O   -0.460570
 Sum of Mulliken charges =  -0.00000

 Dipole moment (field-independent basis, Debye):
    X=             -3.6259    Y=             -3.4725    Z=              1.5377  Tot=              5.2507
 Quadrupole moment (field-independent basis, Debye-Ang):
   XX=           -114.2243   YY=            -91.2733   ZZ=            -94.9218
   XY=            -14.1750   XZ=              4.9585   YZ=             -0.4951

 Normal termination of Gaussian 16 at Thu May  6 04:06:41 2021.
