 Gaussian 16, Revision A.03,
 Gaussian 16:  EM64L-G16RevA.03 25-Dec-2016

 -------------
 #p 6-31g* mp2
 -------------

 ------------------------------------------------------
 Input file generated by CHIRIPA (05-May-2021 14:55:18)
 ------------------------------------------------------
 Symbolic Z-matrix:
 Charge =  0 Multiplicity = 1

                         Standard orientation:
 ---------------------------------------------------------------------
 Center     Atomic      Atomic             Coordinates (Angstroms)
 Number     Number       Type             X           Y           Z
 ---------------------------------------------------------------------
      1          6           0        1.581499    1.980733    1.038613
      2          6           0        1.448361    0.774464    1.734105
      3          6           0        2.075646   -0.385607    1.270103
      4          6           0        2.831871   -0.303016    0.101945
      5          6           0        2.983472    0.883896   -0.613280
      6          6           0        2.347279    2.031510   -0.130798
      7          1           0        1.090749    2.877065    1.406239
      8          1           0        0.854269    0.732070    2.642567
      9          1           0        1.989297   -1.332629    1.788861
     10          1           0        3.582261    0.894969   -1.515914
     11          1           0        2.452428    2.966934   -0.672988
     12          7           0        3.500665   -1.524537   -0.399055
     13          8           0        4.161355   -1.425444   -1.430708
     14          8           0        3.351512   -2.557928    0.249399
     15          6           0       -4.082155   -0.257132    0.038211
     16          6           0       -4.022481   -1.755814   -0.259070
     17          6           0       -5.226637   -2.517036    0.296216
     18          1           0       -4.143038   -0.107478    1.124876
     19          1           0       -5.006856    0.157343   -0.386683
     20          1           0       -3.097497   -2.167073    0.165061
     21          1           0       -3.961540   -1.901911   -1.345144
     22          1           0       -6.156967   -2.134207   -0.135675
     23          1           0       -5.288014   -2.400876    1.383111
     24          1           0       -5.163556   -3.586506    0.072348
     25          6           0       -2.885260    0.517469   -0.510572
     26          6           0       -2.944933    2.016152   -0.213292
     27          6           0       -1.740777    2.777375   -0.768578
     28          1           0       -1.960558    0.102996   -0.085679
     29          1           0       -2.824376    0.367816   -1.597237
     30          1           0       -3.005875    2.162250    0.872782
     31          1           0       -3.869918    2.427411   -0.637423
     32          1           0       -1.679401    2.661213   -1.855473
     33          1           0       -0.810449    2.394545   -0.336686
     34          1           0       -1.803858    3.846843   -0.544709
 ---------------------------------------------------------------------

 SCF Done:  E(RHF) =  -669.535162060     A.U. after   15 cycles
 E2 =    -0.2092347436D+01 EUMP2 =    -0.67162750949540D+03

 The electronic state is 1-A.
 Alpha  occ. eigenvalues --  -20.60816 -20.60810 -15.85871 -11.31263 -11.27853
 Alpha  occ. eigenvalues --  -11.27830 -11.27575 -11.26874 -11.26841 -11.22089
 Alpha  occ. eigenvalues --  -11.21790 -11.21723 -11.21647 -11.21578 -11.21224
 Alpha  occ. eigenvalues --   -1.59891  -1.39443  -1.19452  -1.08855  -1.08751
 Alpha  occ. eigenvalues --   -1.04852  -1.03872  -0.96334  -0.95667  -0.87351
 Alpha  occ. eigenvalues --   -0.86247  -0.82496  -0.79941  -0.78552  -0.77532
 Alpha  occ. eigenvalues --   -0.72089  -0.71214  -0.70568  -0.65401  -0.65101
 Alpha  occ. eigenvalues --   -0.64845  -0.62192  -0.61290  -0.59702  -0.57933
 Alpha  occ. eigenvalues --   -0.55747  -0.55270  -0.53287  -0.53026  -0.52939
 Alpha  occ. eigenvalues --   -0.52658  -0.50255  -0.48849  -0.48841  -0.48245
 Alpha  occ. eigenvalues --   -0.46972  -0.46098  -0.46015  -0.44843  -0.44124
 Alpha  occ. eigenvalues --   -0.37348  -0.36454
 Alpha virt. eigenvalues --    0.04968   0.11159   0.16390   0.20996   0.22671
 Alpha virt. eigenvalues --    0.24073   0.26313   0.26992   0.27203   0.27535
 Alpha virt. eigenvalues --    0.28816   0.30907   0.31236   0.31543   0.31756

 Mulliken charges:
               1
     1  C   -0.172872
     2  C   -0.219538
     3  C   -0.171072
     4  C    0.158873
     5  C   -0.170498
     6  C   -0.216831
     7  H    0.228866
     8  H    0.223984
     9  H    0.275940
    10  H    0.276142
    11  H    0.225128
    12  N    0.488096
    13  O   -0.460078
    14  O   -0.460296
    15  C   -0.298371
    16  C   -0.299927
    17  C   -0.475890
    18  H    0.147485
    19  H    0.150159
    20  H    0.152479
    21  H    0.153701
    22  H    0.155341
    23  H    0.154259
    24  H    0.162124
    25  C   -0.299350
    26  C   -0.298098
    27  C   -0.485764
    28  H    0.150312
    29  H    0.151830
    30  H    0.147516
    31  H    0.153710
    32  H    0.157744
    33  H    0.159183
    34  H    0.155716
 Sum of Mulliken charges =  -0.00000

 Dipole moment (field-independent basis, Debye):
    X=             -2.3016    Y=              4.2353    Z=              1.7321  Tot=              5.1220
 Quadrupole moment (field-independent basis, Debye-Ang):
   XX=           -108.4080   YY=            -97.1406   ZZ=            -91.0298
   XY=             13.8254   XZ=              3.9768   YZ=             -2.2536

 Normal termination of Gaussian 16 at Thu May  6 10:46:31 2021.
