 Gaussian 16, Revision A.03,
 Gaussian 16:  EM64L-G16RevA.03 25-Dec-2016

 -------------
 #p 6-31g* mp2
 -------------

 ------------------------------------------------------
 Input file generated by CHIRIPA (05-May-2021 14:53:11)
 ------------------------------------------------------
 Symbolic Z-matrix:
 Charge =  0 Multiplicity = 1

                         Standard orientation:
 ---------------------------------------------------------------------
 Center     Atomic      Atomic             Coordinates (Angstroms)
 Number     Number       Type             X           Y           Z
 ---------------------------------------------------------------------
      1          6           0        3.482882   -0.558331    0.164049
      2          6           0        2.275446    0.354033   -0.054299
      3          6           0        0.950111   -0.327353    0.287743
      4          1           0        3.365795   -1.463504   -0.447423
      5          1           0        3.499167   -0.888886    1.211838
      6          1           0        2.262222    0.683879   -1.101028
      7          1           0        2.395514    1.257227    0.557617
      8          1           0        0.937865   -0.641563    1.336420
      9          1           0        0.803817   -1.218168   -0.331650
     10          1           0        0.100301    0.342724    0.124408
     11          6           0        4.815115    0.108671   -0.173576
     12          6           0        6.022550   -0.803693    0.044772
     13          6           0        7.347885   -0.122307   -0.297271
     14          1           0        4.798829    0.439226   -1.221366
     15          1           0        4.932202    1.013844    0.437896
     16          1           0        5.902483   -1.706887   -0.567145
     17          1           0        6.035774   -1.133539    1.091501
     18          1           0        7.494180    0.768508    0.322122
     19          1           0        7.360131    0.191903   -1.345948
     20          1           0        8.197695   -0.792384   -0.133936
     21          6           0       -1.931954    2.320963    0.224824
     22          6           0       -2.463723    1.950018   -1.014589
     23          6           0       -3.190939    0.763554   -1.148772
     24          6           0       -3.367998   -0.031753   -0.017654
     25          6           0       -2.850649    0.310612    1.230716
     26          6           0       -2.126771    1.501520    1.341552
     27          1           0       -1.368332    3.244364    0.319993
     28          1           0       -2.314002    2.584455   -1.883564
     29          1           0       -3.613614    0.452365   -2.096361
     30          1           0       -3.016507   -0.342413    2.078930
     31          1           0       -1.714947    1.787084    2.305346
     32          7           0       -4.136102   -1.290162   -0.147350
     33          8           0       -4.278069   -1.973447    0.864384
     34          8           0       -4.581630   -1.569391   -1.258283
 ---------------------------------------------------------------------

 SCF Done:  E(RHF) =  -669.534220076     A.U. after   15 cycles
 E2 =    -0.2093058996D+01 EUMP2 =    -0.67162727907270D+03

 The electronic state is 1-A.
 Alpha  occ. eigenvalues --  -20.60801 -20.60796 -15.85854 -11.31262 -11.27828
 Alpha  occ. eigenvalues --  -11.27791 -11.27538 -11.26859 -11.26802 -11.21861
 Alpha  occ. eigenvalues --  -11.21770 -11.21607 -11.21545 -11.21237 -11.21037
 Alpha  occ. eigenvalues --   -1.59874  -1.39427  -1.19440  -1.08833  -1.08625
 Alpha  occ. eigenvalues --   -1.04836  -1.03706  -0.96140  -0.95648  -0.87160
 Alpha  occ. eigenvalues --   -0.86227  -0.82474  -0.79782  -0.78450  -0.77516
 Alpha  occ. eigenvalues --   -0.72072  -0.71196  -0.70529  -0.65264  -0.65078
 Alpha  occ. eigenvalues --   -0.64830  -0.62172  -0.61112  -0.59604  -0.57818
 Alpha  occ. eigenvalues --   -0.55429  -0.55328  -0.53818  -0.52918  -0.52621
 Alpha  occ. eigenvalues --   -0.52050  -0.50086  -0.48834  -0.48825  -0.48076
 Alpha  occ. eigenvalues --   -0.46829  -0.45986  -0.45921  -0.44824  -0.43941
 Alpha  occ. eigenvalues --   -0.37367  -0.36394
 Alpha virt. eigenvalues --    0.04998   0.11189   0.16457   0.21293   0.22698
 Alpha virt. eigenvalues --    0.24242   0.26415   0.27131   0.27314   0.28032
 Alpha virt. eigenvalues --    0.28299   0.30866   0.31237   0.31739   0.32361

 Mulliken charges:
               1
     1  C   -0.298036
     2  C   -0.298576
     3  C   -0.484961
     4  H    0.151651
     5  H    0.149484
     6  H    0.150179
     7  H    0.145746
     8  H    0.150534
     9  H    0.156971
    10  H    0.172166
    11  C   -0.298073
    12  C   -0.299784
    13  C   -0.475730
    14  H    0.149090
    15  H    0.148003
    16  H    0.152996
    17  H    0.152145
    18  H    0.154568
    19  H    0.155133
    20  H    0.160995
    21  C   -0.175497
    22  C   -0.216353
    23  C   -0.171402
    24  C    0.160330
    25  C   -0.168409
    26  C   -0.217826
    27  H    0.226448
    28  H    0.224125
    29  H    0.276010
    30  H    0.276034
    31  H    0.224181
    32  N    0.488068
    33  O   -0.459910
    34  O   -0.460298
 Sum of Mulliken charges =  -0.00000

 Dipole moment (field-independent basis, Debye):
    X=              2.5960    Y=              4.4299    Z=              0.4462  Tot=              5.1539
 Quadrupole moment (field-independent basis, Debye-Ang):
   XX=           -114.8149   YY=            -95.5247   ZZ=            -89.1560
   XY=            -15.7328   XZ=             -0.5786   YZ=             -0.7168

 Normal termination of Gaussian 16 at Wed May  5 16:56:22 2021.
