 Gaussian 16, Revision A.03,
 Gaussian 16:  EM64L-G16RevA.03 25-Dec-2016

 -------------
 #p 6-31g* mp2
 -------------

 ------------------------------------------------------
 Input file generated by CHIRIPA (05-May-2021 14:51:10)
 ------------------------------------------------------
 Symbolic Z-matrix:
 Charge =  0 Multiplicity = 1

                         Standard orientation:
 ---------------------------------------------------------------------
 Center     Atomic      Atomic             Coordinates (Angstroms)
 Number     Number       Type             X           Y           Z
 ---------------------------------------------------------------------
      1          6           0       -2.933081    1.275862   -0.185100
      2          6           0       -1.832742    1.517520    0.848748
      3          6           0       -1.131276    2.863193    0.661927
      4          1           0       -2.498419    1.327624   -1.192738
      5          1           0       -3.671305    2.087232   -0.121077
      6          1           0       -1.097538    0.705199    0.783736
      7          1           0       -2.270037    1.464986    1.854048
      8          1           0       -1.847917    3.686392    0.747773
      9          1           0       -0.668755    2.922288   -0.328620
     10          1           0       -0.348434    3.015336    1.411508
     11          6           0       -3.643592   -0.065304   -0.011388
     12          6           0       -4.743932   -0.306962   -1.045235
     13          6           0       -5.445398   -1.652636   -0.858414
     14          1           0       -2.905369   -0.876675   -0.075411
     15          1           0       -4.078254   -0.117066    0.996250
     16          1           0       -4.306636   -0.254429   -2.050535
     17          1           0       -5.479136    0.505358   -0.980223
     18          1           0       -5.907918   -1.711731    0.132133
     19          1           0       -4.728756   -2.475835   -0.944261
     20          1           0       -6.228239   -1.804779   -1.607995
     21          6           0        3.789085   -0.030682    0.048031
     22          6           0        4.887772   -0.272597   -0.987511
     23          6           0        5.881836    0.885741   -1.076307
     24          1           0        3.253958    0.895109   -0.203952
     25          1           0        4.251326    0.133222    1.031324
     26          1           0        4.423534   -0.437368   -1.968301
     27          1           0        5.420221   -1.198021   -0.733140
     28          1           0        6.371731    1.047846   -0.110737
     29          1           0        5.369381    1.812821   -1.352915
     30          1           0        6.658627    0.691834   -1.822536
     31          6           0        2.787589   -1.179876    0.148456
     32          6           0        1.688901   -0.937960    1.183998
     33          6           0        0.694837   -2.096298    1.272795
     34          1           0        2.325348   -1.343779   -0.834836
     35          1           0        3.322716   -2.105667    0.400440
     36          1           0        1.156452   -0.012536    0.929628
     37          1           0        2.153140   -0.773190    2.164788
     38          1           0        1.207292   -3.023378    1.549403
     39          1           0        0.204943   -2.258403    0.307225
     40          1           0       -0.081953   -1.902392    2.019023
 ---------------------------------------------------------------------

 SCF Done:  E(RHF) =  -470.733288923     A.U. after   11 cycles
 E2 =    -0.1583110229D+01 EUMP2 =    -0.47231639915200D+03

 The electronic state is 1-A.
 Alpha  occ. eigenvalues --  -11.21613 -11.21612 -11.21596 -11.21576 -11.21423
 Alpha  occ. eigenvalues --  -11.21398 -11.21363 -11.21338 -11.21111 -11.21093
 Alpha  occ. eigenvalues --  -11.21078 -11.21062  -1.08461  -1.08416  -1.03578
 Alpha  occ. eigenvalues --   -1.03506  -0.96005  -0.95978  -0.87017  -0.86994
 Alpha  occ. eigenvalues --   -0.79665  -0.79548  -0.78299  -0.78202  -0.65205
 Alpha  occ. eigenvalues --   -0.64960  -0.61138  -0.60770  -0.59430  -0.59279
 Alpha  occ. eigenvalues --   -0.57658  -0.57539  -0.55303  -0.55261  -0.52708
 Alpha  occ. eigenvalues --   -0.52658  -0.52438  -0.52389  -0.49975  -0.49895
 Alpha  occ. eigenvalues --   -0.47996  -0.47874  -0.46856  -0.46446  -0.45910
 Alpha  occ. eigenvalues --   -0.45766  -0.45749  -0.45481  -0.43802  -0.43780
 Alpha virt. eigenvalues --    0.20678   0.23229   0.23694   0.24232   0.26250
 Alpha virt. eigenvalues --    0.26727   0.27033   0.27144   0.28627   0.29529
 Alpha virt. eigenvalues --    0.30898   0.31413   0.31492   0.31922   0.31990

 Mulliken charges:
               1
     1  C   -0.297515
     2  C   -0.308896
     3  C   -0.475940
     4  H    0.149055
     5  H    0.149495
     6  H    0.161271
     7  H    0.151908
     8  H    0.155540
     9  H    0.154350
    10  H    0.160710
    11  C   -0.299293
    12  C   -0.299626
    13  C   -0.475711
    14  H    0.150677
    15  H    0.149609
    16  H    0.151723
    17  H    0.151914
    18  H    0.155209
    19  H    0.155334
    20  H    0.160179
    21  C   -0.298516
    22  C   -0.299648
    23  C   -0.475738
    24  H    0.149974
    25  H    0.149624
    26  H    0.151819
    27  H    0.151967
    28  H    0.155231
    29  H    0.155282
    30  H    0.160270
    31  C   -0.297658
    32  C   -0.306582
    33  C   -0.476809
    34  H    0.149063
    35  H    0.149749
    36  H    0.157734
    37  H    0.152336
    38  H    0.155660
    39  H    0.154381
    40  H    0.161870
 Sum of Mulliken charges =  -0.00000

 Dipole moment (field-independent basis, Debye):
    X=              0.0112    Y=             -0.0066    Z=              0.0192  Tot=              0.0232
 Quadrupole moment (field-independent basis, Debye-Ang):
   XX=            -85.0049   YY=            -85.8656   ZZ=            -83.8923
   XY=             -1.7127   XZ=              0.1339   YZ=              0.0860

 Normal termination of Gaussian 16 at Wed May  5 19:47:29 2021.
