 Gaussian 16, Revision A.03,
 Gaussian 16:  EM64L-G16RevA.03 25-Dec-2016

 -------------
 #p 6-31g* mp2
 -------------

 ------------------------------------------------------
 Input file generated by CHIRIPA (05-May-2021 14:57:22)
 ------------------------------------------------------
 Symbolic Z-matrix:
 Charge =  0 Multiplicity = 1

                         Standard orientation:
 ---------------------------------------------------------------------
 Center     Atomic      Atomic             Coordinates (Angstroms)
 Number     Number       Type             X           Y           Z
 ---------------------------------------------------------------------
      1          6           0        1.993836    1.300268   -0.778977
      2          6           0        3.081136    1.952529   -0.188337
      3          6           0        4.198911    1.227784    0.235776
      4          6           0        4.195800   -0.154197    0.052993
      5          6           0        3.127916   -0.832862   -0.532093
      6          6           0        2.020649   -0.087899   -0.948671
      7          1           0        1.129603    1.871120   -1.105512
      8          1           0        3.063071    3.030497   -0.055282
      9          1           0        5.054267    1.707329    0.696015
     10          1           0        3.174991   -1.908491   -0.651366
     11          1           0        1.177664   -0.597117   -1.407058
     12          7           0        5.373577   -0.932154    0.497994
     13          8           0        5.346296   -2.148789    0.325681
     14          8           0        6.301697   -0.310551    1.010673
     15          6           0       -6.172971   -1.123865    0.594206
     16          6           0       -5.369378   -1.620210   -0.437493
     17          6           0       -4.164310   -0.991177   -0.764104
     18          6           0       -3.791777    0.137143   -0.035130
     19          6           0       -4.570685    0.655695    0.998164
     20          6           0       -5.771767    0.010504    1.307484
     21          1           0       -7.107549   -1.618789    0.841210
     22          1           0       -5.678443   -2.501001   -0.993128
     23          1           0       -3.523021   -1.354226   -1.558058
     24          1           0       -4.236089    1.535543    1.534196
     25          1           0       -6.393837    0.398194    2.109212
     26          7           0       -2.518135    0.811625   -0.371747
     27          8           0       -2.212311    1.804131    0.285552
     28          8           0       -1.849796    0.335008   -1.286512
 ---------------------------------------------------------------------

 SCF Done:  E(RHF) =  -868.341549842     A.U. after   16 cycles
 E2 =    -0.2598377021D+01 EUMP2 =    -0.87093992686299D+03

 The electronic state is 1-A.
 Alpha  occ. eigenvalues --  -20.62038 -20.62007 -20.59899 -20.59894 -15.87016
 Alpha  occ. eigenvalues --  -15.84944 -11.32005 -11.30025 -11.28535 -11.28513
 Alpha  occ. eigenvalues --  -11.28191 -11.27453 -11.27440 -11.26601 -11.26550
 Alpha  occ. eigenvalues --  -11.26000 -11.25479 -11.25312  -1.61066  -1.58983
 Alpha  occ. eigenvalues --   -1.40630  -1.38544  -1.20139  -1.18145  -1.09605
 Alpha  occ. eigenvalues --   -1.07535  -1.05484  -1.03515  -0.96504  -0.94429
 Alpha  occ. eigenvalues --   -0.86899  -0.84884  -0.83352  -0.81293  -0.78439
 Alpha  occ. eigenvalues --   -0.76423  -0.73262  -0.72343  -0.71240  -0.71166
 Alpha  occ. eigenvalues --   -0.70305  -0.69116  -0.65796  -0.65482  -0.63764
 Alpha  occ. eigenvalues --   -0.63459  -0.62836  -0.60874  -0.55997  -0.53831
 Alpha  occ. eigenvalues --   -0.53826  -0.53570  -0.51859  -0.51570  -0.50027
 Alpha  occ. eigenvalues --   -0.49983  -0.47940  -0.47892  -0.46107  -0.44016
 Alpha  occ. eigenvalues --   -0.38091  -0.37067  -0.36027  -0.35149
 Alpha virt. eigenvalues --    0.04057   0.06108   0.10594   0.12533   0.15624
 Alpha virt. eigenvalues --    0.17710   0.20759   0.22929   0.26708   0.27582
 Alpha virt. eigenvalues --    0.28639   0.29822   0.30459   0.31800   0.32607

 Mulliken charges:
               1
     1  C   -0.171363
     2  C   -0.220320
     3  C   -0.172910
     4  C    0.156958
     5  C   -0.173857
     6  C   -0.223416
     7  H    0.243815
     8  H    0.220731
     9  H    0.271171
    10  H    0.270430
    11  H    0.234236
    12  N    0.488350
    13  O   -0.464227
    14  O   -0.463889
    15  C   -0.169323
    16  C   -0.218407
    17  C   -0.170248
    18  C    0.157879
    19  C   -0.169905
    20  C   -0.218478
    21  H    0.228642
    22  H    0.225958
    23  H    0.274553
    24  H    0.276544
    25  H    0.226160
    26  N    0.491322
    27  O   -0.459103
    28  O   -0.471304
 Sum of Mulliken charges =  -0.00000

 Dipole moment (field-independent basis, Debye):
    X=             -9.4026    Y=              0.4462    Z=             -0.3958  Tot=              9.4215
 Quadrupole moment (field-independent basis, Debye-Ang):
   XX=           -106.1781   YY=           -101.0559   ZZ=           -103.0806
   XY=             22.7116   XZ=            -11.7136   YZ=              4.9668

 Normal termination of Gaussian 16 at Thu May  6 21:07:39 2021.
