 Gaussian 16, Revision A.03,
 Gaussian 16:  EM64L-G16RevA.03 25-Dec-2016

 -------------
 #p 6-31g* mp2
 -------------

 ------------------------------------------------------
 Input file generated by CHIRIPA (05-May-2021 14:51:10)
 ------------------------------------------------------
 Symbolic Z-matrix:
 Charge =  0 Multiplicity = 1

                         Standard orientation:
 ---------------------------------------------------------------------
 Center     Atomic      Atomic             Coordinates (Angstroms)
 Number     Number       Type             X           Y           Z
 ---------------------------------------------------------------------
      1          6           0       -4.870639    0.083218   -0.491406
      2          6           0       -5.711604   -0.969588    0.231342
      3          6           0       -6.828745   -1.537239   -0.644764
      4          1           0       -5.525403    0.898901   -0.827397
      5          1           0       -4.436846   -0.362653   -1.397176
      6          1           0       -6.142558   -0.522257    1.136211
      7          1           0       -5.054733   -1.782768    0.565819
      8          1           0       -6.413340   -2.008759   -1.541262
      9          1           0       -7.507347   -0.741087   -0.967628
     10          1           0       -7.417406   -2.287981   -0.108364
     11          6           0       -3.749751    0.660088    0.371471
     12          6           0       -2.908787    1.712894   -0.351277
     13          6           0       -1.791646    2.280545    0.524828
     14          1           0       -4.183545    1.105959    1.277241
     15          1           0       -3.094988   -0.155595    0.707462
     16          1           0       -3.565658    2.526074   -0.685754
     17          1           0       -2.477832    1.265563   -1.256147
     18          1           0       -1.113044    1.484393    0.847693
     19          1           0       -2.207051    2.752066    1.421326
     20          1           0       -1.202985    3.031288   -0.011572
     21          6           0        3.567396   -0.258175   -0.077161
     22          6           0        2.650694   -1.016549    0.883312
     23          6           0        1.167735   -0.779431    0.596258
     24          1           0        3.347185    0.816205   -0.012657
     25          1           0        3.339250   -0.562665   -1.108000
     26          1           0        2.881449   -0.711742    1.912127
     27          1           0        2.873244   -2.089230    0.816654
     28          1           0        0.915766   -1.100875   -0.419511
     29          1           0        0.924018    0.284440    0.682186
     30          1           0        0.530462   -1.330945    1.294524
     31          6           0        5.052995   -0.485131    0.197096
     32          6           0        5.969697    0.273243   -0.763377
     33          6           0        7.452656    0.036124   -0.476322
     34          1           0        5.281142   -0.180642    1.227936
     35          1           0        5.273205   -1.559511    0.132592
     36          1           0        5.747145    1.345924   -0.696719
     37          1           0        5.738941   -0.031563   -1.792192
     38          1           0        7.696373   -1.027745   -0.562251
     39          1           0        7.704624    0.357568    0.539447
     40          1           0        8.089929    0.587639   -1.174589
 ---------------------------------------------------------------------

 SCF Done:  E(RHF) =  -470.733267110     A.U. after   11 cycles
 E2 =    -0.1582325970D+01 EUMP2 =    -0.47231559308079D+03

 The electronic state is 1-A.
 Alpha  occ. eigenvalues --  -11.21631 -11.21609 -11.21570 -11.21540 -11.21419
 Alpha  occ. eigenvalues --  -11.21360 -11.21357 -11.21295 -11.21111 -11.21077
 Alpha  occ. eigenvalues --  -11.21047 -11.20979  -1.08448  -1.08380  -1.03557
 Alpha  occ. eigenvalues --   -1.03476  -0.96021  -0.95918  -0.87054  -0.86924
 Alpha  occ. eigenvalues --   -0.79647  -0.79519  -0.78261  -0.78190  -0.65088
 Alpha  occ. eigenvalues --   -0.65003  -0.61029  -0.60818  -0.59374  -0.59296
 Alpha  occ. eigenvalues --   -0.57638  -0.57528  -0.55460  -0.55082  -0.52711
 Alpha  occ. eigenvalues --   -0.52634  -0.52494  -0.52286  -0.50127  -0.49694
 Alpha  occ. eigenvalues --   -0.47987  -0.47801  -0.46736  -0.46462  -0.45821
 Alpha  occ. eigenvalues --   -0.45738  -0.45702  -0.45617  -0.43805  -0.43738
 Alpha virt. eigenvalues --    0.22138   0.22953   0.23668   0.24700   0.26144
 Alpha virt. eigenvalues --    0.26604   0.27205   0.27420   0.27811   0.28907
 Alpha virt. eigenvalues --    0.30565   0.31489   0.31561   0.31792   0.32030

 Mulliken charges:
               1
     1  C   -0.298274
     2  C   -0.299627
     3  C   -0.475672
     4  H    0.149483
     5  H    0.149506
     6  H    0.151827
     7  H    0.151941
     8  H    0.155130
     9  H    0.155117
    10  H    0.160128
    11  C   -0.298712
    12  C   -0.298796
    13  C   -0.483085
    14  H    0.149210
    15  H    0.150504
    16  H    0.151509
    17  H    0.152072
    18  H    0.163350
    19  H    0.154638
    20  H    0.159264
    21  C   -0.298564
    22  C   -0.299409
    23  C   -0.481211
    24  H    0.150140
    25  H    0.149475
    26  H    0.152233
    27  H    0.151949
    28  H    0.155136
    29  H    0.160705
    30  H    0.159850
    31  C   -0.298337
    32  C   -0.299683
    33  C   -0.475721
    34  H    0.149630
    35  H    0.149642
    36  H    0.152046
    37  H    0.151912
    38  H    0.155169
    39  H    0.155229
    40  H    0.160292
 Sum of Mulliken charges =  -0.00000

 Dipole moment (field-independent basis, Debye):
    X=              0.0317    Y=             -0.0094    Z=              0.0037  Tot=              0.0333
 Quadrupole moment (field-independent basis, Debye-Ang):
   XX=            -86.4222   YY=            -83.9397   ZZ=            -84.5463
   XY=             -0.7681   XZ=             -0.7276   YZ=              0.5236

 Normal termination of Gaussian 16 at Thu May  6 03:46:33 2021.
