 Gaussian 16, Revision A.03,
 Gaussian 16:  EM64L-G16RevA.03 25-Dec-2016

 -------------
 #p 6-31g* mp2
 -------------

 ------------------------------------------------------
 Input file generated by CHIRIPA (05-May-2021 14:51:12)
 ------------------------------------------------------
 Symbolic Z-matrix:
 Charge =  0 Multiplicity = 1

                         Standard orientation:
 ---------------------------------------------------------------------
 Center     Atomic      Atomic             Coordinates (Angstroms)
 Number     Number       Type             X           Y           Z
 ---------------------------------------------------------------------
      1          6           0       -4.017824   -0.553342    0.393255
      2          6           0       -4.155765   -1.751230   -0.546969
      3          6           0       -4.682554   -3.000265    0.160279
      4          1           0       -3.344952   -0.819675    1.219847
      5          1           0       -4.995880   -0.335485    0.844189
      6          1           0       -3.178034   -1.965897   -0.997052
      7          1           0       -4.828236   -1.481951   -1.371521
      8          1           0       -5.669158   -2.809651    0.594881
      9          1           0       -4.009580   -3.296348    0.971477
     10          1           0       -4.773406   -3.844449   -0.530343
     11          6           0       -3.492293    0.702895   -0.299142
     12          6           0       -3.354352    1.900784    0.641082
     13          6           0       -2.827563    3.149819   -0.066166
     14          1           0       -2.514238    0.485039   -0.750076
     15          1           0       -4.165166    0.969229   -1.125734
     16          1           0       -2.681881    1.631504    1.465634
     17          1           0       -4.332084    2.115451    1.091165
     18          1           0       -3.500538    3.445901   -0.877364
     19          1           0       -1.840959    2.959205   -0.500768
     20          1           0       -2.736712    3.994003    0.624456
     21          6           0        4.468332    0.031177   -0.298943
     22          6           0        5.522062   -0.688612    0.543401
     23          6           0        6.944035   -0.467079    0.026961
     24          1           0        4.540331   -0.315166   -1.339044
     25          1           0        4.691376    1.107042   -0.311604
     26          1           0        5.296306   -1.762624    0.555606
     27          1           0        5.447419   -0.340656    1.581654
     28          1           0        7.193649    0.598884    0.030971
     29          1           0        7.041678   -0.831163   -1.000906
     30          1           0        7.681259   -0.990474    0.643741
     31          6           0        3.041786   -0.180731    0.204830
     32          6           0        1.988055    0.539058   -0.637513
     33          6           0        0.566082    0.317526   -0.121074
     34          1           0        2.818742   -1.256595    0.217491
     35          1           0        2.969786    0.165612    1.244930
     36          1           0        2.062698    0.191103   -1.675768
     37          1           0        2.213811    1.613070   -0.649720
     38          1           0        0.468439    0.681609    0.906792
     39          1           0        0.316468   -0.748437   -0.125084
     40          1           0       -0.171142    0.840920   -0.737854
 ---------------------------------------------------------------------

 SCF Done:  E(RHF) =  -470.733007512     A.U. after   11 cycles
 E2 =    -0.1583124302D+01 EUMP2 =    -0.47231613181402D+03

 The electronic state is 1-A.
 Alpha  occ. eigenvalues --  -11.21679 -11.21633 -11.21547 -11.21522 -11.21456
 Alpha  occ. eigenvalues --  -11.21394 -11.21310 -11.21233 -11.21182 -11.21095
 Alpha  occ. eigenvalues --  -11.21032 -11.21022  -1.08486  -1.08350  -1.03598
 Alpha  occ. eigenvalues --   -1.03464  -0.96049  -0.95916  -0.87076  -0.86930
 Alpha  occ. eigenvalues --   -0.79670  -0.79523  -0.78297  -0.78164  -0.65113
 Alpha  occ. eigenvalues --   -0.65004  -0.61017  -0.60882  -0.59446  -0.59235
 Alpha  occ. eigenvalues --   -0.57653  -0.57530  -0.55373  -0.55166  -0.52783
 Alpha  occ. eigenvalues --   -0.52614  -0.52473  -0.52341  -0.49987  -0.49856
 Alpha  occ. eigenvalues --   -0.48003  -0.47832  -0.46688  -0.46549  -0.45842
 Alpha  occ. eigenvalues --   -0.45765  -0.45711  -0.45626  -0.43756  -0.43706
 Alpha virt. eigenvalues --    0.20878   0.22989   0.23637   0.24854   0.26135
 Alpha virt. eigenvalues --    0.26451   0.26857   0.27603   0.27927   0.29228
 Alpha virt. eigenvalues --    0.30163   0.30871   0.31797   0.32008   0.32182

 Mulliken charges:
               1
     1  C   -0.297870
     2  C   -0.299753
     3  C   -0.475666
     4  H    0.149999
     5  H    0.149037
     6  H    0.151878
     7  H    0.151706
     8  H    0.155107
     9  H    0.155083
    10  H    0.159942
    11  C   -0.304479
    12  C   -0.299356
    13  C   -0.478244
    14  H    0.156818
    15  H    0.148677
    16  H    0.152697
    17  H    0.151556
    18  H    0.154889
    19  H    0.156795
    20  H    0.159968
    21  C   -0.298319
    22  C   -0.299666
    23  C   -0.475736
    24  H    0.149765
    25  H    0.149699
    26  H    0.151966
    27  H    0.152001
    28  H    0.155262
    29  H    0.155239
    30  H    0.160363
    31  C   -0.298802
    32  C   -0.299590
    33  C   -0.482004
    34  H    0.149578
    35  H    0.149760
    36  H    0.152300
    37  H    0.152404
    38  H    0.155968
    39  H    0.155095
    40  H    0.165931
 Sum of Mulliken charges =  -0.00000

 Dipole moment (field-independent basis, Debye):
    X=              0.0559    Y=             -0.0038    Z=             -0.0009  Tot=              0.0560
 Quadrupole moment (field-independent basis, Debye-Ang):
   XX=            -85.3165   YY=            -85.0735   ZZ=            -84.5828
   XY=             -0.6056   XZ=              0.6599   YZ=              0.8247

 Normal termination of Gaussian 16 at Wed May  5 21:30:17 2021.
