 Gaussian 16, Revision A.03,
 Gaussian 16:  EM64L-G16RevA.03 25-Dec-2016

 -------------
 #p 6-31g* mp2
 -------------

 ------------------------------------------------------
 Input file generated by CHIRIPA (05-May-2021 14:57:26)
 ------------------------------------------------------
 Symbolic Z-matrix:
 Charge =  0 Multiplicity = 1

                         Standard orientation:
 ---------------------------------------------------------------------
 Center     Atomic      Atomic             Coordinates (Angstroms)
 Number     Number       Type             X           Y           Z
 ---------------------------------------------------------------------
      1          6           0        5.831663    0.797975   -1.179801
      2          6           0        6.010739    0.204414    0.074048
      3          6           0        4.918116   -0.309014    0.779112
      4          6           0        3.654769   -0.211597    0.197946
      5          6           0        3.444073    0.374005   -1.049438
      6          6           0        4.551159    0.880730   -1.736561
      7          1           0        6.686057    1.194215   -1.720543
      8          1           0        7.004044    0.138761    0.508882
      9          1           0        5.028269   -0.773628    1.751438
     10          1           0        2.441763    0.424866   -1.457122
     11          1           0        4.409101    1.341164   -2.710145
     12          7           0        2.490403   -0.751592    0.934869
     13          8           0        1.387637   -0.653454    0.401096
     14          8           0        2.702585   -1.262753    2.032288
     15          6           0       -3.565318    2.531283    0.619929
     16          6           0       -2.446573    1.698717    0.511480
     17          6           0       -2.590606    0.362472    0.126443
     18          6           0       -3.873871   -0.110264   -0.143820
     19          6           0       -5.007934    0.694337   -0.044768
     20          6           0       -4.840181    2.027325    0.341949
     21          1           0       -3.444217    3.568046    0.919686
     22          1           0       -1.455287    2.087381    0.726745
     23          1           0       -1.741654   -0.304050    0.034547
     24          1           0       -5.983341    0.278273   -0.265879
     25          1           0       -5.710810    2.671604    0.425339
     26          7           0       -4.038908   -1.523162   -0.552330
     27          8           0       -5.180235   -1.915478   -0.784923
     28          8           0       -3.023813   -2.211523   -0.632191
 ---------------------------------------------------------------------

 SCF Done:  E(RHF) =  -868.339019766     A.U. after   16 cycles
 E2 =    -0.2598636826D+01 EUMP2 =    -0.87093765659158D+03

 The electronic state is 1-A.
 Alpha  occ. eigenvalues --  -20.61277 -20.61237 -20.59948 -20.59912 -15.86308
 Alpha  occ. eigenvalues --  -15.84983 -11.31546 -11.30310 -11.28110 -11.28084
 Alpha  occ. eigenvalues --  -11.27813 -11.27088 -11.27072 -11.26978 -11.26732
 Alpha  occ. eigenvalues --  -11.26725 -11.26005 -11.25864  -1.60318  -1.59013
 Alpha  occ. eigenvalues --   -1.39880  -1.38562  -1.19704  -1.18512  -1.09120
 Alpha  occ. eigenvalues --   -1.07936  -1.05089  -1.03893  -0.95976  -0.94757
 Alpha  occ. eigenvalues --   -0.86493  -0.85307  -0.82817  -0.81576  -0.77879
 Alpha  occ. eigenvalues --   -0.76604  -0.72535  -0.71632  -0.71202  -0.70811
 Alpha  occ. eigenvalues --   -0.70340  -0.69626  -0.65361  -0.65088  -0.64164
 Alpha  occ. eigenvalues --   -0.63904  -0.62438  -0.61202  -0.55590  -0.54456
 Alpha  occ. eigenvalues --   -0.53425  -0.53179  -0.52263  -0.51974  -0.49287
 Alpha  occ. eigenvalues --   -0.49254  -0.47976  -0.47944  -0.45311  -0.43975
 Alpha  occ. eigenvalues --   -0.37676  -0.36688  -0.36548  -0.35505
 Alpha virt. eigenvalues --    0.04649   0.05900   0.10968   0.12136   0.16164
 Alpha virt. eigenvalues --    0.17368   0.21081   0.22248   0.27027   0.27652
 Alpha virt. eigenvalues --    0.28357   0.29166   0.30748   0.31764   0.32222

 Mulliken charges:
               1
     1  C   -0.170359
     2  C   -0.218508
     3  C   -0.170456
     4  C    0.157827
     5  C   -0.171139
     6  C   -0.218471
     7  H    0.226857
     8  H    0.224738
     9  H    0.276603
    10  H    0.274188
    11  H    0.224464
    12  N    0.492787
    13  O   -0.470713
    14  O   -0.455750
    15  C   -0.171388
    16  C   -0.221764
    17  C   -0.176711
    18  C    0.156822
    19  C   -0.171538
    20  C   -0.219757
    21  H    0.221734
    22  H    0.224882
    23  H    0.296649
    24  H    0.272891
    25  H    0.219807
    26  N    0.487283
    27  O   -0.465096
    28  O   -0.455880
 Sum of Mulliken charges =  -0.00000

 Dipole moment (field-independent basis, Debye):
    X=              5.1405    Y=              6.7588    Z=             -1.1246  Tot=              8.5657
 Quadrupole moment (field-independent basis, Debye-Ang):
   XX=            -73.6291   YY=           -107.9451   ZZ=           -104.5103
   XY=            -14.7227   XZ=            -11.5750   YZ=             -1.3847

 Normal termination of Gaussian 16 at Thu May  6 03:35:16 2021.
