 Gaussian 16, Revision A.03,
 Gaussian 16:  EM64L-G16RevA.03 25-Dec-2016

 -------------
 #p 6-31g* mp2
 -------------

 ------------------------------------------------------
 Input file generated by CHIRIPA (05-May-2021 14:55:20)
 ------------------------------------------------------
 Symbolic Z-matrix:
 Charge =  0 Multiplicity = 1

                         Standard orientation:
 ---------------------------------------------------------------------
 Center     Atomic      Atomic             Coordinates (Angstroms)
 Number     Number       Type             X           Y           Z
 ---------------------------------------------------------------------
      1          6           0       -2.108763    2.820616   -0.046431
      2          6           0       -3.463989    2.474460   -0.038727
      3          6           0       -3.853792    1.132035   -0.016446
      4          6           0       -2.857418    0.157187   -0.002264
      5          6           0       -1.499027    0.470257   -0.009439
      6          6           0       -1.132328    1.819176   -0.031789
      7          1           0       -1.814928    3.865966   -0.063766
      8          1           0       -4.224476    3.250073   -0.050060
      9          1           0       -4.895775    0.835981   -0.010039
     10          1           0       -0.763865   -0.325242    0.002255
     11          1           0       -0.079089    2.085063   -0.037726
     12          7           0       -3.257855   -1.267415    0.021360
     13          8           0       -2.360689   -2.107405    0.033520
     14          8           0       -4.461301   -1.517054    0.027270
     15          6           0        3.883923    0.104403    0.353379
     16          6           0        4.962116    0.792883   -0.484165
     17          6           0        5.574654    2.003703    0.220467
     18          1           0        3.094286    0.830215    0.591318
     19          1           0        4.319120   -0.209581    1.312239
     20          1           0        4.525363    1.104243   -1.441723
     21          1           0        5.749185    0.065299   -0.720299
     22          1           0        6.036092    1.705624    1.167475
     23          1           0        4.805316    2.750472    0.441952
     24          1           0        6.342982    2.480709   -0.395974
     25          6           0        3.262114   -1.107870   -0.337616
     26          6           0        2.183921   -1.796349    0.499928
     27          6           0        1.571383   -3.007170   -0.204704
     28          1           0        2.826917   -0.793885   -1.296477
     29          1           0        4.051752   -1.833681   -0.575556
     30          1           0        1.396852   -1.068765    0.736062
     31          1           0        2.620675   -2.107710    1.457486
     32          1           0        2.340721   -3.753938   -0.426190
     33          1           0        1.109945   -2.709091   -1.151712
     34          1           0        0.803055   -3.484175    0.411737
 ---------------------------------------------------------------------

 SCF Done:  E(RHF) =  -669.535517996     A.U. after   15 cycles
 E2 =    -0.2091804493D+01 EUMP2 =    -0.67162732248832D+03

 The electronic state is 1-A.
 Alpha  occ. eigenvalues --  -20.60781 -20.60776 -15.85830 -11.31189 -11.27764
 Alpha  occ. eigenvalues --  -11.27740 -11.27512 -11.26784 -11.26774 -11.22004
 Alpha  occ. eigenvalues --  -11.21840 -11.21830 -11.21671 -11.21479 -11.20775
 Alpha  occ. eigenvalues --   -1.59853  -1.39406  -1.19366  -1.08766  -1.08763
 Alpha  occ. eigenvalues --   -1.04772  -1.03764  -0.96172  -0.95597  -0.87176
 Alpha  occ. eigenvalues --   -0.86170  -0.82431  -0.79834  -0.78585  -0.77477
 Alpha  occ. eigenvalues --   -0.72051  -0.71175  -0.70487  -0.65444  -0.65019
 Alpha  occ. eigenvalues --   -0.64777  -0.62178  -0.61120  -0.59542  -0.57773
 Alpha  occ. eigenvalues --   -0.55492  -0.55259  -0.53100  -0.52865  -0.52801
 Alpha  occ. eigenvalues --   -0.52578  -0.50127  -0.48809  -0.48802  -0.48123
 Alpha  occ. eigenvalues --   -0.46900  -0.46124  -0.46045  -0.44812  -0.44010
 Alpha  occ. eigenvalues --   -0.37350  -0.36373
 Alpha virt. eigenvalues --    0.05047   0.11269   0.16538   0.18975   0.22946
 Alpha virt. eigenvalues --    0.23411   0.25074   0.26741   0.27093   0.28337
 Alpha virt. eigenvalues --    0.29706   0.31031   0.31424   0.31542   0.32188

 Mulliken charges:
               1
     1  C   -0.170576
     2  C   -0.218931
     3  C   -0.170104
     4  C    0.159101
     5  C   -0.181558
     6  C   -0.222366
     7  H    0.225698
     8  H    0.223516
     9  H    0.275629
    10  H    0.289620
    11  H    0.223674
    12  N    0.487582
    13  O   -0.460950
    14  O   -0.460262
    15  C   -0.296636
    16  C   -0.299912
    17  C   -0.475256
    18  H    0.140480
    19  H    0.152345
    20  H    0.150824
    21  H    0.154609
    22  H    0.156802
    23  H    0.151738
    24  H    0.161564
    25  C   -0.298831
    26  C   -0.303175
    27  C   -0.476854
    28  H    0.147390
    29  H    0.153215
    30  H    0.140468
    31  H    0.155279
    32  H    0.153779
    33  H    0.156644
    34  H    0.175456
 Sum of Mulliken charges =  -0.00000

 Dipole moment (field-independent basis, Debye):
    X=              1.4487    Y=              4.8412    Z=             -0.0816  Tot=              5.0540
 Quadrupole moment (field-independent basis, Debye-Ang):
   XX=            -97.6022   YY=            -93.2402   ZZ=            -95.6648
   XY=            -16.9433   XZ=              0.3766   YZ=             -0.7022

 Normal termination of Gaussian 16 at Wed May  5 15:52:31 2021.
