 Gaussian 16, Revision A.03,
 Gaussian 16:  EM64L-G16RevA.03 25-Dec-2016

 -------------
 #p 6-31g* mp2
 -------------

 ------------------------------------------------------
 Input file generated by CHIRIPA (05-May-2021 14:53:14)
 ------------------------------------------------------
 Symbolic Z-matrix:
 Charge =  0 Multiplicity = 1

                         Standard orientation:
 ---------------------------------------------------------------------
 Center     Atomic      Atomic             Coordinates (Angstroms)
 Number     Number       Type             X           Y           Z
 ---------------------------------------------------------------------
      1          6           0       -4.458100   -0.625287   -0.127497
      2          6           0       -3.722117   -1.853470    0.409049
      3          6           0       -4.469279   -3.158320    0.131725
      4          1           0       -5.458857   -0.579400    0.323420
      5          1           0       -4.607969   -0.740142   -1.209967
      6          1           0       -3.572456   -1.735700    1.489950
      7          1           0       -2.722925   -1.896331   -0.043052
      8          1           0       -4.605875   -3.302696   -0.944889
      9          1           0       -5.460233   -3.141152    0.596823
     10          1           0       -3.925464   -4.023451    0.523737
     11          6           0       -3.723617    0.686816    0.142041
     12          6           0       -4.459600    1.914998   -0.394505
     13          6           0       -3.712438    3.219849   -0.117181
     14          1           0       -3.573748    0.801671    1.224511
     15          1           0       -2.722861    0.640929   -0.308876
     16          1           0       -5.458792    1.957860    0.057596
     17          1           0       -4.609261    1.797229   -1.475406
     18          1           0       -2.721484    3.202681   -0.582279
     19          1           0       -3.575842    3.364225    0.959433
     20          1           0       -4.256253    4.084980   -0.509193
     21          6           0        0.673978    0.048505    0.006658
     22          6           0        1.338498   -1.142733   -0.303000
     23          6           0        2.735554   -1.194531   -0.312872
     24          6           0        3.439801   -0.031048   -0.006874
     25          6           0        2.806617    1.170903    0.305667
     26          6           0        1.408864    1.199492    0.309470
     27          1           0       -0.411560    0.079728    0.011969
     28          1           0        0.770360   -2.038151   -0.538565
     29          1           0        3.275498   -2.103430   -0.549051
     30          1           0        3.400192    2.047200    0.536300
     31          1           0        0.895461    2.126018    0.550326
     32          7           0        4.919172   -0.073598   -0.014112
     33          8           0        5.516627    0.965194    0.259009
     34          8           0        5.453235   -1.144936   -0.292770
 ---------------------------------------------------------------------

 SCF Done:  E(RHF) =  -669.535628677     A.U. after   15 cycles
 E2 =    -0.2091412993D+01 EUMP2 =    -0.67162704166953D+03

 The electronic state is 1-A.
 Alpha  occ. eigenvalues --  -20.60712 -20.60707 -15.85766 -11.31117 -11.27690
 Alpha  occ. eigenvalues --  -11.27686 -11.27382 -11.26695 -11.26683 -11.22699
 Alpha  occ. eigenvalues --  -11.22640 -11.22559 -11.22402 -11.22022 -11.21930
 Alpha  occ. eigenvalues --   -1.59788  -1.39342  -1.19288  -1.09510  -1.08681
 Alpha  occ. eigenvalues --   -1.04692  -1.04525  -0.96970  -0.95520  -0.87980
 Alpha  occ. eigenvalues --   -0.86087  -0.82358  -0.80596  -0.79363  -0.77406
 Alpha  occ. eigenvalues --   -0.71983  -0.71111  -0.70405  -0.66134  -0.64938
 Alpha  occ. eigenvalues --   -0.64692  -0.62047  -0.61910  -0.60334  -0.58595
 Alpha  occ. eigenvalues --   -0.56278  -0.55194  -0.53624  -0.53383  -0.53021
 Alpha  occ. eigenvalues --   -0.52782  -0.50904  -0.48911  -0.48742  -0.48739
 Alpha  occ. eigenvalues --   -0.47635  -0.46871  -0.46781  -0.44804  -0.44751
 Alpha  occ. eigenvalues --   -0.37261  -0.36301
 Alpha virt. eigenvalues --    0.05128   0.11353   0.16611   0.18728   0.22617
 Alpha virt. eigenvalues --    0.22923   0.24791   0.26020   0.26589   0.26993
 Alpha virt. eigenvalues --    0.30067   0.30428   0.30866   0.30955   0.31522

 Mulliken charges:
               1
     1  C   -0.298484
     2  C   -0.300075
     3  C   -0.476394
     4  H    0.154411
     5  H    0.152128
     6  H    0.154515
     7  H    0.142177
     8  H    0.156970
     9  H    0.158707
    10  H    0.162066
    11  C   -0.305198
    12  C   -0.299418
    13  C   -0.476588
    14  H    0.151541
    15  H    0.142921
    16  H    0.156158
    17  H    0.154822
    18  H    0.150907
    19  H    0.155901
    20  H    0.165141
    21  C   -0.179446
    22  C   -0.221754
    23  C   -0.170698
    24  C    0.158154
    25  C   -0.170694
    26  C   -0.222476
    27  H    0.239816
    28  H    0.223517
    29  H    0.275287
    30  H    0.275385
    31  H    0.223993
    32  N    0.487984
    33  O   -0.460621
    34  O   -0.460656
 Sum of Mulliken charges =  -0.00000

 Dipole moment (field-independent basis, Debye):
    X=             -5.5476    Y=              0.1564    Z=              0.0446  Tot=              5.5500
 Quadrupole moment (field-independent basis, Debye-Ang):
   XX=           -129.7630   YY=            -90.7456   ZZ=            -94.4706
   XY=              0.3636   XZ=             -0.3557   YZ=              1.3477

 Normal termination of Gaussian 16 at Thu May  6 18:45:17 2021.
