 Gaussian 16, Revision A.03,
 Gaussian 16:  EM64L-G16RevA.03 25-Dec-2016

 -------------
 #p 6-31g* mp2
 -------------

 ------------------------------------------------------
 Input file generated by CHIRIPA (05-May-2021 14:51:10)
 ------------------------------------------------------
 Symbolic Z-matrix:
 Charge =  0 Multiplicity = 1

                         Standard orientation:
 ---------------------------------------------------------------------
 Center     Atomic      Atomic             Coordinates (Angstroms)
 Number     Number       Type             X           Y           Z
 ---------------------------------------------------------------------
      1          6           0       -4.489790   -0.363896    0.383017
      2          6           0       -5.443457   -0.772003   -0.740349
      3          6           0       -6.714221   -1.445594   -0.221476
      4          1           0       -4.221752   -1.253592    0.969141
      5          1           0       -5.012607    0.316646    1.069252
      6          1           0       -4.918568   -1.450480   -1.425021
      7          1           0       -5.709105    0.118737   -1.323985
      8          1           0       -7.262508   -0.772136    0.445185
      9          1           0       -6.467479   -2.350269    0.343574
     10          1           0       -7.381707   -1.729079   -1.041207
     11          6           0       -3.214798    0.310797   -0.119890
     12          6           0       -2.261131    0.718904    1.003476
     13          6           0       -0.990367    1.392495    0.484603
     14          1           0       -2.691981   -0.369745   -0.806126
     15          1           0       -3.482836    1.200493   -0.706015
     16          1           0       -1.995483   -0.171836    1.587111
     17          1           0       -2.786020    1.397381    1.688147
     18          1           0       -1.237109    2.297170   -0.080448
     19          1           0       -0.442080    0.719037   -0.182059
     20          1           0       -0.322881    1.675980    1.304333
     21          6           0        4.249373   -0.473860    0.287187
     22          6           0        4.675707   -1.716199   -0.495639
     23          6           0        5.469204   -2.707892    0.355655
     24          1           0        5.142710    0.021032    0.692126
     25          1           0        3.644655   -0.782949    1.151001
     26          1           0        5.278284   -1.404763   -1.358498
     27          1           0        3.781264   -2.208084   -0.898924
     28          1           0        4.872569   -3.046984    1.208676
     29          1           0        6.378094   -2.239100    0.746491
     30          1           0        5.763858   -3.588445   -0.223711
     31          6           0        3.455214    0.526958   -0.550312
     32          6           0        3.028881    1.769298    0.232513
     33          6           0        2.235385    2.760991   -0.618782
     34          1           0        4.059933    0.836048   -1.414126
     35          1           0        2.561877    0.032067   -0.955253
     36          1           0        3.923324    2.261183    0.635797
     37          1           0        2.426304    1.457862    1.095371
     38          1           0        1.326493    2.292199   -1.009616
     39          1           0        2.832019    3.100083   -1.471802
     40          1           0        1.940729    3.641544   -0.039414
 ---------------------------------------------------------------------

 SCF Done:  E(RHF) =  -470.732672447     A.U. after   11 cycles
 E2 =    -0.1583178571D+01 EUMP2 =    -0.47231585101763D+03

 The electronic state is 1-A.
 Alpha  occ. eigenvalues --  -11.21628 -11.21622 -11.21582 -11.21494 -11.21436
 Alpha  occ. eigenvalues --  -11.21376 -11.21362 -11.21300 -11.21121 -11.21088
 Alpha  occ. eigenvalues --  -11.21058 -11.20859  -1.08465  -1.08371  -1.03590
 Alpha  occ. eigenvalues --   -1.03435  -0.96073  -0.95855  -0.87101  -0.86864
 Alpha  occ. eigenvalues --   -0.79669  -0.79495  -0.78278  -0.78189  -0.65110
 Alpha  occ. eigenvalues --   -0.64995  -0.61023  -0.60834  -0.59404  -0.59241
 Alpha  occ. eigenvalues --   -0.57696  -0.57462  -0.55325  -0.55219  -0.52697
 Alpha  occ. eigenvalues --   -0.52569  -0.52536  -0.52248  -0.49963  -0.49834
 Alpha  occ. eigenvalues --   -0.48014  -0.47783  -0.46661  -0.46532  -0.45846
 Alpha  occ. eigenvalues --   -0.45750  -0.45698  -0.45593  -0.43799  -0.43717
 Alpha virt. eigenvalues --    0.21212   0.23004   0.23669   0.24904   0.26003
 Alpha virt. eigenvalues --    0.26529   0.26746   0.27670   0.27799   0.29265
 Alpha virt. eigenvalues --    0.30025   0.30995   0.31349   0.31947   0.32404

 Mulliken charges:
               1
     1  C   -0.298251
     2  C   -0.299652
     3  C   -0.475723
     4  H    0.149627
     5  H    0.149639
     6  H    0.151910
     7  H    0.152025
     8  H    0.155230
     9  H    0.155180
    10  H    0.160334
    11  C   -0.298469
    12  C   -0.301054
    13  C   -0.477490
    14  H    0.149262
    15  H    0.149818
    16  H    0.151642
    17  H    0.152094
    18  H    0.156563
    19  H    0.154728
    20  H    0.163353
    21  C   -0.298235
    22  C   -0.299557
    23  C   -0.475664
    24  H    0.149640
    25  H    0.149355
    26  H    0.151931
    27  H    0.151586
    28  H    0.155059
    29  H    0.155199
    30  H    0.160128
    31  C   -0.298879
    32  C   -0.301249
    33  C   -0.478985
    34  H    0.149486
    35  H    0.149257
    36  H    0.151268
    37  H    0.153257
    38  H    0.163399
    39  H    0.153441
    40  H    0.158798
 Sum of Mulliken charges =  -0.00000

 Dipole moment (field-independent basis, Debye):
    X=             -0.0506    Y=              0.0112    Z=              0.0046  Tot=              0.0520
 Quadrupole moment (field-independent basis, Debye-Ang):
   XX=            -85.2584   YY=            -84.7006   ZZ=            -85.0256
   XY=             -0.1283   XZ=             -0.3070   YZ=              0.4545

 Normal termination of Gaussian 16 at Wed May  5 15:10:56 2021.
