 Gaussian 16, Revision A.03,
 Gaussian 16:  EM64L-G16RevA.03 25-Dec-2016

 -------------
 #p 6-31g* mp2
 -------------

 ------------------------------------------------------
 Input file generated by CHIRIPA (05-May-2021 14:57:24)
 ------------------------------------------------------
 Symbolic Z-matrix:
 Charge =  0 Multiplicity = 1

                         Standard orientation:
 ---------------------------------------------------------------------
 Center     Atomic      Atomic             Coordinates (Angstroms)
 Number     Number       Type             X           Y           Z
 ---------------------------------------------------------------------
      1          6           0       -5.364847    0.793461   -1.663590
      2          6           0       -5.243928   -0.594099   -1.534839
      3          6           0       -4.398617   -1.146456   -0.567937
      4          6           0       -3.685799   -0.277896    0.257160
      5          6           0       -3.784895    1.108725    0.153467
      6          6           0       -4.636229    1.638954   -0.820513
      7          1           0       -6.023844    1.213951   -2.417452
      8          1           0       -5.808569   -1.253140   -2.188207
      9          1           0       -4.286143   -2.216987   -0.446569
     10          1           0       -3.209245    1.740181    0.819280
     11          1           0       -4.728158    2.716936   -0.918229
     12          7           0       -2.787718   -0.850939    1.284522
     13          8           0       -2.170522   -0.064201    1.999189
     14          8           0       -2.718003   -2.075977    1.355647
     15          6           0        2.063686    1.790341    0.718684
     16          6           0        1.766121    0.430064    0.585931
     17          6           0        2.739108   -0.469351    0.139951
     18          6           0        4.004943    0.028104   -0.165810
     19          6           0        4.332071    1.377699   -0.043868
     20          6           0        3.343455    2.258991    0.403915
     21          1           0        1.301775    2.481989    1.065833
     22          1           0        0.773089    0.063281    0.829657
     23          1           0        2.535795   -1.527446    0.028068
     24          1           0        5.330971    1.713576   -0.294478
     25          1           0        3.577383    3.314874    0.506059
     26          7           0        5.043274   -0.914473   -0.638904
     27          8           0        6.150882   -0.451098   -0.901820
     28          8           0        4.729849   -2.098793   -0.737841
 ---------------------------------------------------------------------

 SCF Done:  E(RHF) =  -868.339617284     A.U. after   16 cycles
 E2 =    -0.2598510392D+01 EUMP2 =    -0.87093812767602D+03

 The electronic state is 1-A.
 Alpha  occ. eigenvalues --  -20.61816 -20.61766 -20.60272 -20.60262 -15.86810
 Alpha  occ. eigenvalues --  -15.85316 -11.31945 -11.30582 -11.28519 -11.28452
 Alpha  occ. eigenvalues --  -11.28162 -11.27453 -11.27409 -11.27165 -11.27054
 Alpha  occ. eigenvalues --  -11.26831 -11.26188 -11.25952  -1.60856  -1.59347
 Alpha  occ. eigenvalues --   -1.40414  -1.38903  -1.20092  -1.18729  -1.09526
 Alpha  occ. eigenvalues --   -1.08143  -1.05459  -1.04100  -0.96399  -0.95000
 Alpha  occ. eigenvalues --   -0.86867  -0.85499  -0.83238  -0.81824  -0.78321
 Alpha  occ. eigenvalues --   -0.76885  -0.73024  -0.72167  -0.71537  -0.71191
 Alpha  occ. eigenvalues --   -0.70669  -0.69843  -0.65745  -0.65453  -0.64372
 Alpha  occ. eigenvalues --   -0.64066  -0.62812  -0.61431  -0.55955  -0.54614
 Alpha  occ. eigenvalues --   -0.53799  -0.53545  -0.52460  -0.52166  -0.49806
 Alpha  occ. eigenvalues --   -0.49760  -0.48299  -0.48285  -0.45852  -0.44331
 Alpha  occ. eigenvalues --   -0.38051  -0.37051  -0.36718  -0.35706
 Alpha virt. eigenvalues --    0.04166   0.05618   0.10606   0.11946   0.15695
 Alpha virt. eigenvalues --    0.17144   0.20745   0.22145   0.26679   0.27461
 Alpha virt. eigenvalues --    0.28192   0.28915   0.30444   0.31666   0.31867

 Mulliken charges:
               1
     1  C   -0.169706
     2  C   -0.218200
     3  C   -0.170211
     4  C    0.157501
     5  C   -0.171559
     6  C   -0.218072
     7  H    0.228369
     8  H    0.226494
     9  H    0.277576
    10  H    0.272054
    11  H    0.224726
    12  N    0.487039
    13  O   -0.467544
    14  O   -0.454543
    15  C   -0.172310
    16  C   -0.224322
    17  C   -0.172556
    18  C    0.158370
    19  C   -0.172646
    20  C   -0.218780
    21  H    0.224331
    22  H    0.239051
    23  H    0.276905
    24  H    0.273162
    25  H    0.220169
    26  N    0.488033
    27  O   -0.462739
    28  O   -0.460593
 Sum of Mulliken charges =  -0.00000

 Dipole moment (field-independent basis, Debye):
    X=             -7.2864    Y=              5.2156    Z=             -2.0042  Tot=              9.1822
 Quadrupole moment (field-independent basis, Debye-Ang):
   XX=           -109.1839   YY=            -98.9523   ZZ=           -108.2141
   XY=             10.7167   XZ=             20.8109   YZ=              2.1728

 Normal termination of Gaussian 16 at Thu May  6 14:37:11 2021.
