 Gaussian 16, Revision A.03,
 Gaussian 16:  EM64L-G16RevA.03 25-Dec-2016

 -------------
 #p 6-31g* mp2
 -------------

 ------------------------------------------------------
 Input file generated by CHIRIPA (05-May-2021 14:55:20)
 ------------------------------------------------------
 Symbolic Z-matrix:
 Charge =  0 Multiplicity = 1

                         Standard orientation:
 ---------------------------------------------------------------------
 Center     Atomic      Atomic             Coordinates (Angstroms)
 Number     Number       Type             X           Y           Z
 ---------------------------------------------------------------------
      1          6           0       -3.688503   -2.349333   -0.568219
      2          6           0       -2.531362   -1.882459    0.063900
      3          6           0       -2.359252   -0.517352    0.311707
      4          6           0       -3.368962    0.356834   -0.087760
      5          6           0       -4.533188   -0.077563   -0.719556
      6          6           0       -4.683968   -1.446986   -0.957244
      7          1           0       -3.813918   -3.411457   -0.756791
      8          1           0       -1.756615   -2.580936    0.367120
      9          1           0       -1.473437   -0.128772    0.799308
     10          1           0       -5.288046    0.642926   -1.010250
     11          1           0       -5.583667   -1.806721   -1.448341
     12          7           0       -3.198047    1.804297    0.169226
     13          8           0       -4.102334    2.554014   -0.192473
     14          8           0       -2.163034    2.161692    0.727484
     15          6           0        5.065741   -0.331731   -0.023790
     16          6           0        5.776755    0.765404   -0.816720
     17          6           0        7.211084    0.389848   -1.190155
     18          1           0        5.639343   -0.546491    0.888242
     19          1           0        5.061114   -1.257660   -0.615425
     20          1           0        5.778820    1.689361   -0.224340
     21          1           0        5.201292    0.977711   -1.726877
     22          1           0        7.224745   -0.517830   -1.802148
     23          1           0        7.805554    0.197862   -0.291074
     24          1           0        7.700647    1.188259   -1.756482
     25          6           0        3.630914    0.028947    0.356882
     26          6           0        2.919900   -1.068189    1.149813
     27          6           0        1.485571   -0.692632    1.523247
     28          1           0        3.635539    0.954874    0.948517
     29          1           0        3.057312    0.243707   -0.555150
     30          1           0        3.495363   -1.280496    2.059968
     31          1           0        2.917835   -1.992146    0.557432
     32          1           0        0.891100   -0.500647    0.624166
     33          1           0        1.471910    0.215046    2.135240
     34          1           0        0.996007   -1.491044    2.089574
 ---------------------------------------------------------------------

 SCF Done:  E(RHF) =  -669.535595083     A.U. after   15 cycles
 E2 =    -0.2091113937D+01 EUMP2 =    -0.67162670901979D+03

 The electronic state is 1-A.
 Alpha  occ. eigenvalues --  -20.60706 -20.60700 -15.85757 -11.31104 -11.27694
 Alpha  occ. eigenvalues --  -11.27620 -11.27439 -11.26712 -11.26683 -11.21964
 Alpha  occ. eigenvalues --  -11.21633 -11.21631 -11.21535 -11.21466 -11.21097
 Alpha  occ. eigenvalues --   -1.59781  -1.39334  -1.19286  -1.08688  -1.08600
 Alpha  occ. eigenvalues --   -1.04688  -1.03752  -0.96222  -0.95520  -0.87253
 Alpha  occ. eigenvalues --   -0.86084  -0.82352  -0.79828  -0.78382  -0.77393
 Alpha  occ. eigenvalues --   -0.71977  -0.71104  -0.70404  -0.65233  -0.64938
 Alpha  occ. eigenvalues --   -0.64694  -0.62079  -0.61120  -0.59598  -0.57808
 Alpha  occ. eigenvalues --   -0.55529  -0.55174  -0.53029  -0.52992  -0.52841
 Alpha  occ. eigenvalues --   -0.52505  -0.50144  -0.48735  -0.48730  -0.48122
 Alpha  occ. eigenvalues --   -0.46830  -0.45930  -0.45836  -0.44743  -0.43997
 Alpha  occ. eigenvalues --   -0.37278  -0.36289
 Alpha virt. eigenvalues --    0.05113   0.11341   0.16600   0.20680   0.22758
 Alpha virt. eigenvalues --    0.23989   0.25724   0.26587   0.27291   0.28011
 Alpha virt. eigenvalues --    0.29449   0.30182   0.31266   0.31646   0.32150

 Mulliken charges:
               1
     1  C   -0.170701
     2  C   -0.222015
     3  C   -0.180270
     4  C    0.159136
     5  C   -0.170437
     6  C   -0.218954
     7  H    0.225212
     8  H    0.224023
     9  H    0.288540
    10  H    0.275306
    11  H    0.223117
    12  N    0.487333
    13  O   -0.460829
    14  O   -0.460147
    15  C   -0.298616
    16  C   -0.300014
    17  C   -0.475839
    18  H    0.149804
    19  H    0.148402
    20  H    0.153682
    21  H    0.152798
    22  H    0.154535
    23  H    0.155171
    24  H    0.161116
    25  C   -0.299216
    26  C   -0.299510
    27  C   -0.483330
    28  H    0.153565
    29  H    0.151425
    30  H    0.154088
    31  H    0.149780
    32  H    0.151427
    33  H    0.166585
    34  H    0.154831
 Sum of Mulliken charges =  -0.00000

 Dipole moment (field-independent basis, Debye):
    X=             -0.4530    Y=             -5.0223    Z=             -0.8757  Tot=              5.1181
 Quadrupole moment (field-independent basis, Debye-Ang):
   XX=            -87.6158   YY=            -98.8321   ZZ=            -93.7345
   XY=             16.7302   XZ=              6.0962   YZ=              0.1409

 Normal termination of Gaussian 16 at Wed May  5 15:53:49 2021.
