 Gaussian 16, Revision A.03,
 Gaussian 16:  EM64L-G16RevA.03 25-Dec-2016

 -------------
 #p 6-31g* mp2
 -------------

 ------------------------------------------------------
 Input file generated by CHIRIPA (05-May-2021 14:51:14)
 ------------------------------------------------------
 Symbolic Z-matrix:
 Charge =  0 Multiplicity = 1

                         Standard orientation:
 ---------------------------------------------------------------------
 Center     Atomic      Atomic             Coordinates (Angstroms)
 Number     Number       Type             X           Y           Z
 ---------------------------------------------------------------------
      1          6           0       -3.370412    0.854357   -0.137775
      2          6           0       -4.597033    1.700505    0.204885
      3          6           0       -4.386914    3.188197   -0.078696
      4          1           0       -2.508332    1.220372    0.436503
      5          1           0       -3.121549    0.994752   -1.198789
      6          1           0       -4.844340    1.557484    1.264602
      7          1           0       -5.456338    1.332311   -0.370132
      8          1           0       -4.162496    3.350527   -1.137888
      9          1           0       -3.547021    3.576980    0.506135
     10          1           0       -5.276073    3.774448    0.173427
     11          6           0       -3.565040   -0.635122    0.140254
     12          6           0       -2.338418   -1.481271   -0.202407
     13          6           0       -2.548537   -2.968962    0.081175
     14          1           0       -3.813903   -0.775518    1.201268
     15          1           0       -4.427120   -1.001138   -0.434025
     16          1           0       -1.479114   -1.113076    0.372610
     17          1           0       -2.091111   -1.338250   -1.262124
     18          1           0       -3.388431   -3.357746   -0.503657
     19          1           0       -2.772956   -3.131293    1.140366
     20          1           0       -1.659379   -3.555214   -0.170948
     21          6           0        3.575365    0.643197   -0.072772
     22          6           0        5.027695    1.071075    0.140868
     23          6           0        5.227075    2.579922   -0.005494
     24          1           0        3.248953    0.962400   -1.072027
     25          1           0        2.935299    1.170218    0.648309
     26          1           0        5.665003    0.542359   -0.579488
     27          1           0        5.350748    0.750647    1.139657
     28          1           0        4.615386    3.121801    0.723069
     29          1           0        4.931426    2.912330   -1.005843
     30          1           0        6.272404    2.863814    0.151194
     31          6           0        3.360087   -0.862431    0.070294
     32          6           0        1.907756   -1.290310   -0.143347
     33          6           0        1.708377   -2.799156    0.003015
     34          1           0        4.000153   -1.389453   -0.650787
     35          1           0        3.686499   -1.181635    1.069548
     36          1           0        1.584704   -0.969882   -1.142136
     37          1           0        1.270448   -0.761594    0.577009
     38          1           0        2.004025   -3.131564    1.003365
     39          1           0        2.320066   -3.341035   -0.725548
     40          1           0        0.663047   -3.083049   -0.153672
 ---------------------------------------------------------------------

 SCF Done:  E(RHF) =  -470.733066967     A.U. after   11 cycles
 E2 =    -0.1583110982D+01 EUMP2 =    -0.47231617794824D+03

 The electronic state is 1-A.
 Alpha  occ. eigenvalues --  -11.21600 -11.21597 -11.21586 -11.21583 -11.21404
 Alpha  occ. eigenvalues --  -11.21396 -11.21344 -11.21336 -11.21078 -11.21070
 Alpha  occ. eigenvalues --  -11.21068 -11.21029  -1.08441  -1.08409  -1.03570
 Alpha  occ. eigenvalues --   -1.03482  -0.96031  -0.95923  -0.87043  -0.86945
 Alpha  occ. eigenvalues --   -0.79653  -0.79523  -0.78285  -0.78183  -0.65091
 Alpha  occ. eigenvalues --   -0.65022  -0.60993  -0.60861  -0.59734  -0.59084
 Alpha  occ. eigenvalues --   -0.57828  -0.57283  -0.55285  -0.55233  -0.52934
 Alpha  occ. eigenvalues --   -0.52549  -0.52459  -0.52164  -0.49939  -0.49892
 Alpha  occ. eigenvalues --   -0.48068  -0.47753  -0.46721  -0.46530  -0.45880
 Alpha  occ. eigenvalues --   -0.45747  -0.45712  -0.45582  -0.43900  -0.43642
 Alpha virt. eigenvalues --    0.21117   0.23121   0.23313   0.25141   0.25661
 Alpha virt. eigenvalues --    0.26711   0.26848   0.27011   0.28202   0.28995
 Alpha virt. eigenvalues --    0.30067   0.30657   0.31372   0.31727   0.32485

 Mulliken charges:
               1
     1  C   -0.298140
     2  C   -0.299670
     3  C   -0.475685
     4  H    0.149547
     5  H    0.149608
     6  H    0.151857
     7  H    0.151949
     8  H    0.155212
     9  H    0.155169
    10  H    0.160233
    11  C   -0.298301
    12  C   -0.303500
    13  C   -0.480320
    14  H    0.149397
    15  H    0.149669
    16  H    0.156818
    17  H    0.151926
    18  H    0.155514
    19  H    0.155438
    20  H    0.163435
    21  C   -0.298157
    22  C   -0.299621
    23  C   -0.475684
    24  H    0.149760
    25  H    0.149253
    26  H    0.151944
    27  H    0.151884
    28  H    0.155116
    29  H    0.155216
    30  H    0.160233
    31  C   -0.298608
    32  C   -0.299378
    33  C   -0.484019
    34  H    0.149533
    35  H    0.149487
    36  H    0.152481
    37  H    0.152240
    38  H    0.154924
    39  H    0.154996
    40  H    0.168245
 Sum of Mulliken charges =  -0.00000

 Dipole moment (field-independent basis, Debye):
    X=             -0.0109    Y=              0.0023    Z=             -0.0056  Tot=              0.0124
 Quadrupole moment (field-independent basis, Debye-Ang):
   XX=            -84.8133   YY=            -87.1597   ZZ=            -82.8684
   XY=             -0.2771   XZ=              0.1717   YZ=              0.4996

 Normal termination of Gaussian 16 at Thu May  6 02:26:20 2021.
