 Gaussian 16, Revision A.03,
 Gaussian 16:  EM64L-G16RevA.03 25-Dec-2016

 -------------
 #p 6-31g* mp2
 -------------

 ------------------------------------------------------
 Input file generated by CHIRIPA (05-May-2021 14:53:12)
 ------------------------------------------------------
 Symbolic Z-matrix:
 Charge =  0 Multiplicity = 1

                         Standard orientation:
 ---------------------------------------------------------------------
 Center     Atomic      Atomic             Coordinates (Angstroms)
 Number     Number       Type             X           Y           Z
 ---------------------------------------------------------------------
      1          6           0        2.980825   -0.213597   -0.111239
      2          6           0        2.505678   -1.661310    0.016612
      3          6           0        3.659456   -2.648579    0.195191
      4          1           0        3.668657   -0.134100   -0.964182
      5          1           0        3.559651    0.055352    0.783201
      6          1           0        1.926749   -1.927007   -0.877179
      7          1           0        1.818748   -1.737331    0.869234
      8          1           0        4.233405   -2.411360    1.096806
      9          1           0        4.342021   -2.602114   -0.659530
     10          1           0        3.297223   -3.677493    0.284539
     11          6           0        1.838893    0.785223   -0.290339
     12          6           0        2.314040    2.232936   -0.418190
     13          6           0        1.160262    3.220205   -0.596769
     14          1           0        1.260067    0.516275   -1.184779
     15          1           0        1.151061    0.705726    0.562604
     16          1           0        3.000970    2.308957   -1.270812
     17          1           0        2.892969    2.498634    0.475601
     18          1           0        0.477697    3.173740    0.257952
     19          1           0        0.586313    2.982986   -1.498384
     20          1           0        1.522495    4.249119   -0.686117
     21          6           0       -1.452521    0.461541    2.546819
     22          6           0       -1.507669    1.430944    1.539974
     23          6           0       -1.745389    1.062978    0.212330
     24          6           0       -1.924290   -0.289499   -0.074186
     25          6           0       -1.875065   -1.278805    0.906702
     26          6           0       -1.636073   -0.887861    2.227532
     27          1           0       -1.267361    0.756311    3.575517
     28          1           0       -1.365488    2.479651    1.785014
     29          1           0       -1.793128    1.792752   -0.586774
     30          1           0       -2.020671   -2.316378    0.631639
     31          1           0       -1.593773   -1.642883    3.007402
     32          7           0       -2.176628   -0.691211   -1.476096
     33          8           0       -2.330971   -1.889355   -1.702518
     34          8           0       -2.215290    0.199677   -2.321945
 ---------------------------------------------------------------------

 SCF Done:  E(RHF) =  -669.533546365     A.U. after   15 cycles
 E2 =    -0.2096335346D+01 EUMP2 =    -0.67162988171049D+03

 The electronic state is 1-A.
 Alpha  occ. eigenvalues --  -20.60821 -20.60815 -15.85867 -11.31190 -11.27831
 Alpha  occ. eigenvalues --  -11.27747 -11.27582 -11.26846 -11.26773 -11.21790
 Alpha  occ. eigenvalues --  -11.21572 -11.21480 -11.21375 -11.21268 -11.21072
 Alpha  occ. eigenvalues --   -1.59891  -1.39446  -1.19421  -1.08815  -1.08481
 Alpha  occ. eigenvalues --   -1.04840  -1.03644  -0.96116  -0.95643  -0.87147
 Alpha  occ. eigenvalues --   -0.86218  -0.82488  -0.79729  -0.78313  -0.77508
 Alpha  occ. eigenvalues --   -0.72090  -0.71208  -0.70529  -0.65183  -0.65043
 Alpha  occ. eigenvalues --   -0.64815  -0.62219  -0.61048  -0.59477  -0.57718
 Alpha  occ. eigenvalues --   -0.55443  -0.55313  -0.53350  -0.52915  -0.52767
 Alpha  occ. eigenvalues --   -0.52524  -0.50059  -0.48847  -0.48843  -0.48037
 Alpha  occ. eigenvalues --   -0.46742  -0.45789  -0.45650  -0.44840  -0.43861
 Alpha  occ. eigenvalues --   -0.37391  -0.36276
 Alpha virt. eigenvalues --    0.04995   0.11123   0.16343   0.20690   0.22979
 Alpha virt. eigenvalues --    0.24135   0.26047   0.26190   0.27305   0.27808
 Alpha virt. eigenvalues --    0.29208   0.29784   0.31358   0.31763   0.32560

 Mulliken charges:
               1
     1  C   -0.297300
     2  C   -0.301549
     3  C   -0.475582
     4  H    0.150783
     5  H    0.146425
     6  H    0.156970
     7  H    0.148140
     8  H    0.152976
     9  H    0.156828
    10  H    0.160079
    11  C   -0.308005
    12  C   -0.297571
    13  C   -0.481466
    14  H    0.152742
    15  H    0.157140
    16  H    0.154919
    17  H    0.149495
    18  H    0.144256
    19  H    0.161653
    20  H    0.161674
    21  C   -0.171402
    22  C   -0.222702
    23  C   -0.165138
    24  C    0.160812
    25  C   -0.169620
    26  C   -0.219553
    27  H    0.225997
    28  H    0.224327
    29  H    0.278225
    30  H    0.276064
    31  H    0.223865
    32  N    0.487962
    33  O   -0.460272
    34  O   -0.461172
 Sum of Mulliken charges =  -0.00000

 Dipole moment (field-independent basis, Debye):
    X=              0.8164    Y=              1.3677    Z=              4.8642  Tot=              5.1184
 Quadrupole moment (field-independent basis, Debye-Ang):
   XX=            -99.6549   YY=            -91.9986   ZZ=            -94.6026
   XY=             -2.0993   XZ=            -10.1472   YZ=             -2.9199

 Normal termination of Gaussian 16 at Thu May  6 16:59:27 2021.
