 Gaussian 16, Revision A.03,
 Gaussian 16:  EM64L-G16RevA.03 25-Dec-2016

 -------------
 #p 6-31g* mp2
 -------------

 ------------------------------------------------------
 Input file generated by CHIRIPA (05-May-2021 14:53:13)
 ------------------------------------------------------
 Symbolic Z-matrix:
 Charge =  0 Multiplicity = 1

                         Standard orientation:
 ---------------------------------------------------------------------
 Center     Atomic      Atomic             Coordinates (Angstroms)
 Number     Number       Type             X           Y           Z
 ---------------------------------------------------------------------
      1          6           0        4.845663   -0.361809   -0.272038
      2          6           0        5.960188    0.680660   -0.367315
      3          6           0        7.151322    0.198540   -1.195902
      4          1           0        5.250948   -1.283441    0.167604
      5          1           0        4.507947   -0.620959   -1.285045
      6          1           0        6.294750    0.938788    0.645628
      7          1           0        5.552158    1.599981   -0.806604
      8          1           0        6.838404   -0.040732   -2.217387
      9          1           0        7.585216   -0.705682   -0.756903
     10          1           0        7.936276    0.959249   -1.250937
     11          6           0        3.647987    0.105491    0.553147
     12          6           0        2.533462   -0.936978    0.648424
     13          6           0        1.342328   -0.454858    1.477011
     14          1           0        3.985704    0.364641    1.566155
     15          1           0        3.242702    1.027122    0.113505
     16          1           0        2.941492   -1.856299    1.087714
     17          1           0        2.198900   -1.195106   -0.364519
     18          1           0        0.908435    0.449363    1.038012
     19          1           0        1.655246   -0.215586    2.498496
     20          1           0        0.557375   -1.215568    1.532047
     21          6           0       -3.092024    2.601904    0.126900
     22          6           0       -2.199074    1.752725    0.788760
     23          6           0       -2.314722    0.364990    0.664813
     24          6           0       -3.339663   -0.141738   -0.132692
     25          6           0       -4.244855    0.678239   -0.804671
     26          6           0       -4.110269    2.062901   -0.666305
     27          1           0       -2.994830    3.678737    0.228786
     28          1           0       -1.407327    2.168521    1.405441
     29          1           0       -1.637131   -0.315429    1.166129
     30          1           0       -5.023937    0.234230   -1.412375
     31          1           0       -4.805181    2.719972   -1.181475
     32          7           0       -3.472118   -1.609245   -0.271542
     33          8           0       -4.383679   -2.030748   -0.980083
     34          8           0       -2.661869   -2.310187    0.330797
 ---------------------------------------------------------------------

 SCF Done:  E(RHF) =  -669.535395129     A.U. after   15 cycles
 E2 =    -0.2091633861D+01 EUMP2 =    -0.67162702899089D+03

 The electronic state is 1-A.
 Alpha  occ. eigenvalues --  -20.60742 -20.60737 -15.85791 -11.31108 -11.27708
 Alpha  occ. eigenvalues --  -11.27618 -11.27451 -11.26714 -11.26684 -11.21846
 Alpha  occ. eigenvalues --  -11.21754 -11.21631 -11.21595 -11.21520 -11.21177
 Alpha  occ. eigenvalues --   -1.59815  -1.39370  -1.19296  -1.08703  -1.08642
 Alpha  occ. eigenvalues --   -1.04698  -1.03771  -0.96262  -0.95537  -0.87297
 Alpha  occ. eigenvalues --   -0.86093  -0.82374  -0.79851  -0.78444  -0.77415
 Alpha  occ. eigenvalues --   -0.72013  -0.71136  -0.70417  -0.65274  -0.64949
 Alpha  occ. eigenvalues --   -0.64713  -0.62116  -0.61135  -0.59590  -0.57841
 Alpha  occ. eigenvalues --   -0.55573  -0.55192  -0.53134  -0.53030  -0.52708
 Alpha  occ. eigenvalues --   -0.52541  -0.50189  -0.48769  -0.48765  -0.48151
 Alpha  occ. eigenvalues --   -0.46849  -0.45995  -0.45900  -0.44784  -0.44015
 Alpha  occ. eigenvalues --   -0.37289  -0.36284
 Alpha virt. eigenvalues --    0.05090   0.11345   0.16519   0.20809   0.22760
 Alpha virt. eigenvalues --    0.24075   0.25876   0.26496   0.26961   0.27901
 Alpha virt. eigenvalues --    0.28845   0.29389   0.31432   0.31632   0.32180

 Mulliken charges:
               1
     1  C   -0.298743
     2  C   -0.299669
     3  C   -0.475860
     4  H    0.151187
     5  H    0.150993
     6  H    0.151682
     7  H    0.151015
     8  H    0.155820
     9  H    0.155980
    10  H    0.160257
    11  C   -0.298958
    12  C   -0.298146
    13  C   -0.489390
    14  H    0.148993
    15  H    0.147448
    16  H    0.156188
    17  H    0.156849
    18  H    0.148001
    19  H    0.156058
    20  H    0.171618
    21  C   -0.170537
    22  C   -0.224450
    23  C   -0.173766
    24  C    0.156446
    25  C   -0.170198
    26  C   -0.219251
    27  H    0.225307
    28  H    0.224776
    29  H    0.286632
    30  H    0.275312
    31  H    0.223106
    32  N    0.487771
    33  O   -0.460406
    34  O   -0.462066
 Sum of Mulliken charges =  -0.00000

 Dipole moment (field-independent basis, Debye):
    X=              0.5894    Y=              5.0739    Z=              0.4746  Tot=              5.1301
 Quadrupole moment (field-independent basis, Debye-Ang):
   XX=            -95.5585   YY=            -96.6144   ZZ=            -93.2903
   XY=            -18.3233   XZ=              1.9142   YZ=             -1.7197

 Normal termination of Gaussian 16 at Thu May  6 02:35:27 2021.
