 Gaussian 16, Revision A.03,
 Gaussian 16:  EM64L-G16RevA.03 25-Dec-2016

 -------------
 #p 6-31g* mp2
 -------------

 ------------------------------------------------------
 Input file generated by CHIRIPA (05-May-2021 14:51:07)
 ------------------------------------------------------
 Symbolic Z-matrix:
 Charge =  0 Multiplicity = 1

                         Standard orientation:
 ---------------------------------------------------------------------
 Center     Atomic      Atomic             Coordinates (Angstroms)
 Number     Number       Type             X           Y           Z
 ---------------------------------------------------------------------
      1          6           0       -3.297540    0.860861    0.393503
      2          6           0       -2.645300    1.898334   -0.520946
      3          6           0       -1.789876    2.907483    0.245645
      4          1           0       -3.917115    1.376967    1.139630
      5          1           0       -2.513896    0.329752    0.951375
      6          1           0       -3.429861    2.426376   -1.077948
      7          1           0       -2.027358    1.379688   -1.265103
      8          1           0       -0.986909    2.398252    0.788350
      9          1           0       -2.397381    3.450888    0.976568
     10          1           0       -1.333136    3.639824   -0.427353
     11          6           0       -4.155930   -0.154922   -0.358215
     12          6           0       -4.808170   -1.192395    0.556234
     13          6           0       -5.663594   -2.201544   -0.210356
     14          1           0       -4.939574    0.376187   -0.916087
     15          1           0       -3.536355   -0.671028   -1.104342
     16          1           0       -5.426112   -0.673749    1.300391
     17          1           0       -4.023609   -1.720438    1.113236
     18          1           0       -5.056089   -2.744949   -0.941280
     19          1           0       -6.466561   -1.692313   -0.753062
     20          1           0       -6.120334   -2.933886    0.462641
     21          6           0        3.047152   -0.010229   -0.081889
     22          6           0        1.867764   -0.977720    0.022941
     23          6           0        0.515018   -0.277104   -0.107486
     24          1           0        2.953650    0.757743    0.698127
     25          1           0        2.996764    0.515293   -1.045571
     26          1           0        1.921135   -1.502265    0.985553
     27          1           0        1.964187   -1.743587   -0.757293
     28          1           0        0.436331    0.231830   -1.073609
     29          1           0        0.393034    0.474523    0.679138
     30          1           0       -0.314085   -0.987305   -0.029628
     31          6           0        4.406318   -0.695710    0.046601
     32          6           0        5.585706    0.271781   -0.058229
     33          6           0        6.938451   -0.428834    0.072197
     34          1           0        4.456705   -1.221231    1.010283
     35          1           0        4.499821   -1.463681   -0.733414
     36          1           0        5.489282    1.037649    0.722005
     37          1           0        5.532335    0.796326   -1.020840
     38          1           0        7.060436   -1.180462   -0.714426
     39          1           0        7.017140   -0.937768    1.038322
     40          1           0        7.767555    0.281366   -0.005659
 ---------------------------------------------------------------------

 SCF Done:  E(RHF) =  -470.732537448     A.U. after   11 cycles
 E2 =    -0.1583727417D+01 EUMP2 =    -0.47231626486526D+03

 The electronic state is 1-A.
 Alpha  occ. eigenvalues --  -11.21669 -11.21627 -11.21560 -11.21457 -11.21450
 Alpha  occ. eigenvalues --  -11.21389 -11.21317 -11.21229 -11.21170 -11.21091
 Alpha  occ. eigenvalues --  -11.21041 -11.20935  -1.08484  -1.08336  -1.03607
 Alpha  occ. eigenvalues --   -1.03427  -0.96052  -0.95890  -0.87069  -0.86915
 Alpha  occ. eigenvalues --   -0.79664  -0.79510  -0.78292  -0.78153  -0.65115
 Alpha  occ. eigenvalues --   -0.64975  -0.61023  -0.60846  -0.59413  -0.59266
 Alpha  occ. eigenvalues --   -0.57682  -0.57499  -0.55381  -0.55166  -0.52737
 Alpha  occ. eigenvalues --   -0.52593  -0.52501  -0.52255  -0.50109  -0.49750
 Alpha  occ. eigenvalues --   -0.48041  -0.47727  -0.46840  -0.46403  -0.45868
 Alpha  occ. eigenvalues --   -0.45781  -0.45648  -0.45503  -0.43819  -0.43695
 Alpha virt. eigenvalues --    0.20847   0.22944   0.23678   0.24708   0.25920
 Alpha virt. eigenvalues --    0.26214   0.26981   0.27500   0.27936   0.29385
 Alpha virt. eigenvalues --    0.30048   0.30852   0.31824   0.32194   0.32590

 Mulliken charges:
               1
     1  C   -0.301143
     2  C   -0.300591
     3  C   -0.478844
     4  H    0.148798
     5  H    0.153323
     6  H    0.151066
     7  H    0.155076
     8  H    0.158659
     9  H    0.154201
    10  H    0.159363
    11  C   -0.298811
    12  C   -0.299478
    13  C   -0.475613
    14  H    0.149305
    15  H    0.149567
    16  H    0.151914
    17  H    0.151319
    18  H    0.154967
    19  H    0.155172
    20  H    0.160054
    21  C   -0.298502
    22  C   -0.300755
    23  C   -0.479649
    24  H    0.149769
    25  H    0.149744
    26  H    0.152042
    27  H    0.152045
    28  H    0.156722
    29  H    0.158598
    30  H    0.161205
    31  C   -0.298315
    32  C   -0.299690
    33  C   -0.475738
    34  H    0.149603
    35  H    0.149718
    36  H    0.152086
    37  H    0.152014
    38  H    0.155199
    39  H    0.155222
    40  H    0.160381
 Sum of Mulliken charges =  -0.00000

 Dipole moment (field-independent basis, Debye):
    X=              0.0623    Y=             -0.0156    Z=             -0.0042  Tot=              0.0643
 Quadrupole moment (field-independent basis, Debye-Ang):
   XX=            -85.8232   YY=            -85.3304   ZZ=            -83.9066
   XY=             -0.5819   XZ=             -0.4598   YZ=             -0.0922

 Normal termination of Gaussian 16 at Thu May  6 08:25:38 2021.
