 Gaussian 16, Revision A.03,
 Gaussian 16:  EM64L-G16RevA.03 25-Dec-2016

 -------------
 #p 6-31g* mp2
 -------------

 ------------------------------------------------------
 Input file generated by CHIRIPA (05-May-2021 14:55:19)
 ------------------------------------------------------
 Symbolic Z-matrix:
 Charge =  0 Multiplicity = 1

                         Standard orientation:
 ---------------------------------------------------------------------
 Center     Atomic      Atomic             Coordinates (Angstroms)
 Number     Number       Type             X           Y           Z
 ---------------------------------------------------------------------
      1          6           0       -3.604667    1.748521    0.081786
      2          6           0       -2.406481    1.562886    0.779217
      3          6           0       -1.778202    0.314021    0.791410
      4          6           0       -2.378558   -0.731970    0.092293
      5          6           0       -3.571807   -0.578504   -0.611906
      6          6           0       -4.182487    0.679119   -0.610330
      7          1           0       -4.085893    2.722071    0.077662
      8          1           0       -1.955457    2.391596    1.317606
      9          1           0       -0.850135    0.142526    1.323106
     10          1           0       -3.997377   -1.423589   -1.139295
     11          1           0       -5.112965    0.820373   -1.152827
     12          7           0       -1.722743   -2.058723    0.097912
     13          8           0       -2.271947   -2.964214   -0.525865
     14          8           0       -0.671928   -2.168020    0.725989
     15          6           0        3.401001   -0.052091    0.064744
     16          6           0        4.853518   -0.353462   -0.305873
     17          6           0        5.275019   -1.775934    0.063861
     18          1           0        3.264707   -0.207681    1.143706
     19          1           0        2.743765   -0.773291   -0.440537
     20          1           0        5.507716    0.368954    0.198861
     21          1           0        4.986415   -0.196952   -1.384047
     22          1           0        4.646584   -2.509992   -0.450754
     23          1           0        5.170847   -1.940871    1.141148
     24          1           0        6.316795   -1.969916   -0.209878
     25          6           0        2.964808    1.366152   -0.298641
     26          6           0        1.512292    1.667522    0.071975
     27          6           0        1.090791    3.089995   -0.297759
     28          1           0        3.622044    2.087352    0.206639
     29          1           0        3.101102    1.521742   -1.377605
     30          1           0        1.379394    1.511013    1.150148
     31          1           0        0.858093    0.945107   -0.432759
     32          1           0        1.194962    3.254932   -1.375045
     33          1           0        1.719225    3.824053    0.216856
     34          1           0        0.049014    3.283976   -0.024021
 ---------------------------------------------------------------------

 SCF Done:  E(RHF) =  -669.534717559     A.U. after   15 cycles
 E2 =    -0.2093372645D+01 EUMP2 =    -0.67162809020330D+03

 The electronic state is 1-A.
 Alpha  occ. eigenvalues --  -20.60789 -20.60782 -15.85836 -11.31169 -11.27766
 Alpha  occ. eigenvalues --  -11.27702 -11.27508 -11.26761 -11.26740 -11.21916
 Alpha  occ. eigenvalues --  -11.21530 -11.21407 -11.21311 -11.21060 -11.20656
 Alpha  occ. eigenvalues --   -1.59861  -1.39414  -1.19362  -1.08760  -1.08382
 Alpha  occ. eigenvalues --   -1.04769  -1.03527  -0.95963  -0.95594  -0.86993
 Alpha  occ. eigenvalues --   -0.86154  -0.82429  -0.79669  -0.78150  -0.77444
 Alpha  occ. eigenvalues --   -0.72052  -0.71186  -0.70465  -0.65025  -0.64999
 Alpha  occ. eigenvalues --   -0.64771  -0.62179  -0.60926  -0.59367  -0.57567
 Alpha  occ. eigenvalues --   -0.55257  -0.55227  -0.53117  -0.52978  -0.52656
 Alpha  occ. eigenvalues --   -0.52268  -0.49889  -0.48812  -0.48810  -0.47910
 Alpha  occ. eigenvalues --   -0.46679  -0.45677  -0.45556  -0.44799  -0.43755
 Alpha  occ. eigenvalues --   -0.37339  -0.36306
 Alpha virt. eigenvalues --    0.05038   0.11188   0.16438   0.20408   0.23073
 Alpha virt. eigenvalues --    0.24270   0.25787   0.26694   0.27004   0.28425
 Alpha virt. eigenvalues --    0.29167   0.30453   0.31389   0.31708   0.32876

 Mulliken charges:
               1
     1  C   -0.171215
     2  C   -0.219776
     3  C   -0.170249
     4  C    0.156242
     5  C   -0.170492
     6  C   -0.218954
     7  H    0.225737
     8  H    0.224404
     9  H    0.281039
    10  H    0.275484
    11  H    0.223370
    12  N    0.488266
    13  O   -0.460481
    14  O   -0.460733
    15  C   -0.300327
    16  C   -0.299941
    17  C   -0.475914
    18  H    0.150509
    19  H    0.159482
    20  H    0.149570
    21  H    0.150903
    22  H    0.159815
    23  H    0.156016
    24  H    0.158484
    25  C   -0.297849
    26  C   -0.305133
    27  C   -0.476463
    28  H    0.148384
    29  H    0.150380
    30  H    0.144610
    31  H    0.158903
    32  H    0.158719
    33  H    0.155988
    34  H    0.151224
 Sum of Mulliken charges =  -0.00000

 Dipole moment (field-independent basis, Debye):
    X=             -2.2730    Y=              4.5425    Z=             -0.0685  Tot=              5.0800
 Quadrupole moment (field-independent basis, Debye-Ang):
   XX=            -81.5244   YY=           -102.6796   ZZ=            -92.8998
   XY=             -7.7612   XZ=              2.3973   YZ=              2.0880

 Normal termination of Gaussian 16 at Wed May  5 22:08:26 2021.
