 Gaussian 16, Revision A.03,
 Gaussian 16:  EM64L-G16RevA.03 25-Dec-2016

 -------------
 #p 6-31g* mp2
 -------------

 ------------------------------------------------------
 Input file generated by CHIRIPA (05-May-2021 14:53:14)
 ------------------------------------------------------
 Symbolic Z-matrix:
 Charge =  0 Multiplicity = 1

                         Standard orientation:
 ---------------------------------------------------------------------
 Center     Atomic      Atomic             Coordinates (Angstroms)
 Number     Number       Type             X           Y           Z
 ---------------------------------------------------------------------
      1          6           0        3.921482    0.698476    0.544653
      2          6           0        2.739867    1.244110   -0.257878
      3          6           0        1.707459    1.953954    0.618506
      4          1           0        3.547676    0.003731    1.309207
      5          1           0        4.403378    1.526176    1.083247
      6          1           0        2.261186    0.415844   -0.795891
      7          1           0        3.116546    1.937490   -1.020736
      8          1           0        2.164142    2.798587    1.144469
      9          1           0        1.303922    1.268296    1.370591
     10          1           0        0.871428    2.336137    0.024495
     11          6           0        4.962082   -0.013881   -0.317569
     12          6           0        6.143697   -0.559515    0.484962
     13          6           0        7.176105   -1.269359   -0.391422
     14          1           0        4.480186   -0.841581   -0.856163
     15          1           0        5.335888    0.680864   -1.082124
     16          1           0        5.767017   -1.252895    1.247820
     17          1           0        6.622377    0.268751    1.022975
     18          1           0        7.579642   -0.583701   -1.143508
     19          1           0        6.719422   -2.113992   -0.917385
     20          1           0        8.012136   -1.651542    0.202588
     21          6           0       -5.937258    0.177549    0.196357
     22          6           0       -5.419308   -1.093266    0.467055
     23          6           0       -4.053965   -1.351185    0.312573
     24          6           0       -3.231630   -0.310438   -0.116263
     25          6           0       -3.717620    0.966278   -0.393930
     26          6           0       -5.086262    1.201460   -0.232517
     27          1           0       -6.999172    0.369075    0.319054
     28          1           0       -6.077841   -1.890353    0.800265
     29          1           0       -3.626461   -2.325679    0.515112
     30          1           0       -3.036275    1.740780   -0.724590
     31          1           0       -5.485730    2.189369   -0.443481
     32          7           0       -1.784456   -0.571450   -0.283476
     33          8           0       -1.080988    0.362399   -0.662548
     34          8           0       -1.381032   -1.704938   -0.032298
 ---------------------------------------------------------------------

 SCF Done:  E(RHF) =  -669.535968358     A.U. after   15 cycles
 E2 =    -0.2091233106D+01 EUMP2 =    -0.67162720146430D+03

 The electronic state is 1-A.
 Alpha  occ. eigenvalues --  -20.60970 -20.60938 -15.85982 -11.31301 -11.27864
 Alpha  occ. eigenvalues --  -11.27860 -11.27600 -11.26870 -11.26860 -11.20795
 Alpha  occ. eigenvalues --  -11.20392 -11.20384 -11.20186 -11.20046 -11.19453
 Alpha  occ. eigenvalues --   -1.60014  -1.39571  -1.19468  -1.08874  -1.07314
 Alpha  occ. eigenvalues --   -1.04864  -1.02359  -0.95721  -0.94826  -0.86265
 Alpha  occ. eigenvalues --   -0.85863  -0.82551  -0.78476  -0.77605  -0.77086
 Alpha  occ. eigenvalues --   -0.72216  -0.71327  -0.70578  -0.65127  -0.64868
 Alpha  occ. eigenvalues --   -0.63943  -0.62212  -0.59748  -0.58239  -0.56409
 Alpha  occ. eigenvalues --   -0.55369  -0.54132  -0.53195  -0.52956  -0.51523
 Alpha  occ. eigenvalues --   -0.51269  -0.48993  -0.48960  -0.48753  -0.46781
 Alpha  occ. eigenvalues --   -0.45532  -0.44956  -0.44647  -0.44497  -0.42615
 Alpha  occ. eigenvalues --   -0.37446  -0.36465
 Alpha virt. eigenvalues --    0.04917   0.11190   0.16407   0.21289   0.23930
 Alpha virt. eigenvalues --    0.25466   0.27209   0.27720   0.28034   0.28606
 Alpha virt. eigenvalues --    0.29188   0.30846   0.32115   0.32490   0.32785

 Mulliken charges:
               1
     1  C   -0.297914
     2  C   -0.301618
     3  C   -0.468748
     4  H    0.150152
     5  H    0.144219
     6  H    0.167930
     7  H    0.144172
     8  H    0.141555
     9  H    0.154622
    10  H    0.167242
    11  C   -0.297894
    12  C   -0.298829
    13  C   -0.475164
    14  H    0.151734
    15  H    0.146891
    16  H    0.151602
    17  H    0.149636
    18  H    0.153700
    19  H    0.155237
    20  H    0.157586
    21  C   -0.170591
    22  C   -0.218561
    23  C   -0.170717
    24  C    0.157861
    25  C   -0.170447
    26  C   -0.218523
    27  H    0.226021
    28  H    0.223816
    29  H    0.275785
    30  H    0.275506
    31  H    0.223889
    32  N    0.491368
    33  O   -0.461486
    34  O   -0.460030
 Sum of Mulliken charges =  -0.00000

 Dipole moment (field-independent basis, Debye):
    X=             -5.4743    Y=              0.8088    Z=              0.5075  Tot=              5.5569
 Quadrupole moment (field-independent basis, Debye-Ang):
   XX=            -64.1444   YY=            -90.8313   ZZ=            -95.7171
   XY=             -0.1851   XZ=             -1.4758   YZ=             -2.4774

 Normal termination of Gaussian 16 at Wed May  5 21:52:55 2021.
