 Gaussian 16, Revision A.03,
 Gaussian 16:  EM64L-G16RevA.03 25-Dec-2016

 -------------
 #p 6-31g* mp2
 -------------

 ------------------------------------------------------
 Input file generated by CHIRIPA (05-May-2021 14:55:25)
 ------------------------------------------------------
 Symbolic Z-matrix:
 Charge =  0 Multiplicity = 1

                         Standard orientation:
 ---------------------------------------------------------------------
 Center     Atomic      Atomic             Coordinates (Angstroms)
 Number     Number       Type             X           Y           Z
 ---------------------------------------------------------------------
      1          6           0       -3.146856    2.615696    0.025564
      2          6           0       -2.571371    1.991846    1.137386
      3          6           0       -2.496636    0.597666    1.209667
      4          6           0       -3.009541   -0.145207    0.147425
      5          6           0       -3.588846    0.446972   -0.973744
      6          6           0       -3.652865    1.842631   -1.024601
      7          1           0       -3.200750    3.699303   -0.022265
      8          1           0       -2.177589    2.589689    1.954432
      9          1           0       -2.056351    0.088780    2.058551
     10          1           0       -3.972854   -0.175643   -1.772684
     11          1           0       -4.100343    2.324404   -1.889300
     12          7           0       -2.936094   -1.621946    0.212606
     13          8           0       -3.395169   -2.253913   -0.736343
     14          8           0       -2.420843   -2.119484    1.211410
     15          6           0        4.570576   -0.322190    0.050404
     16          6           0        5.605349    0.784281   -0.156849
     17          6           0        7.006622    0.376070    0.298774
     18          1           0        4.546151   -0.598162    1.113507
     19          1           0        4.888652   -1.219527   -0.498238
     20          1           0        5.284716    1.679706    0.390895
     21          1           0        5.627177    1.057784   -1.219550
     22          1           0        7.351252   -0.502763   -0.255739
     23          1           0        7.006845    0.122693    1.363857
     24          1           0        7.730502    1.181764    0.141564
     25          6           0        3.164838    0.070855   -0.400311
     26          6           0        2.130065   -1.035615   -0.193059
     27          6           0        0.728791   -0.627404   -0.648682
     28          1           0        2.846761    0.968193    0.148331
     29          1           0        3.189262    0.346827   -1.463415
     30          1           0        2.108237   -1.309118    0.869643
     31          1           0        2.450698   -1.931041   -0.740803
     32          1           0        0.728568   -0.374027   -1.713765
     33          1           0        0.384161    0.251428   -0.094169
     34          1           0        0.004911   -1.433098   -0.491472
 ---------------------------------------------------------------------

 SCF Done:  E(RHF) =  -669.535541090     A.U. after   15 cycles
 E2 =    -0.2092293040D+01 EUMP2 =    -0.67162783413056D+03

 The electronic state is 1-A.
 Alpha  occ. eigenvalues --  -20.60813 -20.60807 -15.85844 -11.31170 -11.27757
 Alpha  occ. eigenvalues --  -11.27753 -11.27507 -11.26778 -11.26759 -11.21562
 Alpha  occ. eigenvalues --  -11.21334 -11.21288 -11.21228 -11.21032 -11.20762
 Alpha  occ. eigenvalues --   -1.59884  -1.39437  -1.19360  -1.08762  -1.08299
 Alpha  occ. eigenvalues --   -1.04766  -1.03374  -0.95836  -0.95602  -0.86864
 Alpha  occ. eigenvalues --   -0.86160  -0.82439  -0.79450  -0.78111  -0.77488
 Alpha  occ. eigenvalues --   -0.72074  -0.71217  -0.70477  -0.65019  -0.64935
 Alpha  occ. eigenvalues --   -0.64770  -0.62116  -0.60780  -0.59192  -0.57428
 Alpha  occ. eigenvalues --   -0.55278  -0.55154  -0.53166  -0.52859  -0.52485
 Alpha  occ. eigenvalues --   -0.52205  -0.49778  -0.48833  -0.48831  -0.47752
 Alpha  occ. eigenvalues --   -0.46482  -0.45650  -0.45584  -0.44848  -0.43621
 Alpha  occ. eigenvalues --   -0.37312  -0.36343
 Alpha virt. eigenvalues --    0.05026   0.11282   0.16519   0.21380   0.22981
 Alpha virt. eigenvalues --    0.24422   0.26746   0.27301   0.27625   0.27874
 Alpha virt. eigenvalues --    0.28493   0.30869   0.31490   0.31946   0.32008

 Mulliken charges:
               1
     1  C   -0.170286
     2  C   -0.219715
     3  C   -0.170275
     4  C    0.161616
     5  C   -0.170656
     6  C   -0.218539
     7  H    0.225600
     8  H    0.223284
     9  H    0.275604
    10  H    0.275642
    11  H    0.223401
    12  N    0.487920
    13  O   -0.459559
    14  O   -0.459883
    15  C   -0.298178
    16  C   -0.299266
    17  C   -0.475611
    18  H    0.149757
    19  H    0.150673
    20  H    0.150177
    21  H    0.151524
    22  H    0.155819
    23  H    0.155195
    24  H    0.159502
    25  C   -0.297746
    26  C   -0.299091
    27  C   -0.483264
    28  H    0.145784
    29  H    0.148743
    30  H    0.153628
    31  H    0.154229
    32  H    0.153075
    33  H    0.151199
    34  H    0.169697
 Sum of Mulliken charges =  -0.00000

 Dipole moment (field-independent basis, Debye):
    X=             -0.3416    Y=              5.1409    Z=             -0.2306  Tot=              5.1574
 Quadrupole moment (field-independent basis, Debye-Ang):
   XX=            -94.1107   YY=            -96.7230   ZZ=            -90.2107
   XY=            -15.7495   XZ=              2.5512   YZ=              1.5255

 Normal termination of Gaussian 16 at Wed May  5 22:29:51 2021.
