 Gaussian 16, Revision A.03,
 Gaussian 16:  EM64L-G16RevA.03 25-Dec-2016

 -------------
 #p 6-31g* mp2
 -------------

 ------------------------------------------------------
 Input file generated by CHIRIPA (05-May-2021 14:53:17)
 ------------------------------------------------------
 Symbolic Z-matrix:
 Charge =  0 Multiplicity = 1

                         Standard orientation:
 ---------------------------------------------------------------------
 Center     Atomic      Atomic             Coordinates (Angstroms)
 Number     Number       Type             X           Y           Z
 ---------------------------------------------------------------------
      1          6           0       -4.207562   -0.325130    0.035356
      2          6           0       -3.795264   -1.792651    0.155260
      3          6           0       -4.953887   -2.755465   -0.106229
      4          1           0       -5.022733   -0.120899    0.742979
      5          1           0       -4.614111   -0.146669   -0.969763
      6          1           0       -3.388333   -1.967968    1.159395
      7          1           0       -2.980850   -1.993365   -0.552596
      8          1           0       -5.356122   -2.609510   -1.113952
      9          1           0       -5.765921   -2.583969    0.607766
     10          1           0       -4.636953   -3.799087   -0.015312
     11          6           0       -3.060076    0.649600    0.294018
     12          6           0       -3.472374    2.117121    0.174114
     13          6           0       -2.313751    3.079935    0.435603
     14          1           0       -2.653527    0.471139    1.299137
     15          1           0       -2.244905    0.445369   -0.413605
     16          1           0       -4.286788    2.317835    0.881969
     17          1           0       -3.879305    2.292438   -0.830021
     18          1           0       -1.501717    2.908439   -0.278393
     19          1           0       -1.911516    2.933980    1.443325
     20          1           0       -2.630685    4.123557    0.344686
     21          6           0        5.219275   -0.711867    0.469226
     22          6           0        4.873679    0.614222    0.188923
     23          6           0        3.557880    0.949961   -0.143492
     24          6           0        2.608797   -0.070178   -0.186463
     25          6           0        2.922028   -1.400611    0.087628
     26          6           0        4.244065   -1.713287    0.417775
     27          1           0        6.243843   -0.963720    0.726573
     28          1           0        5.628955    1.394009    0.228114
     29          1           0        3.262893    1.968443   -0.365066
     30          1           0        2.147162   -2.156110    0.040481
     31          1           0        4.509584   -2.743998    0.634984
     32          7           0        1.212517    0.273045   -0.537176
     33          8           0        0.394922   -0.644132   -0.568211
     34          8           0        0.962146    1.452740   -0.774386
 ---------------------------------------------------------------------

 SCF Done:  E(RHF) =  -669.536854628     A.U. after   15 cycles
 E2 =    -0.2092432115D+01 EUMP2 =    -0.67162928674327D+03

 The electronic state is 1-A.
 Alpha  occ. eigenvalues --  -20.61169 -20.61164 -15.86153 -11.31406 -11.27952
 Alpha  occ. eigenvalues --  -11.27949 -11.27678 -11.26942 -11.26932 -11.20323
 Alpha  occ. eigenvalues --  -11.20113 -11.20021 -11.19983 -11.19455 -11.19313
 Alpha  occ. eigenvalues --   -1.60195  -1.39755  -1.19561  -1.08981  -1.06904
 Alpha  occ. eigenvalues --   -1.04944  -1.02102  -0.95834  -0.94544  -0.86349
 Alpha  occ. eigenvalues --   -0.85562  -0.82673  -0.78183  -0.77734  -0.76649
 Alpha  occ. eigenvalues --   -0.72374  -0.71490  -0.70669  -0.65218  -0.64948
 Alpha  occ. eigenvalues --   -0.63545  -0.62291  -0.59509  -0.57954  -0.56147
 Alpha  occ. eigenvalues --   -0.55454  -0.53830  -0.53280  -0.53034  -0.51308
 Alpha  occ. eigenvalues --   -0.50965  -0.49241  -0.49156  -0.48421  -0.46477
 Alpha  occ. eigenvalues --   -0.45248  -0.45121  -0.44239  -0.43919  -0.42320
 Alpha  occ. eigenvalues --   -0.37535  -0.36540
 Alpha virt. eigenvalues --    0.04788   0.11116   0.16299   0.21246   0.24314
 Alpha virt. eigenvalues --    0.25716   0.27184   0.27985   0.28255   0.29227
 Alpha virt. eigenvalues --    0.29362   0.30870   0.32332   0.32789   0.32959

 Mulliken charges:
               1
     1  C   -0.297228
     2  C   -0.299350
     3  C   -0.474760
     4  H    0.142924
     5  H    0.145938
     6  H    0.148156
     7  H    0.160752
     8  H    0.153260
     9  H    0.151871
    10  H    0.155605
    11  C   -0.307595
    12  C   -0.297535
    13  C   -0.483230
    14  H    0.142108
    15  H    0.180695
    16  H    0.143278
    17  H    0.147429
    18  H    0.180383
    19  H    0.147613
    20  H    0.149862
    21  C   -0.170301
    22  C   -0.218628
    23  C   -0.170526
    24  C    0.158027
    25  C   -0.170374
    26  C   -0.218628
    27  H    0.226415
    28  H    0.224260
    29  H    0.276229
    30  H    0.276177
    31  H    0.224238
    32  N    0.490733
    33  O   -0.457999
    34  O   -0.459798
 Sum of Mulliken charges =  -0.00000

 Dipole moment (field-independent basis, Debye):
    X=              5.5059    Y=             -1.2800    Z=              1.0598  Tot=              5.7513
 Quadrupole moment (field-independent basis, Debye-Ang):
   XX=            -71.7259   YY=            -91.5737   ZZ=            -95.2871
   XY=             -2.5387   XZ=              2.4389   YZ=             -0.8020

 Normal termination of Gaussian 16 at Thu May  6 13:58:28 2021.
