 Gaussian 16, Revision A.03,
 Gaussian 16:  EM64L-G16RevA.03 25-Dec-2016

 -------------
 #p 6-31g* mp2
 -------------

 ------------------------------------------------------
 Input file generated by CHIRIPA (05-May-2021 14:55:25)
 ------------------------------------------------------
 Symbolic Z-matrix:
 Charge =  0 Multiplicity = 1

                         Standard orientation:
 ---------------------------------------------------------------------
 Center     Atomic      Atomic             Coordinates (Angstroms)
 Number     Number       Type             X           Y           Z
 ---------------------------------------------------------------------
      1          6           0        1.693782   -2.351077    1.239086
      2          6           0        2.865440   -1.626074    1.480146
      3          6           0        3.140447   -0.460713    0.758446
      4          6           0        2.217713   -0.047318   -0.201219
      5          6           0        1.041628   -0.747920   -0.464415
      6          6           0        0.787214   -1.910463    0.269285
      7          1           0        1.488148   -3.255264    1.804381
      8          1           0        3.571295   -1.965893    2.232699
      9          1           0        4.039799    0.119740    0.924753
     10          1           0        0.356999   -0.384223   -1.221002
     11          1           0       -0.123518   -2.471500    0.079945
     12          7           0        2.497950    1.184906   -0.971602
     13          8           0        1.668977    1.528044   -1.811660
     14          8           0        3.541267    1.784253   -0.720784
     15          6           0       -2.555122    1.045463    0.008356
     16          6           0       -2.640647    1.864852    1.296483
     17          6           0       -2.188320    3.313057    1.107015
     18          1           0       -1.520824    1.062632   -0.361615
     19          1           0       -3.171572    1.524973   -0.764597
     20          1           0       -2.025319    1.383180    2.067184
     21          1           0       -3.674823    1.845572    1.663533
     22          1           0       -2.808371    3.815385    0.357480
     23          1           0       -1.149496    3.350366    0.763425
     24          1           0       -2.257582    3.880641    2.040240
     25          6           0       -3.003985   -0.404432    0.181725
     26          6           0       -2.918459   -1.223820   -1.106402
     27          6           0       -3.370788   -2.672024   -0.916935
     28          1           0       -2.387534   -0.883941    0.954677
     29          1           0       -4.038282   -0.421600    0.551695
     30          1           0       -1.884284   -1.204540   -1.473453
     31          1           0       -3.533787   -0.742148   -1.877103
     32          1           0       -4.409611   -2.709334   -0.573343
     33          1           0       -2.750735   -3.174352   -0.167400
     34          1           0       -3.301524   -3.239609   -1.850160
 ---------------------------------------------------------------------

 SCF Done:  E(RHF) =  -669.534800572     A.U. after   15 cycles
 E2 =    -0.2094183064D+01 EUMP2 =    -0.67162898363561D+03

 The electronic state is 1-A.
 Alpha  occ. eigenvalues --  -20.60838 -20.60833 -15.85881 -11.31235 -11.27805
 Alpha  occ. eigenvalues --  -11.27778 -11.27540 -11.26817 -11.26789 -11.22403
 Alpha  occ. eigenvalues --  -11.21938 -11.21891 -11.21657 -11.21542 -11.20882
 Alpha  occ. eigenvalues --   -1.59907  -1.39461  -1.19410  -1.08856  -1.08797
 Alpha  occ. eigenvalues --   -1.04815  -1.03912  -0.96340  -0.95642  -0.87356
 Alpha  occ. eigenvalues --   -0.86212  -0.82480  -0.80026  -0.78586  -0.77526
 Alpha  occ. eigenvalues --   -0.72100  -0.71229  -0.70539  -0.65618  -0.65031
 Alpha  occ. eigenvalues --   -0.64829  -0.62208  -0.61194  -0.59752  -0.57925
 Alpha  occ. eigenvalues --   -0.55661  -0.55308  -0.53131  -0.53070  -0.52896
 Alpha  occ. eigenvalues --   -0.52715  -0.50312  -0.48860  -0.48857  -0.48300
 Alpha  occ. eigenvalues --   -0.47094  -0.46098  -0.45989  -0.44850  -0.44141
 Alpha  occ. eigenvalues --   -0.37385  -0.36389
 Alpha virt. eigenvalues --    0.04965   0.11135   0.16406   0.18966   0.23256
 Alpha virt. eigenvalues --    0.23572   0.24653   0.26009   0.27550   0.28488
 Alpha virt. eigenvalues --    0.29491   0.30788   0.31224   0.31454   0.32408

 Mulliken charges:
               1
     1  C   -0.172091
     2  C   -0.218390
     3  C   -0.170703
     4  C    0.159788
     5  C   -0.178693
     6  C   -0.224407
     7  H    0.226140
     8  H    0.223738
     9  H    0.275734
    10  H    0.281746
    11  H    0.231363
    12  N    0.488669
    13  O   -0.461356
    14  O   -0.459802
    15  C   -0.303141
    16  C   -0.300001
    17  C   -0.476958
    18  H    0.154931
    19  H    0.152874
    20  H    0.150761
    21  H    0.150924
    22  H    0.156443
    23  H    0.162323
    24  H    0.159533
    25  C   -0.300595
    26  C   -0.305510
    27  C   -0.477229
    28  H    0.146073
    29  H    0.152661
    30  H    0.143348
    31  H    0.160380
    32  H    0.160987
    33  H    0.146749
    34  H    0.163710
 Sum of Mulliken charges =  -0.00000

 Dipole moment (field-independent basis, Debye):
    X=             -1.0623    Y=             -4.2241    Z=              2.6878  Tot=              5.1182
 Quadrupole moment (field-independent basis, Debye-Ang):
   XX=            -94.1948   YY=            -95.8623   ZZ=            -95.1493
   XY=             -9.7205   XZ=              9.2859   YZ=              0.8941

 Normal termination of Gaussian 16 at Wed May  5 19:11:33 2021.
