 Gaussian 16, Revision A.03,
 Gaussian 16:  EM64L-G16RevA.03 25-Dec-2016

 -------------
 #p 6-31g* mp2
 -------------

 ------------------------------------------------------
 Input file generated by CHIRIPA (05-May-2021 14:51:12)
 ------------------------------------------------------
 Symbolic Z-matrix:
 Charge =  0 Multiplicity = 1

                         Standard orientation:
 ---------------------------------------------------------------------
 Center     Atomic      Atomic             Coordinates (Angstroms)
 Number     Number       Type             X           Y           Z
 ---------------------------------------------------------------------
      1          6           0        3.485001    0.946518    0.248015
      2          6           0        2.187329    1.020217   -0.557343
      3          6           0        1.214552    2.068460   -0.016340
      4          1           0        3.246163    0.720745    1.296312
      5          1           0        3.967996    1.933476    0.243050
      6          1           0        1.707625    0.033063   -0.552018
      7          1           0        2.429297    1.245651   -1.603883
      8          1           0        1.670008    3.063812   -0.037215
      9          1           0        0.944236    1.844334    1.020626
     10          1           0        0.293733    2.104268   -0.606823
     11          6           0        4.467653   -0.096874   -0.280621
     12          6           0        5.765325   -0.170573    0.524736
     13          6           0        6.738102   -1.218816   -0.016267
     14          1           0        3.984658   -1.083832   -0.275656
     15          1           0        4.706491    0.128899   -1.328919
     16          1           0        5.523357   -0.396008    1.571277
     17          1           0        6.245029    0.816581    0.519412
     18          1           0        7.008418   -0.994690   -1.053233
     19          1           0        6.282646   -2.214168    0.004609
     20          1           0        7.658921   -1.254624    0.574216
     21          6           0       -4.636812   -0.272362   -0.335760
     22          6           0       -5.764233    0.103254    0.626435
     23          6           0       -7.079183    0.405427   -0.092865
     24          1           0       -4.485184    0.547754   -1.050857
     25          1           0       -4.943280   -1.147933   -0.924698
     26          1           0       -5.455181    0.977013    1.214353
     27          1           0       -5.913065   -0.717772    1.339443
     28          1           0       -7.413927   -0.465466   -0.665658
     29          1           0       -6.953441    1.238948   -0.791459
     30          1           0       -7.871394    0.671621    0.613821
     31          6           0       -3.315842   -0.577281    0.368367
     32          6           0       -2.188421   -0.952898   -0.593828
     33          6           0       -0.873471   -1.255071    0.125471
     34          1           0       -3.009374    0.298289    0.957305
     35          1           0       -3.467470   -1.397398    1.083463
     36          1           0       -2.039589   -0.131872   -1.306837
     37          1           0       -2.497473   -1.826657   -1.181747
     38          1           0       -0.999213   -2.088592    0.824066
     39          1           0       -0.538727   -0.384177    0.698264
     40          1           0       -0.081261   -1.521264   -0.581215
 ---------------------------------------------------------------------

 SCF Done:  E(RHF) =  -470.732391565     A.U. after   11 cycles
 E2 =    -0.1583487027D+01 EUMP2 =    -0.47231587859250D+03

 The electronic state is 1-A.
 Alpha  occ. eigenvalues --  -11.21620 -11.21604 -11.21571 -11.21464 -11.21412
 Alpha  occ. eigenvalues --  -11.21357 -11.21353 -11.21294 -11.21072 -11.21071
 Alpha  occ. eigenvalues --  -11.21055 -11.21048  -1.08446  -1.08375  -1.03585
 Alpha  occ. eigenvalues --   -1.03448  -0.96052  -0.95896  -0.87021  -0.86967
 Alpha  occ. eigenvalues --   -0.79657  -0.79512  -0.78256  -0.78189  -0.65148
 Alpha  occ. eigenvalues --   -0.64962  -0.61201  -0.60699  -0.59445  -0.59229
 Alpha  occ. eigenvalues --   -0.57649  -0.57516  -0.55507  -0.54993  -0.52731
 Alpha  occ. eigenvalues --   -0.52637  -0.52419  -0.52367  -0.49967  -0.49838
 Alpha  occ. eigenvalues --   -0.47954  -0.47840  -0.46665  -0.46530  -0.45794
 Alpha  occ. eigenvalues --   -0.45757  -0.45701  -0.45630  -0.43791  -0.43684
 Alpha virt. eigenvalues --    0.21063   0.23057   0.23611   0.25160   0.26105
 Alpha virt. eigenvalues --    0.26499   0.26706   0.27622   0.27818   0.29279
 Alpha virt. eigenvalues --    0.30258   0.30878   0.31396   0.32310   0.32393

 Mulliken charges:
               1
     1  C   -0.297543
     2  C   -0.307079
     3  C   -0.476996
     4  H    0.149327
     5  H    0.148967
     6  H    0.161588
     7  H    0.150905
     8  H    0.155543
     9  H    0.154119
    10  H    0.160129
    11  C   -0.298267
    12  C   -0.299594
    13  C   -0.475697
    14  H    0.149359
    15  H    0.149451
    16  H    0.151962
    17  H    0.151849
    18  H    0.155079
    19  H    0.155161
    20  H    0.160149
    21  C   -0.298311
    22  C   -0.299686
    23  C   -0.475712
    24  H    0.149655
    25  H    0.149524
    26  H    0.152056
    27  H    0.151908
    28  H    0.155163
    29  H    0.155216
    30  H    0.160277
    31  C   -0.298845
    32  C   -0.299833
    33  C   -0.482182
    34  H    0.150027
    35  H    0.149631
    36  H    0.152248
    37  H    0.151974
    38  H    0.154662
    39  H    0.161890
    40  H    0.161926
 Sum of Mulliken charges =  -0.00000

 Dipole moment (field-independent basis, Debye):
    X=             -0.0272    Y=             -0.0183    Z=              0.0053  Tot=              0.0332
 Quadrupole moment (field-independent basis, Debye-Ang):
   XX=            -86.3924   YY=            -83.9523   ZZ=            -84.6459
   XY=              1.3335   XZ=             -0.4363   YZ=             -0.6049

 Normal termination of Gaussian 16 at Thu May  6 03:54:21 2021.
