 Gaussian 16, Revision A.03,
 Gaussian 16:  EM64L-G16RevA.03 25-Dec-2016

 -------------
 #p 6-31g* mp2
 -------------

 ------------------------------------------------------
 Input file generated by CHIRIPA (05-May-2021 14:51:10)
 ------------------------------------------------------
 Symbolic Z-matrix:
 Charge =  0 Multiplicity = 1

                         Standard orientation:
 ---------------------------------------------------------------------
 Center     Atomic      Atomic             Coordinates (Angstroms)
 Number     Number       Type             X           Y           Z
 ---------------------------------------------------------------------
      1          6           0        4.108562   -0.347602    0.285949
      2          6           0        5.018992   -0.078845   -0.912747
      3          6           0        6.433263    0.330928   -0.500779
      4          1           0        4.062829    0.553416    0.912862
      5          1           0        4.554209   -1.137626    0.906155
      6          1           0        4.571072    0.709471   -1.531247
      7          1           0        5.062410   -0.980545   -1.536981
      8          1           0        6.903431   -0.456059    0.097715
      9          1           0        6.409301    1.243560    0.103482
     10          1           0        7.067147    0.518177   -1.373125
     11          6           0        2.691351   -0.758285   -0.109755
     12          6           0        1.780921   -1.027042    1.088941
     13          6           0        0.366651   -1.436815    0.676972
     14          1           0        2.245705    0.031739   -0.729962
     15          1           0        2.737084   -1.659303   -0.736668
     16          1           0        1.737503   -0.125342    1.713174
     17          1           0        2.228842   -1.815358    1.707440
     18          1           0        0.390612   -2.349447    0.072712
     19          1           0       -0.103518   -0.649828    0.078479
     20          1           0       -0.267233   -1.624064    1.549319
     21          6           0       -2.894594    0.904457    0.364096
     22          6           0       -2.073376    1.972199   -0.359444
     23          6           0       -1.066769    2.666522    0.558408
     24          1           0       -3.424277    1.367586    1.207834
     25          1           0       -2.213577    0.157350    0.794728
     26          1           0       -2.755812    2.716324   -0.789763
     27          1           0       -1.545736    1.506511   -1.201671
     28          1           0       -0.362969    1.940250    0.977688
     29          1           0       -1.579920    3.156937    1.391936
     30          1           0       -0.490531    3.425947    0.020743
     31          6           0       -3.905320    0.201430   -0.540290
     32          6           0       -4.726537   -0.866312    0.183250
     33          6           0       -5.733145   -1.560635   -0.734601
     34          1           0       -4.586336    0.948536   -0.970922
     35          1           0       -3.375636   -0.261700   -1.384027
     36          1           0       -5.254177   -0.400625    1.025477
     37          1           0       -4.044101   -1.610437    0.613569
     38          1           0       -5.219993   -2.051050   -1.568131
     39          1           0       -6.436945   -0.834363   -1.153882
     40          1           0       -6.309383   -2.320059   -0.196936
 ---------------------------------------------------------------------

 SCF Done:  E(RHF) =  -470.732729116     A.U. after   11 cycles
 E2 =    -0.1583760417D+01 EUMP2 =    -0.47231648953377D+03

 The electronic state is 1-A.
 Alpha  occ. eigenvalues --  -11.21682 -11.21623 -11.21600 -11.21547 -11.21449
 Alpha  occ. eigenvalues --  -11.21385 -11.21323 -11.21233 -11.21161 -11.21090
 Alpha  occ. eigenvalues --  -11.21085 -11.21028  -1.08485  -1.08376  -1.03605
 Alpha  occ. eigenvalues --   -1.03489  -0.96044  -0.95945  -0.87083  -0.86949
 Alpha  occ. eigenvalues --   -0.79666  -0.79558  -0.78296  -0.78179  -0.65261
 Alpha  occ. eigenvalues --   -0.64919  -0.61217  -0.60687  -0.59415  -0.59310
 Alpha  occ. eigenvalues --   -0.57644  -0.57557  -0.55325  -0.55241  -0.52764
 Alpha  occ. eigenvalues --   -0.52648  -0.52462  -0.52360  -0.50114  -0.49783
 Alpha  occ. eigenvalues --   -0.48002  -0.47843  -0.46724  -0.46580  -0.45878
 Alpha  occ. eigenvalues --   -0.45774  -0.45704  -0.45495  -0.43816  -0.43740
 Alpha virt. eigenvalues --    0.20014   0.22880   0.23773   0.24800   0.26163
 Alpha virt. eigenvalues --    0.26388   0.26770   0.27777   0.28310   0.29420
 Alpha virt. eigenvalues --    0.30328   0.31202   0.31596   0.31892   0.32104

 Mulliken charges:
               1
     1  C   -0.298423
     2  C   -0.299726
     3  C   -0.475756
     4  H    0.150066
     5  H    0.149600
     6  H    0.152105
     7  H    0.151907
     8  H    0.155193
     9  H    0.155340
    10  H    0.160335
    11  C   -0.298921
    12  C   -0.301052
    13  C   -0.482547
    14  H    0.150075
    15  H    0.149741
    16  H    0.153100
    17  H    0.152538
    18  H    0.155626
    19  H    0.161719
    20  H    0.160878
    21  C   -0.306101
    22  C   -0.300565
    23  C   -0.479141
    24  H    0.149022
    25  H    0.158805
    26  H    0.152490
    27  H    0.150906
    28  H    0.157617
    29  H    0.155673
    30  H    0.159895
    31  C   -0.297797
    32  C   -0.299760
    33  C   -0.475664
    34  H    0.149099
    35  H    0.149457
    36  H    0.151649
    37  H    0.152383
    38  H    0.155202
    39  H    0.155002
    40  H    0.160029
 Sum of Mulliken charges =  -0.00000

 Dipole moment (field-independent basis, Debye):
    X=              0.0411    Y=             -0.0270    Z=              0.0142  Tot=              0.0512
 Quadrupole moment (field-independent basis, Debye-Ang):
   XX=            -86.0286   YY=            -83.7968   ZZ=            -85.0515
   XY=             -1.5383   XZ=             -0.7556   YZ=             -0.1830

 Normal termination of Gaussian 16 at Thu May  6 00:38:53 2021.
