 Gaussian 16, Revision A.03,
 Gaussian 16:  EM64L-G16RevA.03 25-Dec-2016

 -------------
 #p 6-31g* mp2
 -------------

 ------------------------------------------------------
 Input file generated by CHIRIPA (05-May-2021 14:55:22)
 ------------------------------------------------------
 Symbolic Z-matrix:
 Charge =  0 Multiplicity = 1

                         Standard orientation:
 ---------------------------------------------------------------------
 Center     Atomic      Atomic             Coordinates (Angstroms)
 Number     Number       Type             X           Y           Z
 ---------------------------------------------------------------------
      1          6           0        5.015749    0.067256    1.253228
      2          6           0        5.088067   -0.414354   -0.058009
      3          6           0        3.923772   -0.619734   -0.804188
      4          6           0        2.698394   -0.331778   -0.205171
      5          6           0        2.593588    0.149134    1.099064
      6          6           0        3.770935    0.346969    1.826569
      7          1           0        5.925271    0.223870    1.825625
      8          1           0        6.053431   -0.632441   -0.505842
      9          1           0        3.950856   -0.991635   -1.821230
     10          1           0        1.616782    0.357499    1.518410
     11          1           0        3.711743    0.721093    2.844691
     12          7           0        1.458899   -0.545211   -0.985233
     13          8           0        0.391568   -0.283894   -0.434638
     14          8           0        1.578183   -0.969777   -2.132470
     15          6           0       -3.279485    0.789531   -0.376689
     16          6           0       -2.776703    2.096344    0.237668
     17          6           0       -1.905951    2.905230   -0.724252
     18          1           0       -2.418173    0.184318   -0.691021
     19          1           0       -3.850946    1.016605   -1.287328
     20          1           0       -2.207531    1.866963    1.147637
     21          1           0       -3.639307    2.698432    0.550749
     22          1           0       -2.467382    3.162895   -1.628136
     23          1           0       -1.027469    2.326702   -1.027856
     24          1           0       -1.557381    3.835370   -0.264689
     25          6           0       -4.151371   -0.030230    0.572804
     26          6           0       -4.654153   -1.337044   -0.041553
     27          6           0       -5.524905   -2.145929    0.920367
     28          1           0       -3.579910   -0.257306    1.483443
     29          1           0       -5.012682    0.574982    0.887136
     30          1           0       -3.791549   -1.939131   -0.354634
     31          1           0       -5.223326   -1.107663   -0.951522
     32          1           0       -6.403387   -1.567402    1.223972
     33          1           0       -4.963474   -2.403595    1.824251
     34          1           0       -5.873475   -3.076070    0.460805
 ---------------------------------------------------------------------

 SCF Done:  E(RHF) =  -669.536624645     A.U. after   15 cycles
 E2 =    -0.2091599150D+01 EUMP2 =    -0.67162822379469D+03

 The electronic state is 1-A.
 Alpha  occ. eigenvalues --  -20.61121 -20.61116 -15.86135 -11.31383 -11.27937
 Alpha  occ. eigenvalues --  -11.27934 -11.27663 -11.26929 -11.26919 -11.20616
 Alpha  occ. eigenvalues --  -11.20477 -11.20316 -11.20302 -11.19905 -11.19876
 Alpha  occ. eigenvalues --   -1.60169  -1.39728  -1.19544  -1.08963  -1.07262
 Alpha  occ. eigenvalues --   -1.04930  -1.02471  -0.95816  -0.94917  -0.86334
 Alpha  occ. eigenvalues --   -0.85941  -0.82656  -0.78552  -0.77718  -0.77048
 Alpha  occ. eigenvalues --   -0.72368  -0.71471  -0.70654  -0.65207  -0.64933
 Alpha  occ. eigenvalues --   -0.63863  -0.62278  -0.59857  -0.58304  -0.56538
 Alpha  occ. eigenvalues --   -0.55438  -0.54192  -0.53264  -0.53021  -0.51678
 Alpha  occ. eigenvalues --   -0.51350  -0.49169  -0.49110  -0.48824  -0.46876
 Alpha  occ. eigenvalues --   -0.45604  -0.45118  -0.44628  -0.44366  -0.42692
 Alpha  occ. eigenvalues --   -0.37519  -0.36527
 Alpha virt. eigenvalues --    0.04786   0.11129   0.16276   0.21181   0.23936
 Alpha virt. eigenvalues --    0.25199   0.27123   0.27549   0.28459   0.28795
 Alpha virt. eigenvalues --    0.29022   0.30800   0.31954   0.32640   0.32789

 Mulliken charges:
               1
     1  C   -0.170327
     2  C   -0.218631
     3  C   -0.170224
     4  C    0.157399
     5  C   -0.170536
     6  C   -0.218530
     7  H    0.226382
     8  H    0.224146
     9  H    0.276056
    10  H    0.275846
    11  H    0.224263
    12  N    0.492452
    13  O   -0.464408
    14  O   -0.457289
    15  C   -0.310831
    16  C   -0.293798
    17  C   -0.480924
    18  H    0.181449
    19  H    0.143940
    20  H    0.146539
    21  H    0.145019
    22  H    0.151941
    23  H    0.168924
    24  H    0.150847
    25  C   -0.296412
    26  C   -0.299950
    27  C   -0.474915
    28  H    0.146469
    29  H    0.143961
    30  H    0.157461
    31  H    0.150188
    32  H    0.152561
    33  H    0.152994
    34  H    0.157937
 Sum of Mulliken charges =  -0.00000

 Dipole moment (field-independent basis, Debye):
    X=              4.7906    Y=              0.5704    Z=              2.6236  Tot=              5.4917
 Quadrupole moment (field-independent basis, Debye-Ang):
   XX=            -71.0342   YY=            -96.6897   ZZ=            -93.3529
   XY=             -0.8991   XZ=              5.2937   YZ=              0.7129

 Normal termination of Gaussian 16 at Thu May  6 09:24:14 2021.
