 Gaussian 16, Revision A.03,
 Gaussian 16:  EM64L-G16RevA.03 25-Dec-2016

 -------------
 #p 6-31g* mp2
 -------------

 ------------------------------------------------------
 Input file generated by CHIRIPA (05-May-2021 14:51:13)
 ------------------------------------------------------
 Symbolic Z-matrix:
 Charge =  0 Multiplicity = 1

                         Standard orientation:
 ---------------------------------------------------------------------
 Center     Atomic      Atomic             Coordinates (Angstroms)
 Number     Number       Type             X           Y           Z
 ---------------------------------------------------------------------
      1          6           0       -2.046377    1.327867    0.338258
      2          6           0       -1.390979    2.184639   -0.745430
      3          6           0       -0.292793    3.095273   -0.195405
      4          1           0       -2.466315    1.984897    1.112150
      5          1           0       -1.275624    0.718463    0.830154
      6          1           0       -2.162951    2.791228   -1.236068
      7          1           0       -0.972720    1.525500   -1.516929
      8          1           0        0.497835    2.503333    0.276946
      9          1           0       -0.699159    3.776253    0.559402
     10          1           0        0.162196    3.698777   -0.987004
     11          6           0       -3.146242    0.412176   -0.196095
     12          6           0       -3.801640   -0.444596    0.887593
     13          6           0       -4.899826   -1.355230    0.337569
     14          1           0       -3.916995    1.021581   -0.687991
     15          1           0       -2.726304   -0.244853   -0.969987
     16          1           0       -4.219899    0.214544    1.659092
     17          1           0       -3.029668   -1.051184    1.378232
     18          1           0       -4.493460   -2.036209   -0.417239
     19          1           0       -5.690454   -0.763290   -0.134783
     20          1           0       -5.354815   -1.958733    1.129168
     21          6           0        3.304931   -0.855329    0.213648
     22          6           0        3.995699    0.499093    0.051263
     23          6           0        5.412586    0.512713    0.625753
     24          1           0        3.272306   -1.117630    1.279988
     25          1           0        3.909260   -1.628848   -0.280163
     26          1           0        3.389546    1.270042    0.544044
     27          1           0        4.026512    0.758289   -1.014796
     28          1           0        6.037499   -0.235530    0.127539
     29          1           0        5.396914    0.279130    1.695236
     30          1           0        5.887822    1.490433    0.498966
     31          6           0        1.887687   -0.884715   -0.355812
     32          6           0        1.196920   -2.239136   -0.193426
     33          6           0       -0.219967   -2.252756   -0.767916
     34          1           0        1.283359   -0.111195    0.137999
     35          1           0        1.920312   -0.622414   -1.422151
     36          1           0        1.166107   -2.498332    0.872633
     37          1           0        1.803073   -3.010084   -0.686207
     38          1           0       -0.204295   -2.019173   -1.837399
     39          1           0       -0.844880   -1.504514   -0.269702
     40          1           0       -0.695203   -3.230476   -0.641128
 ---------------------------------------------------------------------

 SCF Done:  E(RHF) =  -470.732478903     A.U. after   11 cycles
 E2 =    -0.1585255602D+01 EUMP2 =    -0.47231773450522D+03

 The electronic state is 1-A.
 Alpha  occ. eigenvalues --  -11.21672 -11.21634 -11.21582 -11.21574 -11.21469
 Alpha  occ. eigenvalues --  -11.21405 -11.21395 -11.21302 -11.21117 -11.21090
 Alpha  occ. eigenvalues --  -11.21055 -11.21036  -1.08520  -1.08398  -1.03585
 Alpha  occ. eigenvalues --   -1.03508  -0.96072  -0.95931  -0.87073  -0.86963
 Alpha  occ. eigenvalues --   -0.79662  -0.79568  -0.78317  -0.78229  -0.65423
 Alpha  occ. eigenvalues --   -0.64851  -0.60998  -0.60893  -0.59397  -0.59327
 Alpha  occ. eigenvalues --   -0.57662  -0.57571  -0.55538  -0.55046  -0.52725
 Alpha  occ. eigenvalues --   -0.52650  -0.52485  -0.52337  -0.50047  -0.49827
 Alpha  occ. eigenvalues --   -0.47976  -0.47896  -0.46774  -0.46604  -0.46059
 Alpha  occ. eigenvalues --   -0.45882  -0.45609  -0.45331  -0.43838  -0.43761
 Alpha virt. eigenvalues --    0.19551   0.22101   0.23734   0.24439   0.25596
 Alpha virt. eigenvalues --    0.26024   0.26885   0.27570   0.29082   0.29745
 Alpha virt. eigenvalues --    0.30966   0.31366   0.31537   0.31855   0.32172

 Mulliken charges:
               1
     1  C   -0.302483
     2  C   -0.299928
     3  C   -0.478941
     4  H    0.150304
     5  H    0.150112
     6  H    0.152119
     7  H    0.153816
     8  H    0.157471
     9  H    0.154840
    10  H    0.160559
    11  C   -0.304331
    12  C   -0.300432
    13  C   -0.475784
    14  H    0.150786
    15  H    0.154544
    16  H    0.151910
    17  H    0.152037
    18  H    0.156059
    19  H    0.155054
    20  H    0.159995
    21  C   -0.298188
    22  C   -0.301013
    23  C   -0.475770
    24  H    0.149680
    25  H    0.149922
    26  H    0.153093
    27  H    0.152262
    28  H    0.155264
    29  H    0.155238
    30  H    0.160583
    31  C   -0.305037
    32  C   -0.299291
    33  C   -0.485732
    34  H    0.155209
    35  H    0.149939
    36  H    0.151778
    37  H    0.152369
    38  H    0.154803
    39  H    0.166665
    40  H    0.160518
 Sum of Mulliken charges =  -0.00000

 Dipole moment (field-independent basis, Debye):
    X=              0.0142    Y=             -0.0093    Z=             -0.0205  Tot=              0.0267
 Quadrupole moment (field-independent basis, Debye-Ang):
   XX=            -85.8627   YY=            -84.7358   ZZ=            -84.1219
   XY=             -1.3469   XZ=             -0.9938   YZ=              0.1380

 Normal termination of Gaussian 16 at Wed May  5 21:34:48 2021.
