 Gaussian 16, Revision A.03,
 Gaussian 16:  EM64L-G16RevA.03 25-Dec-2016

 -------------
 #p 6-31g* mp2
 -------------

 ------------------------------------------------------
 Input file generated by CHIRIPA (05-May-2021 14:51:13)
 ------------------------------------------------------
 Symbolic Z-matrix:
 Charge =  0 Multiplicity = 1

                         Standard orientation:
 ---------------------------------------------------------------------
 Center     Atomic      Atomic             Coordinates (Angstroms)
 Number     Number       Type             X           Y           Z
 ---------------------------------------------------------------------
      1          6           0       -4.655309   -0.385649    0.298065
      2          6           0       -5.888025   -0.821580   -0.494627
      3          6           0       -6.624352   -1.993725    0.154752
      4          1           0       -3.971388   -1.239458    0.399090
      5          1           0       -4.961834   -0.108524    1.316220
      6          1           0       -5.579462   -1.096481   -1.511403
      7          1           0       -6.569003    0.033418   -0.593942
      8          1           0       -6.960091   -1.727223    1.162153
      9          1           0       -5.964928   -2.863542    0.239478
     10          1           0       -7.502196   -2.289022   -0.428386
     11          6           0       -3.908579    0.785206   -0.338504
     12          6           0       -2.675863    1.221137    0.454188
     13          6           0       -1.939536    2.393282   -0.195191
     14          1           0       -3.602054    0.508081   -1.356659
     15          1           0       -4.592500    1.639016   -0.439529
     16          1           0       -1.994885    0.366139    0.553502
     17          1           0       -2.984426    1.496039    1.470964
     18          1           0       -2.598960    3.263100   -0.279918
     19          1           0       -1.603797    2.126780   -1.202592
     20          1           0       -1.061692    2.688580    0.387947
     21          6           0        4.910986   -0.362263   -0.381447
     22          6           0        6.180133   -0.404861    0.470280
     23          6           0        7.430188   -0.731110   -0.347472
     24          1           0        4.780571   -1.331246   -0.882455
     25          1           0        5.036055    0.386190   -1.176162
     26          1           0        6.052175   -1.152031    1.263993
     27          1           0        6.307438    0.564273    0.969468
     28          1           0        7.585571    0.019106   -1.129543
     29          1           0        7.328858   -1.706949   -0.833344
     30          1           0        8.325805   -0.756450    0.281086
     31          6           0        3.652901   -0.037295    0.421886
     32          6           0        2.383756    0.005304   -0.429840
     33          6           0        1.133701    0.331552    0.387912
     34          1           0        3.527834   -0.785747    1.216601
     35          1           0        3.783316    0.931689    0.922894
     36          1           0        2.256449   -0.963830   -0.929030
     37          1           0        2.511713    0.752473   -1.223553
     38          1           0        1.235030    1.307391    0.873784
     39          1           0        0.978317   -0.418664    1.169981
     40          1           0        0.238082    0.356893   -0.240648
 ---------------------------------------------------------------------

 SCF Done:  E(RHF) =  -470.732275999     A.U. after   11 cycles
 E2 =    -0.1583215585D+01 EUMP2 =    -0.47231549158451D+03

 The electronic state is 1-A.
 Alpha  occ. eigenvalues --  -11.21600 -11.21590 -11.21578 -11.21495 -11.21401
 Alpha  occ. eigenvalues --  -11.21365 -11.21342 -11.21303 -11.21071 -11.21054
 Alpha  occ. eigenvalues --  -11.21017 -11.20978  -1.08434  -1.08381  -1.03573
 Alpha  occ. eigenvalues --   -1.03442  -0.96063  -0.95855  -0.87055  -0.86898
 Alpha  occ. eigenvalues --   -0.79612  -0.79533  -0.78249  -0.78189  -0.65059
 Alpha  occ. eigenvalues --   -0.65043  -0.61024  -0.60926  -0.59495  -0.59116
 Alpha  occ. eigenvalues --   -0.57624  -0.57500  -0.55316  -0.55203  -0.52763
 Alpha  occ. eigenvalues --   -0.52492  -0.52406  -0.52299  -0.49983  -0.49812
 Alpha  occ. eigenvalues --   -0.47944  -0.47818  -0.46661  -0.46541  -0.45785
 Alpha  occ. eigenvalues --   -0.45747  -0.45702  -0.45664  -0.43729  -0.43718
 Alpha virt. eigenvalues --    0.21767   0.23047   0.23583   0.25182   0.26385
 Alpha virt. eigenvalues --    0.26566   0.26890   0.27585   0.27641   0.28887
 Alpha virt. eigenvalues --    0.29544   0.31202   0.31455   0.31921   0.32336

 Mulliken charges:
               1
     1  C   -0.298230
     2  C   -0.299589
     3  C   -0.475676
     4  H    0.149534
     5  H    0.149526
     6  H    0.151794
     7  H    0.151917
     8  H    0.155162
     9  H    0.155090
    10  H    0.160156
    11  C   -0.297772
    12  C   -0.305308
    13  C   -0.477842
    14  H    0.148728
    15  H    0.149516
    16  H    0.157492
    17  H    0.151778
    18  H    0.154936
    19  H    0.153399
    20  H    0.163886
    21  C   -0.298225
    22  C   -0.299603
    23  C   -0.475692
    24  H    0.149551
    25  H    0.149535
    26  H    0.151898
    27  H    0.151942
    28  H    0.155190
    29  H    0.155145
    30  H    0.160248
    31  C   -0.298715
    32  C   -0.299953
    33  C   -0.479804
    34  H    0.149444
    35  H    0.149615
    36  H    0.151431
    37  H    0.151985
    38  H    0.155199
    39  H    0.154217
    40  H    0.168095
 Sum of Mulliken charges =  -0.00000

 Dipole moment (field-independent basis, Debye):
    X=              0.0174    Y=              0.0037    Z=              0.0122  Tot=              0.0216
 Quadrupole moment (field-independent basis, Debye-Ang):
   XX=            -86.0640   YY=            -84.1320   ZZ=            -84.8331
   XY=             -0.4950   XZ=              0.2917   YZ=              0.4025

 Normal termination of Gaussian 16 at Thu May  6 00:47:45 2021.
