 Gaussian 16, Revision A.03,
 Gaussian 16:  EM64L-G16RevA.03 25-Dec-2016

 -------------
 #p 6-31g* mp2
 -------------

 ------------------------------------------------------
 Input file generated by CHIRIPA (05-May-2021 14:55:22)
 ------------------------------------------------------
 Symbolic Z-matrix:
 Charge =  0 Multiplicity = 1

                         Standard orientation:
 ---------------------------------------------------------------------
 Center     Atomic      Atomic             Coordinates (Angstroms)
 Number     Number       Type             X           Y           Z
 ---------------------------------------------------------------------
      1          6           0        4.693330   -0.964567   -1.201442
      2          6           0        4.040111    0.207958   -1.595159
      3          6           0        2.992358    0.728300   -0.829649
      4          6           0        2.622093    0.047349    0.329013
      5          6           0        3.253388   -1.122921    0.747615
      6          6           0        4.298579   -1.625099   -0.033371
      7          1           0        5.506255   -1.361726   -1.802120
      8          1           0        4.344549    0.723049   -2.501825
      9          1           0        2.469431    1.634217   -1.111217
     10          1           0        2.927460   -1.614124    1.656410
     11          1           0        4.804072   -2.535887    0.274829
     12          7           0        1.514240    0.588597    1.147617
     13          8           0        1.206989   -0.030120    2.164191
     14          8           0        0.974133    1.621296    0.757163
     15          6           0       -3.510815   -0.683285   -0.063510
     16          6           0       -4.707599   -1.542917   -0.471830
     17          6           0       -4.534304   -3.014603   -0.095130
     18          1           0       -2.603203   -1.080381   -0.538378
     19          1           0       -3.359328   -0.769655    1.021380
     20          1           0       -4.857635   -1.453860   -1.555423
     21          1           0       -5.612497   -1.143613    0.003914
     22          1           0       -4.407152   -3.122915    0.986859
     23          1           0       -3.648001   -3.434924   -0.581337
     24          1           0       -5.401307   -3.610856   -0.396209
     25          6           0       -3.669168    0.790435   -0.433380
     26          6           0       -2.472384    1.650067   -0.025060
     27          6           0       -2.645679    3.121754   -0.401760
     28          1           0       -3.820655    0.876806   -1.518271
     29          1           0       -4.576780    1.187531    0.041487
     30          1           0       -1.567486    1.250763   -0.500804
     31          1           0       -2.322348    1.561011    1.058532
     32          1           0       -3.531983    3.542075    0.084446
     33          1           0       -2.772832    3.230064   -1.483750
     34          1           0       -1.778677    3.718006   -0.100682
 ---------------------------------------------------------------------

 SCF Done:  E(RHF) =  -669.535873150     A.U. after   15 cycles
 E2 =    -0.2091412805D+01 EUMP2 =    -0.67162728595534D+03

 The electronic state is 1-A.
 Alpha  occ. eigenvalues --  -20.60936 -20.60915 -15.85949 -11.31290 -11.27854
 Alpha  occ. eigenvalues --  -11.27849 -11.27592 -11.26864 -11.26854 -11.20953
 Alpha  occ. eigenvalues --  -11.20550 -11.20520 -11.20335 -11.20082 -11.19837
 Alpha  occ. eigenvalues --   -1.59982  -1.39539  -1.19459  -1.08860  -1.07466
 Alpha  occ. eigenvalues --   -1.04857  -1.02538  -0.95701  -0.95044  -0.86257
 Alpha  occ. eigenvalues --   -0.86075  -0.82535  -0.78627  -0.77589  -0.77199
 Alpha  occ. eigenvalues --   -0.72172  -0.71294  -0.70567  -0.65114  -0.64859
 Alpha  occ. eigenvalues --   -0.64114  -0.62204  -0.59951  -0.58425  -0.56597
 Alpha  occ. eigenvalues --   -0.55359  -0.54370  -0.53188  -0.52948  -0.51743
 Alpha  occ. eigenvalues --   -0.51462  -0.49035  -0.48953  -0.48930  -0.46943
 Alpha  occ. eigenvalues --   -0.45712  -0.45153  -0.44674  -0.44432  -0.42799
 Alpha  occ. eigenvalues --   -0.37437  -0.36459
 Alpha virt. eigenvalues --    0.04923   0.11194   0.16399   0.21316   0.23723
 Alpha virt. eigenvalues --    0.25230   0.27229   0.27556   0.28073   0.28586
 Alpha virt. eigenvalues --    0.28885   0.30865   0.32166   0.32416   0.32758

 Mulliken charges:
               1
     1  C   -0.170668
     2  C   -0.218524
     3  C   -0.171157
     4  C    0.158189
     5  C   -0.170786
     6  C   -0.218550
     7  H    0.225977
     8  H    0.223815
     9  H    0.275671
    10  H    0.275921
    11  H    0.223840
    12  N    0.488609
    13  O   -0.459177
    14  O   -0.458810
    15  C   -0.296803
    16  C   -0.298734
    17  C   -0.474943
    18  H    0.146022
    19  H    0.153661
    20  H    0.149228
    21  H    0.151082
    22  H    0.155916
    23  H    0.152898
    24  H    0.157580
    25  C   -0.299172
    26  C   -0.294676
    27  C   -0.477563
    28  H    0.143600
    29  H    0.146221
    30  H    0.155028
    31  H    0.162144
    32  H    0.150038
    33  H    0.146815
    34  H    0.167308
 Sum of Mulliken charges =  -0.00000

 Dipole moment (field-independent basis, Debye):
    X=              4.2027    Y=             -1.8682    Z=             -2.7253  Tot=              5.3460
 Quadrupole moment (field-independent basis, Debye-Ang):
   XX=            -75.7724   YY=            -93.9343   ZZ=            -94.2960
   XY=             -5.5739   XZ=             -7.0066   YZ=             -3.0574

 Normal termination of Gaussian 16 at Wed May  5 20:38:18 2021.
