 Gaussian 16, Revision A.03,
 Gaussian 16:  EM64L-G16RevA.03 25-Dec-2016

 -------------
 #p 6-31g* mp2
 -------------

 ------------------------------------------------------
 Input file generated by CHIRIPA (05-May-2021 14:55:19)
 ------------------------------------------------------
 Symbolic Z-matrix:
 Charge =  0 Multiplicity = 1

                         Standard orientation:
 ---------------------------------------------------------------------
 Center     Atomic      Atomic             Coordinates (Angstroms)
 Number     Number       Type             X           Y           Z
 ---------------------------------------------------------------------
      1          6           0       -1.508922   -0.916563    2.041238
      2          6           0       -2.666366   -0.183299    2.322603
      3          6           0       -3.471560    0.297896    1.285944
      4          6           0       -3.087740    0.026141   -0.026352
      5          6           0       -1.940472   -0.701464   -0.338852
      6          6           0       -1.150300   -1.172854    0.713749
      7          1           0       -0.889263   -1.286558    2.852732
      8          1           0       -2.947329    0.017257    3.352594
      9          1           0       -4.372842    0.868180    1.475381
     10          1           0       -1.686238   -0.885399   -1.375651
     11          1           0       -0.251961   -1.742042    0.492263
     12          7           0       -3.932210    0.530371   -1.132256
     13          8           0       -3.572245    0.277455   -2.279904
     14          8           0       -4.938082    1.168953   -0.830474
     15          6           0        4.025923   -0.648031   -0.182599
     16          6           0        2.978572   -1.666826   -0.633266
     17          6           0        3.497177   -3.104632   -0.593839
     18          1           0        4.913943   -0.736730   -0.823299
     19          1           0        4.350962   -0.893710    0.837885
     20          1           0        2.654592   -1.418485   -1.652079
     21          1           0        2.092867   -1.575560    0.008461
     22          1           0        3.802616   -3.376278    0.421797
     23          1           0        4.367533   -3.218310   -1.248178
     24          1           0        2.732337   -3.816368   -0.919893
     25          6           0        3.522392    0.793854   -0.216540
     26          6           0        4.569744    1.812648    0.234127
     27          6           0        4.051138    3.250455    0.194700
     28          1           0        3.197353    1.039532   -1.237024
     29          1           0        2.634373    0.882552    0.424160
     30          1           0        5.455448    1.721382   -0.407600
     31          1           0        4.893723    1.564307    1.252940
     32          1           0        3.180782    3.364133    0.849038
     33          1           0        3.745699    3.522100   -0.820936
     34          1           0        4.815978    3.962190    0.520754
 ---------------------------------------------------------------------

 SCF Done:  E(RHF) =  -669.535536668     A.U. after   15 cycles
 E2 =    -0.2091080040D+01 EUMP2 =    -0.67162661670770D+03

 The electronic state is 1-A.
 Alpha  occ. eigenvalues --  -20.60746 -20.60741 -15.85800 -11.31166 -11.27741
 Alpha  occ. eigenvalues --  -11.27728 -11.27487 -11.26757 -11.26721 -11.22495
 Alpha  occ. eigenvalues --  -11.22032 -11.22002 -11.21872 -11.21832 -11.21366
 Alpha  occ. eigenvalues --   -1.59822  -1.39375  -1.19340  -1.09033  -1.08737
 Alpha  occ. eigenvalues --   -1.04743  -1.04121  -0.96538  -0.95571  -0.87555
 Alpha  occ. eigenvalues --   -0.86145  -0.82404  -0.80216  -0.78828  -0.77445
 Alpha  occ. eigenvalues --   -0.72018  -0.71144  -0.70453  -0.65695  -0.64992
 Alpha  occ. eigenvalues --   -0.64745  -0.62128  -0.61489  -0.59927  -0.58154
 Alpha  occ. eigenvalues --   -0.55815  -0.55251  -0.53250  -0.53072  -0.52972
 Alpha  occ. eigenvalues --   -0.52833  -0.50474  -0.48790  -0.48773  -0.48493
 Alpha  occ. eigenvalues --   -0.47246  -0.46359  -0.46270  -0.44780  -0.44364
 Alpha  occ. eigenvalues --   -0.37326  -0.36340
 Alpha virt. eigenvalues --    0.05086   0.11248   0.16543   0.20016   0.22605
 Alpha virt. eigenvalues --    0.23706   0.25303   0.26405   0.27405   0.28308
 Alpha virt. eigenvalues --    0.28593   0.30135   0.31043   0.31390   0.32133

 Mulliken charges:
               1
     1  C   -0.172556
     2  C   -0.218560
     3  C   -0.171013
     4  C    0.158666
     5  C   -0.172330
     6  C   -0.224184
     7  H    0.225310
     8  H    0.223258
     9  H    0.275549
    10  H    0.276031
    11  H    0.232644
    12  N    0.488096
    13  O   -0.460395
    14  O   -0.460570
    15  C   -0.297812
    16  C   -0.305071
    17  C   -0.476140
    18  H    0.153030
    19  H    0.149207
    20  H    0.155462
    21  H    0.143183
    22  H    0.155331
    23  H    0.159923
    24  H    0.159448
    25  C   -0.299182
    26  C   -0.300094
    27  C   -0.476073
    28  H    0.152142
    29  H    0.148283
    30  H    0.153262
    31  H    0.151265
    32  H    0.155217
    33  H    0.157278
    34  H    0.161394
 Sum of Mulliken charges =  -0.00000

 Dipole moment (field-independent basis, Debye):
    X=              3.1287    Y=             -1.7301    Z=              3.8437  Tot=              5.2494
 Quadrupole moment (field-independent basis, Debye-Ang):
   XX=           -111.0066   YY=            -95.7655   ZZ=            -92.1018
   XY=              4.3896   XZ=            -15.1364   YZ=              1.6321

 Normal termination of Gaussian 16 at Thu May  6 09:13:14 2021.
