 Gaussian 16, Revision A.03,
 Gaussian 16:  EM64L-G16RevA.03 25-Dec-2016

 -------------
 #p 6-31g* mp2
 -------------

 ------------------------------------------------------
 Input file generated by CHIRIPA (05-May-2021 14:57:21)
 ------------------------------------------------------
 Symbolic Z-matrix:
 Charge =  0 Multiplicity = 1

                         Standard orientation:
 ---------------------------------------------------------------------
 Center     Atomic      Atomic             Coordinates (Angstroms)
 Number     Number       Type             X           Y           Z
 ---------------------------------------------------------------------
      1          6           0        0.742625   -1.527079   -0.776703
      2          6           0        1.144707   -0.413905   -1.522152
      3          6           0        2.322888    0.267170   -1.201877
      4          6           0        3.078249   -0.194277   -0.124943
      5          6           0        2.704205   -1.300209    0.636828
      6          6           0        1.522283   -1.965905    0.298512
      7          1           0       -0.174067   -2.050181   -1.032507
      8          1           0        0.541197   -0.070866   -2.357702
      9          1           0        2.657602    1.131733   -1.762158
     10          1           0        3.326699   -1.618549    1.464220
     11          1           0        1.212477   -2.830119    0.879200
     12          7           0        4.327516    0.518606    0.223667
     13          8           0        4.975357    0.092131    1.177112
     14          8           0        4.635196    1.490341   -0.463139
     15          6           0       -2.404862    2.787759    0.312195
     16          6           0       -2.787038    2.210315   -0.903132
     17          6           0       -3.048571    0.839490   -0.986737
     18          6           0       -2.917550    0.072399    0.169850
     19          6           0       -2.538615    0.618337    1.395269
     20          6           0       -2.282086    1.991330    1.455502
     21          1           0       -2.203640    3.853490    0.368063
     22          1           0       -2.883191    2.826390   -1.792656
     23          1           0       -3.346060    0.366526   -1.914757
     24          1           0       -2.451241   -0.021535    2.264952
     25          1           0       -1.985452    2.437063    2.400687
     26          7           0       -3.191774   -1.379980    0.093713
     27          8           0       -3.069189   -2.034059    1.127052
     28          8           0       -3.524104   -1.836774   -0.997860
 ---------------------------------------------------------------------

 SCF Done:  E(RHF) =  -868.339316505     A.U. after   16 cycles
 E2 =    -0.2600056041D+01 EUMP2 =    -0.87093937254620D+03

 The electronic state is 1-A.
 Alpha  occ. eigenvalues --  -20.61776 -20.61767 -20.60770 -20.60760 -15.86801
 Alpha  occ. eigenvalues --  -15.85817 -11.31935 -11.31090 -11.28505 -11.28439
 Alpha  occ. eigenvalues --  -11.28128 -11.27665 -11.27611 -11.27443 -11.27373
 Alpha  occ. eigenvalues --  -11.27258 -11.26643 -11.26542  -1.60862  -1.59846
 Alpha  occ. eigenvalues --   -1.40414  -1.39402  -1.20077  -1.19237  -1.09512
 Alpha  occ. eigenvalues --   -1.08630  -1.05442  -1.04625  -0.96385  -0.95487
 Alpha  occ. eigenvalues --   -0.86849  -0.86012  -0.83221  -0.82326  -0.78308
 Alpha  occ. eigenvalues --   -0.77404  -0.73012  -0.72239  -0.72034  -0.71171
 Alpha  occ. eigenvalues --   -0.71165  -0.70257  -0.65726  -0.65430  -0.64876
 Alpha  occ. eigenvalues --   -0.64604  -0.62793  -0.61976  -0.55923  -0.55050
 Alpha  occ. eigenvalues --   -0.53817  -0.53523  -0.52928  -0.52699  -0.49792
 Alpha  occ. eigenvalues --   -0.49755  -0.48798  -0.48783  -0.45863  -0.44829
 Alpha  occ. eigenvalues --   -0.38085  -0.37125  -0.37043  -0.36228
 Alpha virt. eigenvalues --    0.04163   0.05131   0.10572   0.11450   0.15736
 Alpha virt. eigenvalues --    0.16641   0.20769   0.21636   0.26671   0.27440
 Alpha virt. eigenvalues --    0.27706   0.28379   0.30486   0.31162   0.31835

 Mulliken charges:
               1
     1  C   -0.178727
     2  C   -0.216889
     3  C   -0.172547
     4  C    0.157782
     5  C   -0.172520
     6  C   -0.219281
     7  H    0.237088
     8  H    0.220714
     9  H    0.272761
    10  H    0.275039
    11  H    0.229681
    12  N    0.487991
    13  O   -0.460643
    14  O   -0.462406
    15  C   -0.169142
    16  C   -0.219219
    17  C   -0.176036
    18  C    0.157353
    19  C   -0.168794
    20  C   -0.217179
    21  H    0.229543
    22  H    0.224903
    23  H    0.273949
    24  H    0.276393
    25  H    0.227500
    26  N    0.484991
    27  O   -0.459121
    28  O   -0.463184
 Sum of Mulliken charges =  -0.00000

 Dipole moment (field-independent basis, Debye):
    X=             -3.5882    Y=              2.6716    Z=             -0.8078  Tot=              4.5459
 Quadrupole moment (field-independent basis, Debye-Ang):
   XX=           -139.2847   YY=           -101.4200   ZZ=            -97.1454
   XY=            -23.0547   XZ=             -2.1937   YZ=             -1.7462

 Normal termination of Gaussian 16 at Thu May  6 16:11:01 2021.
