 Gaussian 16, Revision A.03,
 Gaussian 16:  EM64L-G16RevA.03 25-Dec-2016

 -------------
 #p 6-31g* mp2
 -------------

 ------------------------------------------------------
 Input file generated by CHIRIPA (05-May-2021 14:53:14)
 ------------------------------------------------------
 Symbolic Z-matrix:
 Charge =  0 Multiplicity = 1

                         Standard orientation:
 ---------------------------------------------------------------------
 Center     Atomic      Atomic             Coordinates (Angstroms)
 Number     Number       Type             X           Y           Z
 ---------------------------------------------------------------------
      1          6           0       -3.924907    0.227740   -0.457614
      2          6           0       -4.215296   -1.267737   -0.326440
      3          6           0       -5.361363   -1.728652   -1.227485
      4          1           0       -4.834497    0.794062   -0.214983
      5          1           0       -3.684071    0.456908   -1.504932
      6          1           0       -4.454160   -1.494256    0.720579
      7          1           0       -3.304855   -1.830559   -0.569226
      8          1           0       -5.128166   -1.531229   -2.278791
      9          1           0       -6.284001   -1.193014   -0.981658
     10          1           0       -5.552006   -2.800793   -1.117811
     11          6           0       -2.781690    0.703632    0.436986
     12          6           0       -2.491301    2.199110    0.305812
     13          6           0       -1.345234    2.660024    1.206858
     14          1           0       -3.022526    0.474464    1.484304
     15          1           0       -1.872100    0.137310    0.194355
     16          1           0       -3.401741    2.761932    0.548598
     17          1           0       -2.252437    2.425628   -0.741207
     18          1           0       -0.422595    2.124386    0.961030
     19          1           0       -1.578430    2.462601    2.258164
     20          1           0       -1.154591    3.732165    1.097184
     21          6           0        1.803423   -2.322265    1.373338
     22          6           0        1.495928   -1.016380    1.769106
     23          6           0        1.942960    0.076324    1.020299
     24          6           0        2.698685   -0.174481   -0.123933
     25          6           0        3.021500   -1.463861   -0.544150
     26          6           0        2.563886   -2.541452    0.220007
     27          1           0        1.452047   -3.165234    1.960992
     28          1           0        0.905522   -0.843159    2.664348
     29          1           0        1.719425    1.097625    1.303832
     30          1           0        3.611942   -1.604936   -1.441308
     31          1           0        2.804212   -3.554536   -0.089747
     32          7           0        3.177540    0.974314   -0.924785
     33          8           0        3.841735    0.726677   -1.928856
     34          8           0        2.879602    2.100626   -0.533260
 ---------------------------------------------------------------------

 SCF Done:  E(RHF) =  -669.535642055     A.U. after   15 cycles
 E2 =    -0.2091666816D+01 EUMP2 =    -0.67162730887085D+03

 The electronic state is 1-A.
 Alpha  occ. eigenvalues --  -20.60800 -20.60795 -15.85851 -11.31226 -11.27795
 Alpha  occ. eigenvalues --  -11.27776 -11.27532 -11.26816 -11.26805 -11.21834
 Alpha  occ. eigenvalues --  -11.21707 -11.21595 -11.21528 -11.21261 -11.21248
 Alpha  occ. eigenvalues --   -1.59874  -1.39427  -1.19401  -1.08791  -1.08611
 Alpha  occ. eigenvalues --   -1.04804  -1.03705  -0.96164  -0.95624  -0.87185
 Alpha  occ. eigenvalues --   -0.86197  -0.82454  -0.79778  -0.78437  -0.77499
 Alpha  occ. eigenvalues --   -0.72068  -0.71198  -0.70511  -0.65244  -0.65049
 Alpha  occ. eigenvalues --   -0.64802  -0.62188  -0.61078  -0.59517  -0.57773
 Alpha  occ. eigenvalues --   -0.55502  -0.55259  -0.53137  -0.52953  -0.52830
 Alpha  occ. eigenvalues --   -0.52536  -0.50096  -0.48829  -0.48824  -0.48093
 Alpha  occ. eigenvalues --   -0.46798  -0.45977  -0.45891  -0.44825  -0.43954
 Alpha  occ. eigenvalues --   -0.37378  -0.36387
 Alpha virt. eigenvalues --    0.04984   0.11179   0.16488   0.20936   0.22766
 Alpha virt. eigenvalues --    0.24095   0.25845   0.26620   0.27389   0.27866
 Alpha virt. eigenvalues --    0.29074   0.30287   0.31418   0.31642   0.31855

 Mulliken charges:
               1
     1  C   -0.298374
     2  C   -0.299578
     3  C   -0.475754
     4  H    0.150328
     5  H    0.151928
     6  H    0.150000
     7  H    0.150823
     8  H    0.156509
     9  H    0.155872
    10  H    0.159446
    11  C   -0.300087
    12  C   -0.299550
    13  C   -0.479963
    14  H    0.145539
    15  H    0.149850
    16  H    0.152523
    17  H    0.157120
    18  H    0.154082
    19  H    0.149903
    20  H    0.167220
    21  C   -0.171034
    22  C   -0.219000
    23  C   -0.174726
    24  C    0.158163
    25  C   -0.171083
    26  C   -0.218357
    27  H    0.225974
    28  H    0.224994
    29  H    0.280783
    30  H    0.275690
    31  H    0.223638
    32  N    0.487949
    33  O   -0.460263
    34  O   -0.460568
 Sum of Mulliken charges =  -0.00000

 Dipole moment (field-independent basis, Debye):
    X=             -1.6896    Y=             -4.0086    Z=              2.7588  Tot=              5.1511
 Quadrupole moment (field-independent basis, Debye-Ang):
   XX=           -103.7787   YY=            -91.6333   ZZ=            -93.7068
   XY=            -13.0357   XZ=              5.4728   YZ=              2.0210

 Normal termination of Gaussian 16 at Wed May  5 20:14:57 2021.
