 Gaussian 16, Revision A.03,
 Gaussian 16:  EM64L-G16RevA.03 25-Dec-2016

 -------------
 #p 6-31g* mp2
 -------------

 ------------------------------------------------------
 Input file generated by CHIRIPA (05-May-2021 14:57:24)
 ------------------------------------------------------
 Symbolic Z-matrix:
 Charge =  0 Multiplicity = 1

                         Standard orientation:
 ---------------------------------------------------------------------
 Center     Atomic      Atomic             Coordinates (Angstroms)
 Number     Number       Type             X           Y           Z
 ---------------------------------------------------------------------
      1          6           0        1.370625    2.591504    0.122751
      2          6           0        0.742906    1.432041   -0.344300
      3          6           0        1.459205    0.237923   -0.468980
      4          6           0        2.807807    0.239107   -0.116047
      5          6           0        3.461451    1.377806    0.352357
      6          6           0        2.725506    2.560740    0.468978
      7          1           0        0.806556    3.514779    0.216475
      8          1           0       -0.309192    1.452989   -0.613923
      9          1           0        0.998156   -0.674254   -0.827845
     10          1           0        4.511500    1.325900    0.613356
     11          1           0        3.215612    3.459668    0.831980
     12          7           0        3.576520   -1.019133   -0.243775
     13          8           0        4.763571   -0.991897    0.073723
     14          8           0        2.977431   -2.008751   -0.658966
     15          6           0       -1.408985   -2.552686    0.653123
     16          6           0       -1.736915   -2.264338   -0.675725
     17          6           0       -2.441534   -1.100253   -0.996608
     18          6           0       -2.804098   -0.242859    0.041039
     19          6           0       -2.492048   -0.502396    1.374664
     20          6           0       -1.786932   -1.672347    1.672279
     21          1           0       -0.861427   -3.459254    0.893356
     22          1           0       -1.444690   -2.946198   -1.469272
     23          1           0       -2.708352   -0.852537   -2.016835
     24          1           0       -2.796990    0.196524    2.144040
     25          1           0       -1.533616   -1.893715    2.705175
     26          7           0       -3.550310    0.992610   -0.286351
     27          8           0       -3.858216    1.731758    0.646114
     28          8           0       -3.813155    1.198429   -1.469223
 ---------------------------------------------------------------------

 SCF Done:  E(RHF) =  -868.339258045     A.U. after   16 cycles
 E2 =    -0.2601781821D+01 EUMP2 =    -0.87094103986604D+03

 The electronic state is 1-A.
 Alpha  occ. eigenvalues --  -20.61603 -20.61594 -20.61031 -20.60997 -15.86648
 Alpha  occ. eigenvalues --  -15.86063 -11.31914 -11.31213 -11.28484 -11.28441
 Alpha  occ. eigenvalues --  -11.28054 -11.27777 -11.27712 -11.27418 -11.27374
 Alpha  occ. eigenvalues --  -11.27344 -11.26731 -11.26661  -1.60697  -1.60094
 Alpha  occ. eigenvalues --   -1.40242  -1.39655  -1.20087  -1.19366  -1.09460
 Alpha  occ. eigenvalues --   -1.08792  -1.05436  -1.04734  -0.96303  -0.95662
 Alpha  occ. eigenvalues --   -0.86810  -0.86141  -0.83118  -0.82506  -0.78210
 Alpha  occ. eigenvalues --   -0.77596  -0.72842  -0.72290  -0.72065  -0.71415
 Alpha  occ. eigenvalues --   -0.71064  -0.70449  -0.65682  -0.65361  -0.65012
 Alpha  occ. eigenvalues --   -0.64734  -0.62752  -0.62124  -0.55821  -0.55246
 Alpha  occ. eigenvalues --   -0.53773  -0.53464  -0.53030  -0.52835  -0.49616
 Alpha  occ. eigenvalues --   -0.49601  -0.49053  -0.49018  -0.45653  -0.45109
 Alpha  occ. eigenvalues --   -0.38012  -0.37323  -0.37085  -0.36291
 Alpha virt. eigenvalues --    0.04263   0.04930   0.10488   0.11361   0.15813
 Alpha virt. eigenvalues --    0.16473   0.20958   0.21428   0.26659   0.27034
 Alpha virt. eigenvalues --    0.27915   0.28459   0.30254   0.31180   0.31953

 Mulliken charges:
               1
     1  C   -0.171544
     2  C   -0.220644
     3  C   -0.174243
     4  C    0.156811
     5  C   -0.171339
     6  C   -0.219329
     7  H    0.230894
     8  H    0.226298
     9  H    0.273984
    10  H    0.274666
    11  H    0.223845
    12  N    0.488268
    13  O   -0.459663
    14  O   -0.466543
    15  C   -0.168311
    16  C   -0.225109
    17  C   -0.179271
    18  C    0.149828
    19  C   -0.170758
    20  C   -0.217365
    21  H    0.236508
    22  H    0.232043
    23  H    0.277814
    24  H    0.276797
    25  H    0.228124
    26  N    0.487295
    27  O   -0.459538
    28  O   -0.459519
 Sum of Mulliken charges =  -0.00000

 Dipole moment (field-independent basis, Debye):
    X=             -0.2446    Y=             -0.0732    Z=              1.7450  Tot=              1.7636
 Quadrupole moment (field-independent basis, Debye-Ang):
   XX=           -132.7641   YY=            -99.3172   ZZ=           -100.1353
   XY=             26.1829   XZ=             -0.1724   YZ=              1.2308

 Normal termination of Gaussian 16 at Wed May  5 22:45:13 2021.
