 Gaussian 16, Revision A.03,
 Gaussian 16:  EM64L-G16RevA.03 25-Dec-2016

 -------------
 #p 6-31g* mp2
 -------------

 ------------------------------------------------------
 Input file generated by CHIRIPA (05-May-2021 14:55:25)
 ------------------------------------------------------
 Symbolic Z-matrix:
 Charge =  0 Multiplicity = 1

                         Standard orientation:
 ---------------------------------------------------------------------
 Center     Atomic      Atomic             Coordinates (Angstroms)
 Number     Number       Type             X           Y           Z
 ---------------------------------------------------------------------
      1          6           0        1.180220   -0.786360    2.514863
      2          6           0        1.273796    0.549232    2.109944
      3          6           0        1.749300    0.873213    0.835786
      4          6           0        2.124214   -0.168247   -0.011617
      5          6           0        2.042654   -1.508599    0.362675
      6          6           0        1.564271   -1.809209    1.641476
      7          1           0        0.809719   -1.028958    3.506463
      8          1           0        0.976251    1.345660    2.786122
      9          1           0        1.832042    1.898652    0.496601
     10          1           0        2.346790   -2.280716   -0.333567
     11          1           0        1.492679   -2.847341    1.953246
     12          7           0        2.629133    0.162367   -1.362969
     13          8           0        2.953077   -0.773566   -2.090793
     14          8           0        2.691385    1.351174   -1.668746
     15          6           0       -2.725489    0.956283    0.076454
     16          6           0       -1.742955    2.040756   -0.366861
     17          6           0       -1.981771    3.377722    0.335482
     18          1           0       -3.751208    1.297228   -0.120014
     19          1           0       -2.644275    0.819986    1.163755
     20          1           0       -1.825012    2.173993   -1.453199
     21          1           0       -0.719447    1.697110   -0.169492
     22          1           0       -1.879862    3.266827    1.419880
     23          1           0       -2.991709    3.746420    0.128877
     24          1           0       -1.268376    4.138555    0.003728
     25          6           0       -2.499465   -0.386079   -0.616876
     26          6           0       -3.481999   -1.470553   -0.173560
     27          6           0       -3.243183   -2.807518   -0.875903
     28          1           0       -2.580678   -0.249783   -1.704176
     29          1           0       -1.473745   -0.727025   -0.420408
     30          1           0       -4.505506   -1.126906   -0.370930
     31          1           0       -3.399941   -1.603789    0.912778
     32          1           0       -2.233244   -3.176216   -0.669299
     33          1           0       -3.345092   -2.696624   -1.960300
     34          1           0       -3.956577   -3.568352   -0.544150
 ---------------------------------------------------------------------

 SCF Done:  E(RHF) =  -669.535184998     A.U. after   15 cycles
 E2 =    -0.2093821445D+01 EUMP2 =    -0.67162900644332D+03

 The electronic state is 1-A.
 Alpha  occ. eigenvalues --  -20.60840 -20.60833 -15.85896 -11.31315 -11.27900
 Alpha  occ. eigenvalues --  -11.27878 -11.27638 -11.26915 -11.26902 -11.21750
 Alpha  occ. eigenvalues --  -11.21598 -11.21498 -11.21405 -11.21295 -11.21221
 Alpha  occ. eigenvalues --   -1.59913  -1.39465  -1.19506  -1.08877  -1.08528
 Alpha  occ. eigenvalues --   -1.04919  -1.03659  -0.96122  -0.95706  -0.87138
 Alpha  occ. eigenvalues --   -0.86301  -0.82534  -0.79718  -0.78339  -0.77571
 Alpha  occ. eigenvalues --   -0.72112  -0.71238  -0.70601  -0.65202  -0.65133
 Alpha  occ. eigenvalues --   -0.64896  -0.62270  -0.61067  -0.59483  -0.57723
 Alpha  occ. eigenvalues --   -0.55443  -0.55376  -0.53288  -0.52991  -0.52804
 Alpha  occ. eigenvalues --   -0.52544  -0.50074  -0.48876  -0.48864  -0.48041
 Alpha  occ. eigenvalues --   -0.46769  -0.45865  -0.45778  -0.44848  -0.43899
 Alpha  occ. eigenvalues --   -0.37464  -0.36436
 Alpha virt. eigenvalues --    0.04941   0.11062   0.16397   0.20854   0.22815
 Alpha virt. eigenvalues --    0.23946   0.26343   0.27016   0.27094   0.27945
 Alpha virt. eigenvalues --    0.28748   0.30097   0.31398   0.31683   0.31881

 Mulliken charges:
               1
     1  C   -0.171013
     2  C   -0.217003
     3  C   -0.174762
     4  C    0.161488
     5  C   -0.171869
     6  C   -0.218530
     7  H    0.226350
     8  H    0.224866
     9  H    0.277537
    10  H    0.276463
    11  H    0.224280
    12  N    0.488509
    13  O   -0.459987
    14  O   -0.460166
    15  C   -0.296138
    16  C   -0.306188
    17  C   -0.476672
    18  H    0.149779
    19  H    0.144060
    20  H    0.157153
    21  H    0.155275
    22  H    0.147638
    23  H    0.157458
    24  H    0.161742
    25  C   -0.300873
    26  C   -0.299029
    27  C   -0.475221
    28  H    0.152646
    29  H    0.151618
    30  H    0.152500
    31  H    0.148042
    32  H    0.152641
    33  H    0.158045
    34  H    0.159360
 Sum of Mulliken charges =  -0.00000

 Dipole moment (field-independent basis, Debye):
    X=             -1.6862    Y=             -1.1865    Z=              4.6889  Tot=              5.1222
 Quadrupole moment (field-independent basis, Debye-Ang):
   XX=           -102.7289   YY=            -90.7395   ZZ=            -94.8261
   XY=             -3.0214   XZ=             10.8553   YZ=             -0.5371

 Normal termination of Gaussian 16 at Thu May  6 17:45:23 2021.
