 Gaussian 16, Revision A.03,
 Gaussian 16:  EM64L-G16RevA.03 25-Dec-2016

 -------------
 #p 6-31g* mp2
 -------------

 ------------------------------------------------------
 Input file generated by CHIRIPA (05-May-2021 14:51:12)
 ------------------------------------------------------
 Symbolic Z-matrix:
 Charge =  0 Multiplicity = 1

                         Standard orientation:
 ---------------------------------------------------------------------
 Center     Atomic      Atomic             Coordinates (Angstroms)
 Number     Number       Type             X           Y           Z
 ---------------------------------------------------------------------
      1          6           0        4.194071   -0.018910   -0.305352
      2          6           0        5.448501   -0.819355    0.046330
      3          6           0        6.552227   -0.679698   -1.002517
      4          1           0        3.817269   -0.350470   -1.282610
      5          1           0        4.463007    1.040605   -0.417131
      6          1           0        5.177028   -1.876840    0.158772
      7          1           0        5.822251   -0.485984    1.022952
      8          1           0        6.851491    0.367946   -1.109685
      9          1           0        6.202602   -1.030813   -1.978776
     10          1           0        7.439649   -1.259970   -0.731173
     11          6           0        3.081690   -0.148445    0.733665
     12          6           0        1.827260    0.651999    0.381984
     13          6           0        0.723534    0.512342    1.430830
     14          1           0        2.812754   -1.207961    0.845444
     15          1           0        3.458492    0.183114    1.710923
     16          1           0        1.453511    0.318629   -0.594639
     17          1           0        2.098733    1.709485    0.269542
     18          1           0        1.073159    0.863457    2.407089
     19          1           0        0.424270   -0.535301    1.537999
     20          1           0       -0.163888    1.092614    1.159487
     21          6           0       -3.348559    0.705670    0.121777
     22          6           0       -3.058561    1.844041   -0.856995
     23          6           0       -2.480158    3.081455   -0.169936
     24          1           0       -4.048513    1.060883    0.890434
     25          1           0       -2.420635    0.435760    0.644751
     26          1           0       -3.986466    2.110789   -1.378966
     27          1           0       -2.359365    1.486020   -1.623521
     28          1           0       -1.540568    2.837263    0.336169
     29          1           0       -3.176913    3.465582    0.582113
     30          1           0       -2.280371    3.882858   -0.888057
     31          6           0       -3.927201   -0.538314   -0.550090
     32          6           0       -4.217200   -1.676686    0.428682
     33          6           0       -4.795604   -2.914100   -0.258377
     34          1           0       -4.855125   -0.268405   -1.073065
     35          1           0       -3.227249   -0.893528   -1.318747
     36          1           0       -4.916395   -1.318664    1.195207
     37          1           0       -3.289295   -1.943433    0.950653
     38          1           0       -4.098848   -3.298227   -1.010427
     39          1           0       -5.735194   -2.669908   -0.764482
     40          1           0       -4.995390   -3.715504    0.459743
 ---------------------------------------------------------------------

 SCF Done:  E(RHF) =  -470.732735236     A.U. after   11 cycles
 E2 =    -0.1583263888D+01 EUMP2 =    -0.47231599912395D+03

 The electronic state is 1-A.
 Alpha  occ. eigenvalues --  -11.21667 -11.21627 -11.21587 -11.21578 -11.21445
 Alpha  occ. eigenvalues --  -11.21385 -11.21362 -11.21289 -11.21130 -11.21091
 Alpha  occ. eigenvalues --  -11.21071 -11.21058  -1.08476  -1.08403  -1.03591
 Alpha  occ. eigenvalues --   -1.03507  -0.96035  -0.95963  -0.87054  -0.86983
 Alpha  occ. eigenvalues --   -0.79669  -0.79555  -0.78288  -0.78212  -0.65122
 Alpha  occ. eigenvalues --   -0.65049  -0.61003  -0.60965  -0.59488  -0.59225
 Alpha  occ. eigenvalues --   -0.57672  -0.57537  -0.55361  -0.55213  -0.52779
 Alpha  occ. eigenvalues --   -0.52649  -0.52482  -0.52369  -0.50005  -0.49878
 Alpha  occ. eigenvalues --   -0.48040  -0.47826  -0.46683  -0.46585  -0.45826
 Alpha  occ. eigenvalues --   -0.45768  -0.45746  -0.45655  -0.43775  -0.43724
 Alpha virt. eigenvalues --    0.20927   0.23127   0.23567   0.25013   0.26270
 Alpha virt. eigenvalues --    0.26602   0.27050   0.27344   0.27879   0.29364
 Alpha virt. eigenvalues --    0.30309   0.31372   0.31689   0.31811   0.32009

 Mulliken charges:
               1
     1  C   -0.298291
     2  C   -0.299690
     3  C   -0.475731
     4  H    0.149632
     5  H    0.149697
     6  H    0.151946
     7  H    0.152032
     8  H    0.155258
     9  H    0.155196
    10  H    0.160349
    11  C   -0.298570
    12  C   -0.299051
    13  C   -0.487316
    14  H    0.149566
    15  H    0.149919
    16  H    0.151692
    17  H    0.152356
    18  H    0.156089
    19  H    0.154960
    20  H    0.170779
    21  C   -0.305622
    22  C   -0.299424
    23  C   -0.481285
    24  H    0.149364
    25  H    0.157055
    26  H    0.152060
    27  H    0.151704
    28  H    0.159370
    29  H    0.155518
    30  H    0.160586
    31  C   -0.297655
    32  C   -0.299690
    33  C   -0.475682
    34  H    0.149321
    35  H    0.149236
    36  H    0.151997
    37  H    0.152026
    38  H    0.154962
    39  H    0.155167
    40  H    0.160172
 Sum of Mulliken charges =  -0.00000

 Dipole moment (field-independent basis, Debye):
    X=              0.0276    Y=              0.0068    Z=              0.0150  Tot=              0.0322
 Quadrupole moment (field-independent basis, Debye-Ang):
   XX=            -84.7541   YY=            -84.9557   ZZ=            -85.0846
   XY=             -0.4434   XZ=              0.4735   YZ=              0.1498

 Normal termination of Gaussian 16 at Thu May  6 07:04:19 2021.
