 Gaussian 16, Revision A.03,
 Gaussian 16:  EM64L-G16RevA.03 25-Dec-2016

 -------------
 #p 6-31g* mp2
 -------------

 ------------------------------------------------------
 Input file generated by CHIRIPA (05-May-2021 14:53:13)
 ------------------------------------------------------
 Symbolic Z-matrix:
 Charge =  0 Multiplicity = 1

                         Standard orientation:
 ---------------------------------------------------------------------
 Center     Atomic      Atomic             Coordinates (Angstroms)
 Number     Number       Type             X           Y           Z
 ---------------------------------------------------------------------
      1          6           0       -3.221908   -0.585504   -0.223557
      2          6           0       -3.111170   -1.654039    0.864540
      3          6           0       -2.953207   -3.063995    0.294571
      4          1           0       -4.077816   -0.818561   -0.871669
      5          1           0       -2.327359   -0.626488   -0.860345
      6          1           0       -4.005025   -1.610131    1.499923
      7          1           0       -2.255540   -1.418305    1.510251
      8          1           0       -2.051892   -3.131011   -0.323281
      9          1           0       -3.811317   -3.323927   -0.333668
     10          1           0       -2.875873   -3.812109    1.089684
     11          6           0       -3.380304    0.829265    0.330580
     12          6           0       -3.491042    1.897800   -0.757517
     13          6           0       -3.649004    3.307757   -0.187549
     14          1           0       -4.274853    0.870249    0.967367
     15          1           0       -2.524395    1.062323    0.978691
     16          1           0       -4.346672    1.662067   -1.403229
     17          1           0       -2.597187    1.853892   -1.392901
     18          1           0       -2.790895    3.567688    0.440690
     19          1           0       -4.550319    3.374773    0.430303
     20          1           0       -3.726338    4.055871   -0.982662
     21          6           0        4.009837    1.940628    0.375238
     22          6           0        2.615489    2.045853    0.410532
     23          6           0        1.812796    0.924461    0.180952
     24          6           0        2.440660   -0.292038   -0.082123
     25          6           0        3.827309   -0.428916   -0.124039
     26          6           0        4.610237    0.705756    0.108535
     27          1           0        4.625712    2.816911    0.554745
     28          1           0        2.146466    3.003592    0.617413
     29          1           0        0.731069    0.977651    0.202320
     30          1           0        4.265940   -1.397121   -0.332848
     31          1           0        5.692868    0.621073    0.080500
     32          7           0        1.601346   -1.486236   -0.326756
     33          8           0        2.178908   -2.546588   -0.556347
     34          8           0        0.381823   -1.339282   -0.284274
 ---------------------------------------------------------------------

 SCF Done:  E(RHF) =  -669.536439530     A.U. after   15 cycles
 E2 =    -0.2092252203D+01 EUMP2 =    -0.67162869173239D+03

 The electronic state is 1-A.
 Alpha  occ. eigenvalues --  -20.61090 -20.61084 -15.86111 -11.31376 -11.27934
 Alpha  occ. eigenvalues --  -11.27927 -11.27656 -11.26925 -11.26915 -11.21300
 Alpha  occ. eigenvalues --  -11.20995 -11.20832 -11.20336 -11.20229 -11.19511
 Alpha  occ. eigenvalues --   -1.60141  -1.39701  -1.19538  -1.08953  -1.07645
 Alpha  occ. eigenvalues --   -1.04925  -1.02696  -0.95804  -0.95163  -0.86329
 Alpha  occ. eigenvalues --   -0.86182  -0.82644  -0.78871  -0.77711  -0.77334
 Alpha  occ. eigenvalues --   -0.72358  -0.71446  -0.70647  -0.65210  -0.64928
 Alpha  occ. eigenvalues --   -0.64246  -0.62272  -0.60051  -0.58639  -0.56752
 Alpha  occ. eigenvalues --   -0.55431  -0.54451  -0.53259  -0.53014  -0.51901
 Alpha  occ. eigenvalues --   -0.51580  -0.49300  -0.49083  -0.48877  -0.47151
 Alpha  occ. eigenvalues --   -0.45924  -0.45208  -0.44908  -0.44593  -0.42955
 Alpha  occ. eigenvalues --   -0.37512  -0.36523
 Alpha virt. eigenvalues --    0.04807   0.11131   0.16305   0.20085   0.22769
 Alpha virt. eigenvalues --    0.25194   0.26212   0.27496   0.28262   0.28597
 Alpha virt. eigenvalues --    0.29234   0.31252   0.32122   0.32281   0.33002

 Mulliken charges:
               1
     1  C   -0.304139
     2  C   -0.294128
     3  C   -0.482232
     4  H    0.144413
     5  H    0.168329
     6  H    0.142906
     7  H    0.154922
     8  H    0.178892
     9  H    0.146530
    10  H    0.154367
    11  C   -0.297188
    12  C   -0.299466
    13  C   -0.474020
    14  H    0.147702
    15  H    0.142390
    16  H    0.153311
    17  H    0.149099
    18  H    0.148151
    19  H    0.156214
    20  H    0.158573
    21  C   -0.170327
    22  C   -0.218792
    23  C   -0.171837
    24  C    0.157253
    25  C   -0.170353
    26  C   -0.218633
    27  H    0.226408
    28  H    0.224494
    29  H    0.276819
    30  H    0.276027
    31  H    0.224135
    32  N    0.495358
    33  O   -0.457697
    34  O   -0.467484
 Sum of Mulliken charges =  -0.00000

 Dipole moment (field-independent basis, Debye):
    X=              3.3147    Y=              4.0717    Z=              0.7583  Tot=              5.3048
 Quadrupole moment (field-independent basis, Debye-Ang):
   XX=            -76.8992   YY=            -97.6025   ZZ=            -95.9348
   XY=              7.1639   XZ=              1.6655   YZ=             -0.2413

 Normal termination of Gaussian 16 at Thu May  6 12:05:28 2021.
