 Gaussian 16, Revision A.03,
 Gaussian 16:  EM64L-G16RevA.03 25-Dec-2016

 -------------
 #p 6-31g* mp2
 -------------

 ------------------------------------------------------
 Input file generated by CHIRIPA (05-May-2021 14:57:26)
 ------------------------------------------------------
 Symbolic Z-matrix:
 Charge =  0 Multiplicity = 1

                         Standard orientation:
 ---------------------------------------------------------------------
 Center     Atomic      Atomic             Coordinates (Angstroms)
 Number     Number       Type             X           Y           Z
 ---------------------------------------------------------------------
      1          6           0        5.863677    1.011154   -0.284474
      2          6           0        4.774288    1.331127   -1.101401
      3          6           0        3.519697    0.760230   -0.867680
      4          6           0        3.389611   -0.130740    0.196529
      5          6           0        4.455874   -0.469539    1.028146
      6          6           0        5.701279    0.113425    0.775823
      7          1           0        6.834705    1.459328   -0.473259
      8          1           0        4.897475    2.027996   -1.925564
      9          1           0        2.659457    0.990293   -1.484507
     10          1           0        4.302168   -1.167585    1.842102
     11          1           0        6.545545   -0.136920    1.411896
     12          7           0        2.066294   -0.741511    0.453806
     13          8           0        1.977782   -1.523609    1.397800
     14          8           0        1.142648   -0.426570   -0.293407
     15          6           0       -4.795919    2.025573    0.831814
     16          6           0       -3.688499    2.211934   -0.002099
     17          6           0       -3.022422    1.113592   -0.553947
     18          6           0       -3.492837   -0.162840   -0.249444
     19          6           0       -4.593366   -0.381050    0.577908
     20          6           0       -5.244028    0.731956    1.118651
     21          1           0       -5.307355    2.884487    1.256191
     22          1           0       -3.338276    3.215424   -0.226591
     23          1           0       -2.162605    1.229158   -1.202619
     24          1           0       -4.919141   -1.393494    0.783448
     25          1           0       -6.103804    0.584217    1.765956
     26          7           0       -2.795852   -1.333368   -0.827783
     27          8           0       -3.229997   -2.447677   -0.544112
     28          8           0       -1.828607   -1.114353   -1.553805
 ---------------------------------------------------------------------

 SCF Done:  E(RHF) =  -868.336066300     A.U. after   16 cycles
 E2 =    -0.2600255947D+01 EUMP2 =    -0.87093632224651D+03

 The electronic state is 1-A.
 Alpha  occ. eigenvalues --  -20.60219 -20.60171 -20.59541 -20.59412 -15.85251
 Alpha  occ. eigenvalues --  -15.84529 -11.30842 -11.30205 -11.27441 -11.27435
 Alpha  occ. eigenvalues --  -11.27227 -11.26842 -11.26803 -11.26674 -11.26510
 Alpha  occ. eigenvalues --  -11.26497 -11.25941 -11.25931  -1.59273  -1.58531
 Alpha  occ. eigenvalues --   -1.38820  -1.38077  -1.19038  -1.18420  -1.08392
 Alpha  occ. eigenvalues --   -1.07765  -1.04475  -1.03881  -0.95187  -0.94546
 Alpha  occ. eigenvalues --   -0.85862  -0.85264  -0.82018  -0.81382  -0.77033
 Alpha  occ. eigenvalues --   -0.76363  -0.71485  -0.70742  -0.70606  -0.70147
 Alpha  occ. eigenvalues --   -0.69824  -0.69549  -0.64684  -0.64481  -0.64077
 Alpha  occ. eigenvalues --   -0.63907  -0.61820  -0.61227  -0.54971  -0.54400
 Alpha  occ. eigenvalues --   -0.52792  -0.52571  -0.52184  -0.51990  -0.48249
 Alpha  occ. eigenvalues --   -0.48215  -0.47549  -0.47489  -0.44177  -0.43372
 Alpha  occ. eigenvalues --   -0.37033  -0.36425  -0.36089  -0.35495
 Alpha virt. eigenvalues --    0.05510   0.06199   0.11562   0.12159   0.16958
 Alpha virt. eigenvalues --    0.17610   0.21659   0.22180   0.27552   0.28033
 Alpha virt. eigenvalues --    0.28550   0.29135   0.31171   0.31687   0.32775

 Mulliken charges:
               1
     1  C   -0.171545
     2  C   -0.218566
     3  C   -0.171353
     4  C    0.158980
     5  C   -0.171245
     6  C   -0.218529
     7  H    0.224186
     8  H    0.221888
     9  H    0.275336
    10  H    0.275536
    11  H    0.222368
    12  N    0.487915
    13  O   -0.461846
    14  O   -0.453278
    15  C   -0.171897
    16  C   -0.219227
    17  C   -0.167356
    18  C    0.161101
    19  C   -0.171006
    20  C   -0.218851
    21  H    0.221608
    22  H    0.218953
    23  H    0.277505
    24  H    0.274421
    25  H    0.220199
    26  N    0.489300
    27  O   -0.465952
    28  O   -0.448645
 Sum of Mulliken charges =  -0.00000

 Dipole moment (field-independent basis, Debye):
    X=              2.3450    Y=              6.1359    Z=              1.0141  Tot=              6.6465
 Quadrupole moment (field-independent basis, Debye-Ang):
   XX=            -56.2426   YY=           -105.0507   ZZ=           -103.1867
   XY=             -6.0080   XZ=             -8.6953   YZ=             -4.7425

 Normal termination of Gaussian 16 at Thu May  6 19:44:50 2021.
