 Gaussian 16, Revision A.03,
 Gaussian 16:  EM64L-G16RevA.03 25-Dec-2016

 -------------
 #p 6-31g* mp2
 -------------

 ------------------------------------------------------
 Input file generated by CHIRIPA (05-May-2021 14:51:08)
 ------------------------------------------------------
 Symbolic Z-matrix:
 Charge =  0 Multiplicity = 1

                         Standard orientation:
 ---------------------------------------------------------------------
 Center     Atomic      Atomic             Coordinates (Angstroms)
 Number     Number       Type             X           Y           Z
 ---------------------------------------------------------------------
      1          6           0        3.682382   -0.720386   -0.233865
      2          6           0        2.587867   -1.675867   -0.710393
      3          6           0        2.989205   -3.145643   -0.582018
      4          1           0        4.597939   -0.903858   -0.812690
      5          1           0        3.924807   -0.945058    0.814060
      6          1           0        2.346604   -1.448550   -1.756689
      7          1           0        1.674753   -1.489969   -0.130497
      8          1           0        3.210390   -3.394915    0.460835
      9          1           0        3.886059   -3.353261   -1.174596
     10          1           0        2.192258   -3.811134   -0.928221
     11          6           0        3.296032    0.752554   -0.355968
     12          6           0        4.390546    1.708036    0.120560
     13          6           0        3.989209    3.177812   -0.007816
     14          1           0        3.053607    0.977227   -1.403893
     15          1           0        2.380475    0.936026    0.222857
     16          1           0        5.303661    1.522137   -0.459336
     17          1           0        4.631810    1.480719    1.166856
     18          1           0        3.092355    3.385429    0.584763
     19          1           0        3.768024    3.427083   -1.050668
     20          1           0        4.786156    3.843303    0.338388
     21          6           0       -2.771923   -0.276178    0.259042
     22          6           0       -2.088416   -0.360242    1.624229
     23          6           0       -0.654025   -0.882294    1.536034
     24          1           0       -2.770341   -1.271227   -0.206599
     25          1           0       -2.182573    0.377639   -0.398667
     26          1           0       -2.679620   -1.012604    2.279605
     27          1           0       -2.091796    0.635084    2.086758
     28          1           0       -0.044272   -0.228460    0.904128
     29          1           0       -0.635437   -1.885509    1.098071
     30          1           0       -0.184322   -0.934322    2.523218
     31          6           0       -4.206491    0.244011    0.330791
     32          6           0       -4.889999    0.328073   -1.034396
     33          6           0       -6.324389    0.850125   -0.946201
     34          1           0       -4.795842   -0.409808    0.988500
     35          1           0       -4.208072    1.239059    0.796433
     36          1           0       -4.886618   -0.667251   -1.496925
     37          1           0       -4.298794    0.980435   -1.689772
     38          1           0       -6.342977    1.853342   -0.508237
     39          1           0       -6.934141    0.196292   -0.314294
     40          1           0       -6.794092    0.902153   -1.933385
 ---------------------------------------------------------------------

 SCF Done:  E(RHF) =  -470.732738732     A.U. after   11 cycles
 E2 =    -0.1583242529D+01 EUMP2 =    -0.47231598126141D+03

 The electronic state is 1-A.
 Alpha  occ. eigenvalues --  -11.21657 -11.21617 -11.21580 -11.21433 -11.21402
 Alpha  occ. eigenvalues --  -11.21373 -11.21359 -11.21275 -11.21155 -11.21083
 Alpha  occ. eigenvalues --  -11.21064 -11.20976  -1.08467  -1.08363  -1.03583
 Alpha  occ. eigenvalues --   -1.03452  -0.96035  -0.95920  -0.87069  -0.86927
 Alpha  occ. eigenvalues --   -0.79713  -0.79475  -0.78307  -0.78141  -0.65113
 Alpha  occ. eigenvalues --   -0.64989  -0.60975  -0.60870  -0.59398  -0.59292
 Alpha  occ. eigenvalues --   -0.57655  -0.57516  -0.55350  -0.55183  -0.52739
 Alpha  occ. eigenvalues --   -0.52639  -0.52484  -0.52327  -0.49984  -0.49863
 Alpha  occ. eigenvalues --   -0.48153  -0.47740  -0.46701  -0.46527  -0.45946
 Alpha  occ. eigenvalues --   -0.45748  -0.45684  -0.45324  -0.43824  -0.43715
 Alpha virt. eigenvalues --    0.21711   0.22990   0.23994   0.24292   0.25400
 Alpha virt. eigenvalues --    0.26607   0.27118   0.27619   0.27770   0.29230
 Alpha virt. eigenvalues --    0.31000   0.31447   0.31760   0.31855   0.32121

 Mulliken charges:
               1
     1  C   -0.297234
     2  C   -0.310860
     3  C   -0.475032
     4  H    0.149114
     5  H    0.149174
     6  H    0.150445
     7  H    0.166376
     8  H    0.154810
     9  H    0.154559
    10  H    0.159283
    11  C   -0.301810
    12  C   -0.299454
    13  C   -0.475696
    14  H    0.149266
    15  H    0.151780
    16  H    0.152103
    17  H    0.152004
    18  H    0.154845
    19  H    0.155051
    20  H    0.160240
    21  C   -0.298468
    22  C   -0.299727
    23  C   -0.482078
    24  H    0.149804
    25  H    0.149958
    26  H    0.152153
    27  H    0.151983
    28  H    0.160042
    29  H    0.156640
    30  H    0.160411
    31  C   -0.298333
    32  C   -0.299686
    33  C   -0.475732
    34  H    0.149561
    35  H    0.149696
    36  H    0.151997
    37  H    0.152077
    38  H    0.155213
    39  H    0.155189
    40  H    0.160333
 Sum of Mulliken charges =  -0.00000

 Dipole moment (field-independent basis, Debye):
    X=             -0.0565    Y=              0.0050    Z=              0.0244  Tot=              0.0617
 Quadrupole moment (field-independent basis, Debye-Ang):
   XX=            -85.7990   YY=            -85.3020   ZZ=            -83.9216
   XY=              0.9570   XZ=             -0.4487   YZ=             -0.1116

 Normal termination of Gaussian 16 at Wed May  5 21:18:15 2021.
