 Gaussian 16, Revision A.03,
 Gaussian 16:  EM64L-G16RevA.03 25-Dec-2016

 -------------
 #p 6-31g* mp2
 -------------

 ------------------------------------------------------
 Input file generated by CHIRIPA (05-May-2021 14:51:10)
 ------------------------------------------------------
 Symbolic Z-matrix:
 Charge =  0 Multiplicity = 1

                         Standard orientation:
 ---------------------------------------------------------------------
 Center     Atomic      Atomic             Coordinates (Angstroms)
 Number     Number       Type             X           Y           Z
 ---------------------------------------------------------------------
      1          6           0        2.892096   -0.897288   -0.207635
      2          6           0        1.959663   -1.390882    0.899124
      3          6           0        0.648062   -1.959820    0.357086
      4          1           0        2.374524   -0.129737   -0.799185
      5          1           0        3.107507   -1.728152   -0.893681
      6          1           0        1.747184   -0.559686    1.583654
      7          1           0        2.479584   -2.157210    1.488226
      8          1           0        0.841714   -2.806211   -0.309789
      9          1           0        0.105153   -1.199610   -0.213819
     10          1           0       -0.003414   -2.306768    1.165211
     11          6           0        4.207454   -0.325678    0.318505
     12          6           0        5.139888    0.167917   -0.788255
     13          6           0        6.451489    0.736854   -0.246216
     14          1           0        3.992044    0.505186    1.004550
     15          1           0        4.725027   -1.093229    0.910054
     16          1           0        4.619967    0.934244   -1.377356
     17          1           0        5.352367   -0.663280   -1.472784
     18          1           0        6.994398   -0.023356    0.324689
     19          1           0        6.257836    1.583245    0.420658
     20          1           0        7.102965    1.083802   -1.054341
     21          6           0       -3.817364   -0.042002   -0.346616
     22          6           0       -5.246145   -0.362032    0.094010
     23          6           0       -5.767453   -1.672399   -0.496726
     24          1           0       -3.781356    0.008652   -1.443467
     25          1           0       -3.155947   -0.867787   -0.049968
     26          1           0       -5.904433    0.464744   -0.202157
     27          1           0       -5.278796   -0.411740    1.189947
     28          1           0       -5.134537   -2.511664   -0.190698
     29          1           0       -5.763729   -1.630201   -1.590712
     30          1           0       -6.790434   -1.881717   -0.168768
     31          6           0       -3.282187    1.264968    0.235747
     32          6           0       -1.853407    1.584998   -0.204880
     33          6           0       -1.332098    2.895365    0.385856
     34          1           0       -3.943604    2.090753   -0.060901
     35          1           0       -3.318195    1.214314    1.332598
     36          1           0       -1.820756    1.634706   -1.300817
     37          1           0       -1.195118    0.758222    0.091287
     38          1           0       -1.335822    2.853167    1.479843
     39          1           0       -1.965013    3.734630    0.079829
     40          1           0       -0.309117    3.104683    0.057898
 ---------------------------------------------------------------------

 SCF Done:  E(RHF) =  -470.733327266     A.U. after   11 cycles
 E2 =    -0.1582713341D+01 EUMP2 =    -0.47231604060692D+03

 The electronic state is 1-A.
 Alpha  occ. eigenvalues --  -11.21629 -11.21607 -11.21605 -11.21585 -11.21416
 Alpha  occ. eigenvalues --  -11.21395 -11.21356 -11.21331 -11.21105 -11.21087
 Alpha  occ. eigenvalues --  -11.21075 -11.21050  -1.08449  -1.08421  -1.03561
 Alpha  occ. eigenvalues --   -1.03518  -0.95999  -0.95977  -0.87027  -0.86984
 Alpha  occ. eigenvalues --   -0.79653  -0.79559  -0.78278  -0.78215  -0.65147
 Alpha  occ. eigenvalues --   -0.64994  -0.61082  -0.60809  -0.59372  -0.59341
 Alpha  occ. eigenvalues --   -0.57617  -0.57579  -0.55322  -0.55240  -0.52703
 Alpha  occ. eigenvalues --   -0.52671  -0.52444  -0.52382  -0.50044  -0.49854
 Alpha  occ. eigenvalues --   -0.48021  -0.47832  -0.46785  -0.46506  -0.45875
 Alpha  occ. eigenvalues --   -0.45755  -0.45736  -0.45507  -0.43801  -0.43782
 Alpha virt. eigenvalues --    0.21048   0.23123   0.23749   0.24692   0.25938
 Alpha virt. eigenvalues --    0.26759   0.26992   0.27507   0.28136   0.29289
 Alpha virt. eigenvalues --    0.30459   0.31577   0.31634   0.31840   0.31952

 Mulliken charges:
               1
     1  C   -0.298433
     2  C   -0.300004
     3  C   -0.482415
     4  H    0.149914
     5  H    0.149642
     6  H    0.151994
     7  H    0.152174
     8  H    0.155758
     9  H    0.161746
    10  H    0.159360
    11  C   -0.298378
    12  C   -0.299666
    13  C   -0.475724
    14  H    0.149626
    15  H    0.149654
    16  H    0.151959
    17  H    0.151954
    18  H    0.155180
    19  H    0.155230
    20  H    0.160285
    21  C   -0.299774
    22  C   -0.299637
    23  C   -0.475727
    24  H    0.149457
    25  H    0.151444
    26  H    0.151837
    27  H    0.151856
    28  H    0.155458
    29  H    0.155161
    30  H    0.160125
    31  C   -0.297534
    32  C   -0.308156
    33  C   -0.475111
    34  H    0.149492
    35  H    0.149530
    36  H    0.151544
    37  H    0.160134
    38  H    0.155159
    39  H    0.155444
    40  H    0.159440
 Sum of Mulliken charges =  -0.00000

 Dipole moment (field-independent basis, Debye):
    X=              0.0054    Y=             -0.0092    Z=             -0.0043  Tot=              0.0115
 Quadrupole moment (field-independent basis, Debye-Ang):
   XX=            -85.7438   YY=            -84.7413   ZZ=            -84.3119
   XY=             -1.4972   XZ=             -0.1527   YZ=             -0.7769

 Normal termination of Gaussian 16 at Wed May  5 15:10:27 2021.
