 Gaussian 16, Revision A.03,
 Gaussian 16:  EM64L-G16RevA.03 25-Dec-2016

 -------------
 #p 6-31g* mp2
 -------------

 ------------------------------------------------------
 Input file generated by CHIRIPA (05-May-2021 14:53:18)
 ------------------------------------------------------
 Symbolic Z-matrix:
 Charge =  0 Multiplicity = 1

                         Standard orientation:
 ---------------------------------------------------------------------
 Center     Atomic      Atomic             Coordinates (Angstroms)
 Number     Number       Type             X           Y           Z
 ---------------------------------------------------------------------
      1          6           0       -3.183826    0.833191    0.060799
      2          6           0       -3.995001    2.109900    0.284395
      3          6           0       -3.117843    3.316399    0.620174
      4          1           0       -2.592916    0.619271    0.961914
      5          1           0       -2.464106    1.002030   -0.752153
      6          1           0       -4.713925    1.938262    1.095755
      7          1           0       -4.584195    2.320700   -0.617287
      8          1           0       -2.410114    3.515815   -0.190969
      9          1           0       -2.540581    3.131204    1.531806
     10          1           0       -3.718109    4.218201    0.776044
     11          6           0       -4.046716   -0.381664   -0.275766
     12          6           0       -3.235542   -1.658373   -0.499361
     13          6           0       -4.112699   -2.864872   -0.835141
     14          1           0       -4.766437   -0.550503    0.537186
     15          1           0       -4.637627   -0.167744   -1.176881
     16          1           0       -2.646348   -1.869173    0.402320
     17          1           0       -2.516618   -1.486735   -1.310721
     18          1           0       -4.689962   -2.679677   -1.746772
     19          1           0       -4.820429   -3.064288   -0.023998
     20          1           0       -3.512434   -3.766674   -0.991011
     21          6           0        0.781789   -1.403823    0.912772
     22          6           0        0.641570   -0.184049    0.242691
     23          6           0        1.766362    0.504773   -0.220897
     24          6           0        3.021906   -0.057712    0.003846
     25          6           0        3.194227   -1.271119    0.668105
     26          6           0        2.055424   -1.942517    1.122970
     27          1           0       -0.097420   -1.932149    1.269510
     28          1           0       -0.346313    0.236690    0.078032
     29          1           0        1.686590    1.450746   -0.742614
     30          1           0        4.192067   -1.665415    0.817319
     31          1           0        2.167336   -2.889635    1.643053
     32          7           0        4.220089    0.662289   -0.482316
     33          8           0        5.315190    0.145532   -0.271715
     34          8           0        4.041437    1.729749   -1.064766
 ---------------------------------------------------------------------

 SCF Done:  E(RHF) =  -669.535067468     A.U. after   15 cycles
 E2 =    -0.2092785124D+01 EUMP2 =    -0.67162785259235D+03

 The electronic state is 1-A.
 Alpha  occ. eigenvalues --  -20.60661 -20.60656 -15.85711 -11.31042 -11.27610
 Alpha  occ. eigenvalues --  -11.27577 -11.27313 -11.26625 -11.26471 -11.22808
 Alpha  occ. eigenvalues --  -11.22676 -11.22508 -11.22457 -11.22002 -11.21840
 Alpha  occ. eigenvalues --   -1.59737  -1.39292  -1.19201  -1.09558  -1.08599
 Alpha  occ. eigenvalues --   -1.04594  -1.04528  -0.96966  -0.95447  -0.87978
 Alpha  occ. eigenvalues --   -0.86003  -0.82285  -0.80611  -0.79474  -0.77314
 Alpha  occ. eigenvalues --   -0.71930  -0.71060  -0.70321  -0.66168  -0.64846
 Alpha  occ. eigenvalues --   -0.64606  -0.61966  -0.61912  -0.60341  -0.58594
 Alpha  occ. eigenvalues --   -0.56237  -0.55108  -0.53621  -0.53448  -0.52931
 Alpha  occ. eigenvalues --   -0.52631  -0.50897  -0.48916  -0.48690  -0.48684
 Alpha  occ. eigenvalues --   -0.47638  -0.46875  -0.46817  -0.44817  -0.44705
 Alpha  occ. eigenvalues --   -0.37179  -0.36197
 Alpha virt. eigenvalues --    0.05189   0.11386   0.16679   0.19612   0.22525
 Alpha virt. eigenvalues --    0.22936   0.24602   0.25364   0.26996   0.28055
 Alpha virt. eigenvalues --    0.29280   0.30556   0.30740   0.31301   0.31679

 Mulliken charges:
               1
     1  C   -0.308678
     2  C   -0.298427
     3  C   -0.477953
     4  H    0.146771
     5  H    0.148061
     6  H    0.155102
     7  H    0.155826
     8  H    0.155132
     9  H    0.155965
    10  H    0.165266
    11  C   -0.297093
    12  C   -0.304955
    13  C   -0.476028
    14  H    0.153114
    15  H    0.154888
    16  H    0.143612
    17  H    0.154994
    18  H    0.159479
    19  H    0.157318
    20  H    0.161953
    21  C   -0.176969
    22  C   -0.228692
    23  C   -0.174831
    24  C    0.158928
    25  C   -0.171638
    26  C   -0.218747
    27  H    0.227708
    28  H    0.241053
    29  H    0.275085
    30  H    0.274878
    31  H    0.222674
    32  N    0.488031
    33  O   -0.460988
    34  O   -0.460838
 Sum of Mulliken charges =  -0.00000

 Dipole moment (field-independent basis, Debye):
    X=             -4.6004    Y=             -2.4758    Z=              1.6540  Tot=              5.4798
 Quadrupole moment (field-independent basis, Debye-Ang):
   XX=           -118.0717   YY=            -92.5717   ZZ=            -93.8387
   XY=            -10.5042   XZ=              6.4138   YZ=             -1.9579

 Normal termination of Gaussian 16 at Thu May  6 12:19:51 2021.
