 Gaussian 16, Revision A.03,
 Gaussian 16:  EM64L-G16RevA.03 25-Dec-2016

 -------------
 #p 6-31g* mp2
 -------------

 ------------------------------------------------------
 Input file generated by CHIRIPA (05-May-2021 14:55:26)
 ------------------------------------------------------
 Symbolic Z-matrix:
 Charge =  0 Multiplicity = 1

                         Standard orientation:
 ---------------------------------------------------------------------
 Center     Atomic      Atomic             Coordinates (Angstroms)
 Number     Number       Type             X           Y           Z
 ---------------------------------------------------------------------
      1          6           0       -1.307892    1.381569    0.606700
      2          6           0       -1.258975    0.466279   -0.449885
      3          6           0       -2.368326   -0.328988   -0.752272
      4          6           0       -3.515494   -0.182277    0.026042
      5          6           0       -3.595162    0.720641    1.085136
      6          6           0       -2.473774    1.505610    1.369494
      7          1           0       -0.441445    1.995352    0.834599
      8          1           0       -0.354870    0.367808   -1.043975
      9          1           0       -2.357750   -1.045523   -1.564605
     10          1           0       -4.510481    0.796264    1.659497
     11          1           0       -2.514624    2.215603    2.190643
     12          7           0       -4.696286   -1.018740   -0.284539
     13          8           0       -5.695071   -0.870460    0.416232
     14          8           0       -4.600649   -1.806801   -1.222861
     15          6           0        4.889051   -0.304256    0.114646
     16          6           0        4.715688   -1.818113    0.241799
     17          6           0        6.001358   -2.526491    0.669641
     18          1           0        5.685292   -0.092533   -0.612072
     19          1           0        5.229019    0.101037    1.077742
     20          1           0        4.374819   -2.220244   -0.720861
     21          1           0        3.919636   -2.026253    0.968155
     22          1           0        6.342069   -2.153088    1.640768
     23          1           0        6.799838   -2.348181   -0.057846
     24          1           0        5.854837   -3.607794    0.754347
     25          6           0        3.612416    0.417966   -0.312352
     26          6           0        3.785778    1.931824   -0.439505
     27          6           0        2.500109    2.640202   -0.867346
     28          1           0        3.272447    0.012673   -1.275448
     29          1           0        2.816174    0.206244    0.414365
     30          1           0        4.581830    2.139964   -1.165861
     31          1           0        4.126648    2.333955    0.523156
     32          1           0        1.701629    2.461892   -0.139861
     33          1           0        2.159398    2.266798   -1.838473
     34          1           0        2.646630    3.721505   -0.952053
 ---------------------------------------------------------------------

 SCF Done:  E(RHF) =  -669.535545872     A.U. after   15 cycles
 E2 =    -0.2091295462D+01 EUMP2 =    -0.67162684133461D+03

 The electronic state is 1-A.
 Alpha  occ. eigenvalues --  -20.60713 -20.60708 -15.85766 -11.31119 -11.27687
 Alpha  occ. eigenvalues --  -11.27676 -11.27406 -11.26702 -11.26665 -11.22606
 Alpha  occ. eigenvalues --  -11.22388 -11.22337 -11.22179 -11.22078 -11.21525
 Alpha  occ. eigenvalues --   -1.59789  -1.39342  -1.19287  -1.09265  -1.08684
 Alpha  occ. eigenvalues --   -1.04687  -1.04361  -0.96835  -0.95524  -0.87852
 Alpha  occ. eigenvalues --   -0.86083  -0.82357  -0.80440  -0.79048  -0.77402
 Alpha  occ. eigenvalues --   -0.71984  -0.71112  -0.70424  -0.65893  -0.64938
 Alpha  occ. eigenvalues --   -0.64691  -0.62038  -0.61758  -0.60208  -0.58426
 Alpha  occ. eigenvalues --   -0.56205  -0.55165  -0.53504  -0.53249  -0.53014
 Alpha  occ. eigenvalues --   -0.52773  -0.50774  -0.48760  -0.48741  -0.48724
 Alpha  occ. eigenvalues --   -0.47463  -0.46593  -0.46488  -0.44751  -0.44600
 Alpha  occ. eigenvalues --   -0.37266  -0.36292
 Alpha virt. eigenvalues --    0.05127   0.11348   0.16624   0.19089   0.22483
 Alpha virt. eigenvalues --    0.23840   0.24807   0.25837   0.26797   0.27394
 Alpha virt. eigenvalues --    0.28931   0.30234   0.30865   0.31503   0.31993

 Mulliken charges:
               1
     1  C   -0.175459
     2  C   -0.222047
     3  C   -0.171124
     4  C    0.158389
     5  C   -0.170993
     6  C   -0.219060
     7  H    0.231442
     8  H    0.226434
     9  H    0.275394
    10  H    0.275258
    11  H    0.223423
    12  N    0.488037
    13  O   -0.460637
    14  O   -0.460619
    15  C   -0.298672
    16  C   -0.300481
    17  C   -0.476226
    18  H    0.151854
    19  H    0.151000
    20  H    0.152473
    21  H    0.152596
    22  H    0.155886
    23  H    0.156111
    24  H    0.162474
    25  C   -0.300026
    26  C   -0.299618
    27  C   -0.480790
    28  H    0.148586
    29  H    0.146594
    30  H    0.156733
    31  H    0.154374
    32  H    0.145478
    33  H    0.156673
    34  H    0.166545
 Sum of Mulliken charges =  -0.00000

 Dipole moment (field-independent basis, Debye):
    X=              4.4302    Y=              2.9475    Z=              1.0710  Tot=              5.4278
 Quadrupole moment (field-independent basis, Debye-Ang):
   XX=           -122.9669   YY=            -95.7100   ZZ=            -91.3215
   XY=            -11.8279   XZ=             -6.5377   YZ=              1.9942

 Normal termination of Gaussian 16 at Thu May  6 06:26:37 2021.
