 Gaussian 16, Revision A.03,
 Gaussian 16:  EM64L-G16RevA.03 25-Dec-2016

 -------------
 #p 6-31g* mp2
 -------------

 ------------------------------------------------------
 Input file generated by CHIRIPA (05-May-2021 14:57:24)
 ------------------------------------------------------
 Symbolic Z-matrix:
 Charge =  0 Multiplicity = 1

                         Standard orientation:
 ---------------------------------------------------------------------
 Center     Atomic      Atomic             Coordinates (Angstroms)
 Number     Number       Type             X           Y           Z
 ---------------------------------------------------------------------
      1          6           0        5.072506   -1.836989    0.125117
      2          6           0        4.117755   -1.936892   -0.892228
      3          6           0        3.195906   -0.907460   -1.104387
      4          6           0        3.257651    0.212650   -0.276842
      5          6           0        4.196981    0.341644    0.745074
      6          6           0        5.109007   -0.700044    0.939086
      7          1           0        5.784806   -2.641437    0.282879
      8          1           0        4.087061   -2.818688   -1.525899
      9          1           0        2.446259   -0.958808   -1.884650
     10          1           0        4.202846    1.232997    1.360602
     11          1           0        5.849378   -0.619733    1.729938
     12          7           0        2.286930    1.308951   -0.491840
     13          8           0        2.362208    2.285356    0.250861
     14          8           0        1.469181    1.171069   -1.398985
     15          6           0       -1.308366    1.001425    1.162817
     16          6           0       -1.872955    1.496836   -0.017152
     17          6           0       -3.041467    0.931999   -0.536852
     18          6           0       -3.621554   -0.131871    0.152329
     19          6           0       -3.083086   -0.647728    1.330137
     20          6           0       -1.914165   -0.067391    1.831517
     21          1           0       -0.400479    1.446225    1.559417
     22          1           0       -1.404655    2.326799   -0.538596
     23          1           0       -3.499769    1.295880   -1.448426
     24          1           0       -3.572797   -1.476069    1.827583
     25          1           0       -1.477922   -0.454193    2.748099
     26          7           0       -4.858822   -0.738043   -0.388156
     27          8           0       -5.350556   -1.674476    0.237885
     28          8           0       -5.313430   -0.265250   -1.427597
 ---------------------------------------------------------------------

 SCF Done:  E(RHF) =  -868.340603179     A.U. after   16 cycles
 E2 =    -0.2599450159D+01 EUMP2 =    -0.87094005333817D+03

 The electronic state is 1-A.
 Alpha  occ. eigenvalues --  -20.61995 -20.61933 -20.60091 -20.60078 -15.86950
 Alpha  occ. eigenvalues --  -15.85129 -11.31991 -11.30283 -11.28538 -11.28491
 Alpha  occ. eigenvalues --  -11.28193 -11.27464 -11.27428 -11.26860 -11.26708
 Alpha  occ. eigenvalues --  -11.26361 -11.25855 -11.25543  -1.61026  -1.59167
 Alpha  occ. eigenvalues --   -1.40580  -1.38727  -1.20134  -1.18399  -1.09592
 Alpha  occ. eigenvalues --   -1.07813  -1.05480  -1.03756  -0.96479  -0.94697
 Alpha  occ. eigenvalues --   -0.86893  -0.85144  -0.83317  -0.81536  -0.78405
 Alpha  occ. eigenvalues --   -0.76630  -0.73182  -0.72350  -0.71351  -0.71228
 Alpha  occ. eigenvalues --   -0.70489  -0.69439  -0.65784  -0.65475  -0.64030
 Alpha  occ. eigenvalues --   -0.63712  -0.62826  -0.61100  -0.55990  -0.54201
 Alpha  occ. eigenvalues --   -0.53828  -0.53561  -0.52121  -0.51821  -0.49963
 Alpha  occ. eigenvalues --   -0.49921  -0.48121  -0.48086  -0.46038  -0.44181
 Alpha  occ. eigenvalues --   -0.38097  -0.37069  -0.36339  -0.35344
 Alpha virt. eigenvalues --    0.04063   0.05865   0.10590   0.12307   0.15636
 Alpha virt. eigenvalues --    0.17438   0.20782   0.22572   0.26727   0.27632
 Alpha virt. eigenvalues --    0.28465   0.29283   0.30470   0.31761   0.32240

 Mulliken charges:
               1
     1  C   -0.169591
     2  C   -0.218662
     3  C   -0.169705
     4  C    0.156781
     5  C   -0.171975
     6  C   -0.218716
     7  H    0.228582
     8  H    0.226944
     9  H    0.278153
    10  H    0.274933
    11  H    0.225471
    12  N    0.487146
    13  O   -0.466775
    14  O   -0.458060
    15  C   -0.179439
    16  C   -0.210270
    17  C   -0.174856
    18  C    0.157638
    19  C   -0.173936
    20  C   -0.220013
    21  H    0.233474
    22  H    0.238684
    23  H    0.273609
    24  H    0.270913
    25  H    0.217721
    26  N    0.488095
    27  O   -0.464228
    28  O   -0.461919
 Sum of Mulliken charges =  -0.00000

 Dipole moment (field-independent basis, Debye):
    X=              8.2775    Y=             -1.6579    Z=              2.4690  Tot=              8.7955
 Quadrupole moment (field-independent basis, Debye-Ang):
   XX=           -114.9330   YY=           -104.2847   ZZ=            -99.6985
   XY=            -20.1639   XZ=             -2.7722   YZ=              0.7598

 Normal termination of Gaussian 16 at Fri May  7 06:29:27 2021.
