 Gaussian 16, Revision A.03,
 Gaussian 16:  EM64L-G16RevA.03 25-Dec-2016

 -------------
 #p 6-31g* mp2
 -------------

 ------------------------------------------------------
 Input file generated by CHIRIPA (05-May-2021 14:53:16)
 ------------------------------------------------------
 Symbolic Z-matrix:
 Charge =  0 Multiplicity = 1

                         Standard orientation:
 ---------------------------------------------------------------------
 Center     Atomic      Atomic             Coordinates (Angstroms)
 Number     Number       Type             X           Y           Z
 ---------------------------------------------------------------------
      1          6           0        3.733327   -0.234922   -0.417267
      2          6           0        4.689537   -0.082004    0.766060
      3          6           0        5.955438    0.696410    0.406394
      4          1           0        4.256078   -0.742066   -1.239752
      5          1           0        3.458699    0.761970   -0.788993
      6          1           0        4.961191   -1.078864    1.136319
      7          1           0        4.164391    0.424663    1.585892
      8          1           0        5.702702    1.702818    0.057300
      9          1           0        6.504029    0.190748   -0.394827
     10          1           0        6.624841    0.793897    1.266776
     11          6           0        2.463142   -1.010882   -0.073401
     12          6           0        1.506931   -1.163800   -1.256728
     13          6           0        0.241030   -1.942213   -0.897062
     14          1           0        2.737770   -2.007774    0.298325
     15          1           0        1.940391   -0.503738    0.749084
     16          1           0        2.032078   -1.670467   -2.076560
     17          1           0        1.235278   -0.166940   -1.626987
     18          1           0       -0.307561   -1.436552   -0.095841
     19          1           0        0.493766   -2.948622   -0.547968
     20          1           0       -0.428373   -2.039701   -1.757444
     21          6           0       -1.217319    2.653884   -0.278818
     22          6           0       -2.073433    2.105665   -1.239572
     23          6           0       -2.745270    0.905355   -0.989696
     24          6           0       -2.536814    0.277122    0.237152
     25          6           0       -1.690308    0.798186    1.214501
     26          6           0       -1.028821    1.999547    0.942998
     27          1           0       -0.699440    3.586722   -0.481328
     28          1           0       -2.221732    2.611639   -2.189331
     29          1           0       -3.413745    0.458761   -1.715722
     30          1           0       -1.562602    0.270710    2.151986
     31          1           0       -0.364551    2.422976    1.690993
     32          7           0       -3.242579   -0.994150    0.513131
     33          8           0       -3.041938   -1.528127    1.601823
     34          8           0       -3.983036   -1.432524   -0.364473
 ---------------------------------------------------------------------

 SCF Done:  E(RHF) =  -669.534759528     A.U. after   15 cycles
 E2 =    -0.2093957393D+01 EUMP2 =    -0.67162871692153D+03

 The electronic state is 1-A.
 Alpha  occ. eigenvalues --  -20.60820 -20.60813 -15.85852 -11.31229 -11.27820
 Alpha  occ. eigenvalues --  -11.27815 -11.27589 -11.26882 -11.26865 -11.21850
 Alpha  occ. eigenvalues --  -11.21604 -11.21590 -11.21472 -11.21331 -11.20827
 Alpha  occ. eigenvalues --   -1.59881  -1.39436  -1.19446  -1.08834  -1.08566
 Alpha  occ. eigenvalues --   -1.04853  -1.03621  -0.96067  -0.95656  -0.87085
 Alpha  occ. eigenvalues --   -0.86247  -0.82489  -0.79702  -0.78383  -0.77528
 Alpha  occ. eigenvalues --   -0.72082  -0.71218  -0.70546  -0.65211  -0.65095
 Alpha  occ. eigenvalues --   -0.64851  -0.62195  -0.61050  -0.59441  -0.57677
 Alpha  occ. eigenvalues --   -0.55474  -0.55334  -0.53160  -0.52940  -0.52731
 Alpha  occ. eigenvalues --   -0.52446  -0.49993  -0.48844  -0.48837  -0.48002
 Alpha  occ. eigenvalues --   -0.46756  -0.45921  -0.45857  -0.44809  -0.43885
 Alpha  occ. eigenvalues --   -0.37342  -0.36436
 Alpha virt. eigenvalues --    0.04982   0.11108   0.16456   0.21233   0.22690
 Alpha virt. eigenvalues --    0.24162   0.26277   0.27006   0.27575   0.27855
 Alpha virt. eigenvalues --    0.28329   0.30716   0.31341   0.31687   0.31810

 Mulliken charges:
               1
     1  C   -0.297791
     2  C   -0.299117
     3  C   -0.475480
     4  H    0.150831
     5  H    0.145730
     6  H    0.153946
     7  H    0.148745
     8  H    0.153071
     9  H    0.156338
    10  H    0.160671
    11  C   -0.297323
    12  C   -0.299395
    13  C   -0.479351
    14  H    0.151853
    15  H    0.145350
    16  H    0.151679
    17  H    0.149064
    18  H    0.156071
    19  H    0.158847
    20  H    0.161259
    21  C   -0.171693
    22  C   -0.218004
    23  C   -0.170672
    24  C    0.159976
    25  C   -0.175928
    26  C   -0.216482
    27  H    0.225962
    28  H    0.223968
    29  H    0.275882
    30  H    0.275954
    31  H    0.223898
    32  N    0.491931
    33  O   -0.460113
    34  O   -0.459676
 Sum of Mulliken charges =  -0.00000

 Dipole moment (field-independent basis, Debye):
    X=              2.3985    Y=              4.4402    Z=             -0.9914  Tot=              5.1430
 Quadrupole moment (field-independent basis, Debye-Ang):
   XX=           -107.8108   YY=            -92.2932   ZZ=            -91.2926
   XY=            -11.8978   XZ=              5.3735   YZ=              0.8025

 Normal termination of Gaussian 16 at Thu May  6 15:32:27 2021.
