 Gaussian 16, Revision A.03,
 Gaussian 16:  EM64L-G16RevA.03 25-Dec-2016

 -------------
 #p 6-31g* mp2
 -------------

 ------------------------------------------------------
 Input file generated by CHIRIPA (05-May-2021 14:53:17)
 ------------------------------------------------------
 Symbolic Z-matrix:
 Charge =  0 Multiplicity = 1

                         Standard orientation:
 ---------------------------------------------------------------------
 Center     Atomic      Atomic             Coordinates (Angstroms)
 Number     Number       Type             X           Y           Z
 ---------------------------------------------------------------------
      1          6           0        3.251504   -0.422944    0.032709
      2          6           0        3.226233   -1.703785   -0.802033
      3          6           0        3.724864   -2.924121   -0.027476
      4          1           0        4.276512   -0.242152    0.384303
      5          1           0        2.633916   -0.566222    0.930178
      6          1           0        3.842569   -1.557658   -1.698356
      7          1           0        2.201203   -1.881446   -1.151841
      8          1           0        3.105053   -3.097978    0.858079
      9          1           0        4.755745   -2.772351    0.308459
     10          1           0        3.698338   -3.828676   -0.643054
     11          6           0        2.755886    0.805721   -0.727865
     12          6           0        2.781157    2.086561    0.106877
     13          6           0        2.282525    3.306897   -0.667680
     14          1           0        3.373474    0.948998   -1.625335
     15          1           0        1.730878    0.624928   -1.079459
     16          1           0        3.806187    2.264222    0.456685
     17          1           0        2.164821    1.940435    1.003199
     18          1           0        1.251645    3.155127   -1.003616
     19          1           0        2.902337    3.480754   -1.553236
     20          1           0        2.309052    4.211453   -0.052102
     21          6           0       -4.542019   -0.268582   -0.966212
     22          6           0       -4.087461    0.954903   -0.463240
     23          6           0       -2.872564    1.032669    0.224164
     24          6           0       -2.134396   -0.138011    0.391207
     25          6           0       -2.560449   -1.371831   -0.098138
     26          6           0       -3.778408   -1.426004   -0.782381
     27          1           0       -5.486970   -0.319829   -1.498976
     28          1           0       -4.678398    1.855392   -0.604516
     29          1           0       -2.496982    1.966764    0.623941
     30          1           0       -1.949312   -2.252415    0.058396
     31          1           0       -4.128942   -2.377551   -1.171906
     32          7           0       -0.846616   -0.068172    1.117258
     33          8           0       -0.214914   -1.113954    1.251165
     34          8           0       -0.493342    1.031025    1.538680
 ---------------------------------------------------------------------

 SCF Done:  E(RHF) =  -669.537061358     A.U. after   15 cycles
 E2 =    -0.2093130500D+01 EUMP2 =    -0.67163019185749D+03

 The electronic state is 1-A.
 Alpha  occ. eigenvalues --  -20.61244 -20.61239 -15.86226 -11.31444 -11.27988
 Alpha  occ. eigenvalues --  -11.27984 -11.27707 -11.26969 -11.26960 -11.20400
 Alpha  occ. eigenvalues --  -11.20125 -11.20071 -11.20014 -11.19988 -11.19780
 Alpha  occ. eigenvalues --   -1.60272  -1.39832  -1.19598  -1.09024  -1.07055
 Alpha  occ. eigenvalues --   -1.04975  -1.02270  -0.95882  -0.94761  -0.86382
 Alpha  occ. eigenvalues --   -0.85786  -0.82720  -0.78336  -0.77786  -0.76871
 Alpha  occ. eigenvalues --   -0.72452  -0.71587  -0.70704  -0.65255  -0.64981
 Alpha  occ. eigenvalues --   -0.63636  -0.62322  -0.59646  -0.58139  -0.56380
 Alpha  occ. eigenvalues --   -0.55485  -0.54048  -0.53310  -0.53065  -0.51505
 Alpha  occ. eigenvalues --   -0.51209  -0.49260  -0.49235  -0.48665  -0.46691
 Alpha  occ. eigenvalues --   -0.45441  -0.45058  -0.44479  -0.44175  -0.42505
 Alpha  occ. eigenvalues --   -0.37568  -0.36569
 Alpha virt. eigenvalues --    0.04691   0.11085   0.16172   0.21178   0.24154
 Alpha virt. eigenvalues --    0.25395   0.27151   0.27528   0.28393   0.28924
 Alpha virt. eigenvalues --    0.29302   0.30940   0.31814   0.32743   0.32996

 Mulliken charges:
               1
     1  C   -0.306495
     2  C   -0.295748
     3  C   -0.476695
     4  H    0.142474
     5  H    0.176256
     6  H    0.144763
     7  H    0.149681
     8  H    0.162246
     9  H    0.151830
    10  H    0.153258
    11  C   -0.293291
    12  C   -0.308267
    13  C   -0.472962
    14  H    0.141929
    15  H    0.141271
    16  H    0.145332
    17  H    0.178583
    18  H    0.150196
    19  H    0.149190
    20  H    0.156720
    21  C   -0.170130
    22  C   -0.218554
    23  C   -0.170616
    24  C    0.157747
    25  C   -0.170423
    26  C   -0.218559
    27  H    0.226668
    28  H    0.224525
    29  H    0.276378
    30  H    0.276160
    31  H    0.224478
    32  N    0.489585
    33  O   -0.458963
    34  O   -0.458566
 Sum of Mulliken charges =  -0.00000

 Dipole moment (field-independent basis, Debye):
    X=             -4.9592    Y=             -0.3072    Z=             -2.2439  Tot=              5.4519
 Quadrupole moment (field-independent basis, Debye-Ang):
   XX=            -76.0817   YY=            -91.5384   ZZ=            -97.7326
   XY=              0.9098   XZ=              4.2251   YZ=              1.5385

 Normal termination of Gaussian 16 at Thu May  6 20:33:05 2021.
