 Gaussian 16, Revision A.03,
 Gaussian 16:  EM64L-G16RevA.03 25-Dec-2016

 -------------
 #p 6-31g* mp2
 -------------

 ------------------------------------------------------
 Input file generated by CHIRIPA (05-May-2021 14:57:21)
 ------------------------------------------------------
 Symbolic Z-matrix:
 Charge =  0 Multiplicity = 1

                         Standard orientation:
 ---------------------------------------------------------------------
 Center     Atomic      Atomic             Coordinates (Angstroms)
 Number     Number       Type             X           Y           Z
 ---------------------------------------------------------------------
      1          6           0       -3.365320    2.649894    0.023806
      2          6           0       -2.709966    1.992927   -1.022820
      3          6           0       -2.604677    0.598869   -1.030732
      4          6           0       -3.168804   -0.110115    0.028699
      5          6           0       -3.827958    0.515522    1.085764
      6          6           0       -3.921245    1.910398    1.072908
      7          1           0       -3.442449    3.733150    0.021886
      8          1           0       -2.277280    2.564659   -1.838878
      9          1           0       -2.102802    0.064752   -1.828390
     10          1           0       -4.249295   -0.081497    1.885427
     11          1           0       -4.430776    2.417933    1.887053
     12          7           0       -3.063693   -1.586375    0.031316
     13          8           0       -3.569120   -2.188120    0.976347
     14          8           0       -2.477869   -2.113769   -0.911712
     15          6           0        5.178547    1.344965    0.431343
     16          6           0        5.235777   -0.020146    0.730873
     17          6           0        4.137852   -0.848634    0.480441
     18          6           0        2.993508   -0.276094   -0.072701
     19          6           0        2.905754    1.080319   -0.382110
     20          6           0        4.015768    1.889880   -0.123214
     21          1           0        6.036139    1.981203    0.629172
     22          1           0        6.137496   -0.446075    1.161606
     23          1           0        4.155038   -1.908705    0.702638
     24          1           0        1.993073    1.476032   -0.810880
     25          1           0        3.968481    2.949702   -0.356848
     26          7           0        1.824785   -1.143158   -0.342302
     27          8           0        0.828269   -0.614372   -0.830133
     28          8           0        1.927385   -2.335131   -0.060679
 ---------------------------------------------------------------------

 SCF Done:  E(RHF) =  -868.336611848     A.U. after   16 cycles
 E2 =    -0.2600330486D+01 EUMP2 =    -0.87093694233376D+03

 The electronic state is 1-A.
 Alpha  occ. eigenvalues --  -20.60661 -20.60605 -20.59539 -20.59423 -15.85705
 Alpha  occ. eigenvalues --  -15.84543 -11.31200 -11.30155 -11.27824 -11.27752
 Alpha  occ. eigenvalues --  -11.27546 -11.26863 -11.26852 -11.26800 -11.26712
 Alpha  occ. eigenvalues --  -11.26702 -11.25940 -11.25890  -1.59695  -1.58548
 Alpha  occ. eigenvalues --   -1.39254  -1.38091  -1.19382  -1.18398  -1.08748
 Alpha  occ. eigenvalues --   -1.07764  -1.04810  -1.03848  -0.95563  -0.94543
 Alpha  occ. eigenvalues --   -0.86201  -0.85238  -0.82402  -0.81380  -0.77432
 Alpha  occ. eigenvalues --   -0.76351  -0.71927  -0.71033  -0.70772  -0.70494
 Alpha  occ. eigenvalues --   -0.69858  -0.69533  -0.65039  -0.64814  -0.64061
 Alpha  occ. eigenvalues --   -0.63883  -0.62161  -0.61177  -0.55299  -0.54403
 Alpha  occ. eigenvalues --   -0.53126  -0.52907  -0.52166  -0.51957  -0.48668
 Alpha  occ. eigenvalues --   -0.48637  -0.47563  -0.47480  -0.44639  -0.43423
 Alpha  occ. eigenvalues --   -0.37367  -0.36435  -0.36417  -0.35449
 Alpha virt. eigenvalues --    0.05112   0.06202   0.11234   0.12191   0.16587
 Alpha virt. eigenvalues --    0.17593   0.21316   0.22185   0.27202   0.27872
 Alpha virt. eigenvalues --    0.28379   0.29170   0.30902   0.31657   0.32472

 Mulliken charges:
               1
     1  C   -0.172216
     2  C   -0.223136
     3  C   -0.158849
     4  C    0.157540
     5  C   -0.171754
     6  C   -0.220073
     7  H    0.219964
     8  H    0.217717
     9  H    0.284927
    10  H    0.273325
    11  H    0.218935
    12  N    0.488441
    13  O   -0.467964
    14  O   -0.447707
    15  C   -0.171154
    16  C   -0.218374
    17  C   -0.170592
    18  C    0.159063
    19  C   -0.170657
    20  C   -0.218278
    21  H    0.225234
    22  H    0.223978
    23  H    0.277440
    24  H    0.270873
    25  H    0.221416
    26  N    0.490215
    27  O   -0.466201
    28  O   -0.452113
 Sum of Mulliken charges =  -0.00000

 Dipole moment (field-independent basis, Debye):
    X=              4.0167    Y=              7.8763    Z=              0.8123  Tot=              8.8787
 Quadrupole moment (field-independent basis, Debye-Ang):
   XX=            -77.4362   YY=           -105.8106   ZZ=           -101.6594
   XY=            -10.2958   XZ=              1.7030   YZ=             -1.9412

 Normal termination of Gaussian 16 at Wed May  5 16:16:04 2021.
