 Gaussian 16, Revision A.03,
 Gaussian 16:  EM64L-G16RevA.03 25-Dec-2016

 -------------
 #p 6-31g* mp2
 -------------

 ------------------------------------------------------
 Input file generated by CHIRIPA (05-May-2021 14:51:12)
 ------------------------------------------------------
 Symbolic Z-matrix:
 Charge =  0 Multiplicity = 1

                         Standard orientation:
 ---------------------------------------------------------------------
 Center     Atomic      Atomic             Coordinates (Angstroms)
 Number     Number       Type             X           Y           Z
 ---------------------------------------------------------------------
      1          6           0       -2.006632   -0.026924    0.012455
      2          6           0       -3.318043    0.703677    0.302986
      3          6           0       -3.149093    2.222306    0.357891
      4          1           0       -1.270136    0.233815    0.784812
      5          1           0       -1.598635    0.332307   -0.942472
      6          1           0       -3.724151    0.342175    1.256406
      7          1           0       -4.051563    0.441019   -0.470044
      8          1           0       -2.766710    2.602082   -0.595080
      9          1           0       -2.437438    2.502676    1.141180
     10          1           0       -4.098789    2.724613    0.566754
     11          6           0       -2.159325   -1.545821   -0.045548
     12          6           0       -0.847913   -2.276422   -0.336079
     13          6           0       -1.016864   -3.795051   -0.390984
     14          1           0       -2.567322   -1.905052    0.909379
     15          1           0       -2.895821   -1.806560   -0.817904
     16          1           0       -0.114394   -2.013764    0.436952
     17          1           0       -0.441806   -1.914920   -1.289499
     18          1           0       -1.728519   -4.075422   -1.174272
     19          1           0       -1.399247   -4.174827    0.561988
     20          1           0       -0.067168   -4.297358   -0.599847
     21          6           0        1.853683    1.457601    0.299933
     22          6           0        1.493062    2.479755   -0.778556
     23          6           0        1.036198    3.817548   -0.195993
     24          1           0        0.982893    1.297666    0.950387
     25          1           0        2.647698    1.871563    0.936777
     26          1           0        0.700928    2.063434   -1.414022
     27          1           0        2.364753    2.637132   -1.426633
     28          1           0        1.825138    4.258090    0.422147
     29          1           0        0.151860    3.681132    0.434830
     30          1           0        0.783401    4.533371   -0.984378
     31          6           0        2.312274    0.115144   -0.266841
     32          6           0        2.672895   -0.907010    0.811648
     33          6           0        3.129759   -2.244803    0.229086
     34          1           0        1.518259   -0.298818   -0.903685
     35          1           0        3.183065    0.275079   -0.917294
     36          1           0        1.801204   -1.064387    1.459726
     37          1           0        3.465028   -0.490689    1.447114
     38          1           0        4.014097   -2.108387   -0.401737
     39          1           0        2.340819   -2.685345   -0.389054
     40          1           0        3.382556   -2.960627    1.017471
 ---------------------------------------------------------------------

 SCF Done:  E(RHF) =  -470.731725891     A.U. after   11 cycles
 E2 =    -0.1587027106D+01 EUMP2 =    -0.47231875299736D+03

 The electronic state is 1-A.
 Alpha  occ. eigenvalues --  -11.21693 -11.21655 -11.21557 -11.21518 -11.21507
 Alpha  occ. eigenvalues --  -11.21444 -11.21289 -11.21220 -11.21156 -11.21135
 Alpha  occ. eigenvalues --  -11.21016 -11.20981  -1.08580  -1.08307  -1.03669
 Alpha  occ. eigenvalues --   -1.03421  -0.96094  -0.95881  -0.87116  -0.86893
 Alpha  occ. eigenvalues --   -0.79714  -0.79532  -0.78393  -0.78164  -0.65308
 Alpha  occ. eigenvalues --   -0.64868  -0.61231  -0.60801  -0.59351  -0.59259
 Alpha  occ. eigenvalues --   -0.57725  -0.57524  -0.55432  -0.55069  -0.52758
 Alpha  occ. eigenvalues --   -0.52606  -0.52534  -0.52334  -0.50042  -0.49779
 Alpha  occ. eigenvalues --   -0.48185  -0.47669  -0.46966  -0.46338  -0.46290
 Alpha  occ. eigenvalues --   -0.46215  -0.45231  -0.45154  -0.43875  -0.43698
 Alpha virt. eigenvalues --    0.19806   0.21424   0.23448   0.23790   0.24759
 Alpha virt. eigenvalues --    0.25581   0.26328   0.28838   0.29181   0.29870
 Alpha virt. eigenvalues --    0.29994   0.30876   0.31466   0.31971   0.32610

 Mulliken charges:
               1
     1  C   -0.305313
     2  C   -0.299559
     3  C   -0.477806
     4  H    0.153946
     5  H    0.151155
     6  H    0.152239
     7  H    0.152433
     8  H    0.156552
     9  H    0.155911
    10  H    0.160967
    11  C   -0.297432
    12  C   -0.309295
    13  C   -0.477025
    14  H    0.149643
    15  H    0.149892
    16  H    0.161421
    17  H    0.152691
    18  H    0.155408
    19  H    0.155490
    20  H    0.161808
    21  C   -0.300798
    22  C   -0.300730
    23  C   -0.478137
    24  H    0.152326
    25  H    0.148921
    26  H    0.152941
    27  H    0.151425
    28  H    0.154594
    29  H    0.158088
    30  H    0.159666
    31  C   -0.303693
    32  C   -0.301897
    33  C   -0.480275
    34  H    0.156494
    35  H    0.149067
    36  H    0.150842
    37  H    0.152784
    38  H    0.155219
    39  H    0.160363
    40  H    0.159673
 Sum of Mulliken charges =   0.00000

 Dipole moment (field-independent basis, Debye):
    X=             -0.0716    Y=             -0.0331    Z=             -0.0084  Tot=              0.0793
 Quadrupole moment (field-independent basis, Debye-Ang):
   XX=            -84.0148   YY=            -86.9968   ZZ=            -83.8536
   XY=              0.6372   XZ=              0.2357   YZ=             -0.3952

 Normal termination of Gaussian 16 at Thu May  6 05:30:30 2021.
