 Gaussian 16, Revision A.03,
 Gaussian 16:  EM64L-G16RevA.03 25-Dec-2016

 -------------
 #p 6-31g* mp2
 -------------

 ------------------------------------------------------
 Input file generated by CHIRIPA (05-May-2021 14:51:11)
 ------------------------------------------------------
 Symbolic Z-matrix:
 Charge =  0 Multiplicity = 1

                         Standard orientation:
 ---------------------------------------------------------------------
 Center     Atomic      Atomic             Coordinates (Angstroms)
 Number     Number       Type             X           Y           Z
 ---------------------------------------------------------------------
      1          6           0       -5.044665   -0.009475    0.193201
      2          6           0       -5.554880   -1.307607   -0.433312
      3          6           0       -6.857475   -1.797560    0.199921
      4          1           0       -4.894922   -0.163863    1.270552
      5          1           0       -5.816607    0.766050    0.092893
      6          1           0       -4.781660   -2.080071   -0.333083
      7          1           0       -5.703243   -1.150166   -1.509331
      8          1           0       -7.646673   -1.047175    0.087274
      9          1           0       -6.719854   -1.982364    1.270206
     10          1           0       -7.204242   -2.726728   -0.262961
     11          6           0       -3.743201    0.492990   -0.429254
     12          6           0       -3.232987    1.791123    0.197259
     13          6           0       -1.930391    2.281076   -0.435974
     14          1           0       -2.971259   -0.282534   -0.328946
     15          1           0       -3.892944    0.647378   -1.506605
     16          1           0       -3.084623    1.633682    1.273278
     17          1           0       -4.006206    2.563587    0.097030
     18          1           0       -2.068012    2.465880   -1.506259
     19          1           0       -1.141193    1.530691   -0.323327
     20          1           0       -1.583624    3.210244    0.026908
     21          6           0        3.681075   -0.495976    0.014884
     22          6           0        2.626634    0.348145    0.731542
     23          6           0        1.205504   -0.173004    0.515697
     24          1           0        3.456050   -0.517001   -1.060229
     25          1           0        3.612438   -1.533918    0.368947
     26          1           0        2.698157    1.384472    0.377244
     27          1           0        2.854304    0.367320    1.805047
     28          1           0        1.110985   -1.198903    0.886101
     29          1           0        0.953952   -0.175971   -0.549814
     30          1           0        0.467752    0.445138    1.036737
     31          6           0        5.106791    0.012460    0.221170
     32          6           0        6.161233   -0.831660   -0.495489
     33          6           0        7.582362   -0.310512   -0.279644
     34          1           0        5.175427    1.050402   -0.132893
     35          1           0        5.331816    0.033485    1.296283
     36          1           0        5.933562   -0.850836   -1.568994
     37          1           0        6.089709   -1.867988   -0.141191
     38          1           0        7.833914   -0.307544    0.785867
     39          1           0        7.676882    0.715386   -0.650048
     40          1           0        8.320114   -0.928653   -0.800683
 ---------------------------------------------------------------------

 SCF Done:  E(RHF) =  -470.732979662     A.U. after   11 cycles
 E2 =    -0.1582498043D+01 EUMP2 =    -0.47231547770562D+03

 The electronic state is 1-A.
 Alpha  occ. eigenvalues --  -11.21636 -11.21612 -11.21566 -11.21536 -11.21424
 Alpha  occ. eigenvalues --  -11.21364 -11.21353 -11.21292 -11.21125 -11.21078
 Alpha  occ. eigenvalues --  -11.21044 -11.20920  -1.08453  -1.08376  -1.03567
 Alpha  occ. eigenvalues --   -1.03465  -0.96040  -0.95898  -0.87078  -0.86898
 Alpha  occ. eigenvalues --   -0.79657  -0.79506  -0.78264  -0.78187  -0.65089
 Alpha  occ. eigenvalues --   -0.65006  -0.61024  -0.60850  -0.59394  -0.59282
 Alpha  occ. eigenvalues --   -0.57646  -0.57515  -0.55413  -0.55118  -0.52785
 Alpha  occ. eigenvalues --   -0.52611  -0.52438  -0.52275  -0.50055  -0.49730
 Alpha  occ. eigenvalues --   -0.47941  -0.47842  -0.46701  -0.46505  -0.45813
 Alpha  occ. eigenvalues --   -0.45742  -0.45714  -0.45641  -0.43775  -0.43728
 Alpha virt. eigenvalues --    0.21961   0.22982   0.23647   0.24909   0.26353
 Alpha virt. eigenvalues --    0.26676   0.27247   0.27500   0.27801   0.29019
 Alpha virt. eigenvalues --    0.30981   0.31111   0.31703   0.31813   0.32135

 Mulliken charges:
               1
     1  C   -0.298228
     2  C   -0.299640
     3  C   -0.475671
     4  H    0.149533
     5  H    0.149369
     6  H    0.152022
     7  H    0.151829
     8  H    0.155103
     9  H    0.155116
    10  H    0.160128
    11  C   -0.298632
    12  C   -0.299147
    13  C   -0.484608
    14  H    0.150349
    15  H    0.149378
    16  H    0.151138
    17  H    0.151582
    18  H    0.154214
    19  H    0.165670
    20  H    0.158998
    21  C   -0.298700
    22  C   -0.299597
    23  C   -0.480622
    24  H    0.149965
    25  H    0.149507
    26  H    0.152944
    27  H    0.152033
    28  H    0.155259
    29  H    0.156426
    30  H    0.164021
    31  C   -0.298362
    32  C   -0.299677
    33  C   -0.475723
    34  H    0.149716
    35  H    0.149662
    36  H    0.152019
    37  H    0.151910
    38  H    0.155178
    39  H    0.155248
    40  H    0.160292
 Sum of Mulliken charges =  -0.00000

 Dipole moment (field-independent basis, Debye):
    X=              0.0552    Y=             -0.0227    Z=              0.0036  Tot=              0.0597
 Quadrupole moment (field-independent basis, Debye-Ang):
   XX=            -86.6812   YY=            -84.5612   ZZ=            -83.7486
   XY=             -0.9792   XZ=              0.7107   YZ=             -0.7119

 Normal termination of Gaussian 16 at Thu May  6 02:15:19 2021.
