 Gaussian 16, Revision A.03,
 Gaussian 16:  EM64L-G16RevA.03 25-Dec-2016

 -------------
 #p 6-31g* mp2
 -------------

 ------------------------------------------------------
 Input file generated by CHIRIPA (05-May-2021 14:57:22)
 ------------------------------------------------------
 Symbolic Z-matrix:
 Charge =  0 Multiplicity = 1

                         Standard orientation:
 ---------------------------------------------------------------------
 Center     Atomic      Atomic             Coordinates (Angstroms)
 Number     Number       Type             X           Y           Z
 ---------------------------------------------------------------------
      1          6           0        6.498068   -1.189696   -0.192815
      2          6           0        6.511032    0.072792    0.409245
      3          6           0        5.338896    0.829754    0.496730
      4          6           0        4.166287    0.291112   -0.030663
      5          6           0        4.121225   -0.963584   -0.636466
      6          6           0        5.305309   -1.702950   -0.712832
      7          1           0        7.413252   -1.770888   -0.256457
      8          1           0        7.435886    0.473915    0.813956
      9          1           0        5.320567    1.809912    0.957570
     10          1           0        3.183920   -1.336862   -1.030850
     11          1           0        5.292268   -2.683123   -1.180951
     12          7           0        2.919075    1.083160    0.056069
     13          8           0        1.898978    0.586174   -0.416207
     14          8           0        2.985223    2.185955    0.594682
     15          6           0       -1.902004   -0.501522    0.431704
     16          6           0       -2.350634    0.076424   -0.760451
     17          6           0       -3.716790    0.270128   -0.985491
     18          6           0       -4.610617   -0.127612    0.007568
     19          6           0       -4.194678   -0.706158    1.205721
     20          6           0       -2.823832   -0.890282    1.409260
     21          1           0       -0.838919   -0.648274    0.598169
     22          1           0       -1.637006    0.379303   -1.521400
     23          1           0       -4.091495    0.715149   -1.899258
     24          1           0       -4.930045   -0.997939    1.945663
     25          1           0       -2.478292   -1.339373    2.336063
     26          7           0       -6.059389    0.072383   -0.219292
     27          8           0       -6.826599   -0.286588    0.671305
     28          8           0       -6.400291    0.584325   -1.283406
 ---------------------------------------------------------------------

 SCF Done:  E(RHF) =  -868.340144411     A.U. after   16 cycles
 E2 =    -0.2598156326D+01 EUMP2 =    -0.87093830073708D+03

 The electronic state is 1-A.
 Alpha  occ. eigenvalues --  -20.61911 -20.61827 -20.60061 -20.60054 -15.86905
 Alpha  occ. eigenvalues --  -15.85107 -11.32008 -11.30281 -11.28568 -11.28519
 Alpha  occ. eigenvalues --  -11.28220 -11.27500 -11.27474 -11.26871 -11.26805
 Alpha  occ. eigenvalues --  -11.26367 -11.25806 -11.25655  -1.60928  -1.59140
 Alpha  occ. eigenvalues --   -1.40493  -1.38699  -1.20152  -1.18420  -1.09591
 Alpha  occ. eigenvalues --   -1.07813  -1.05515  -1.03801  -0.96471  -0.94687
 Alpha  occ. eigenvalues --   -0.86925  -0.85182  -0.83318  -0.81539  -0.78396
 Alpha  occ. eigenvalues --   -0.76643  -0.73143  -0.72232  -0.71329  -0.71252
 Alpha  occ. eigenvalues --   -0.70462  -0.69429  -0.65808  -0.65510  -0.64052
 Alpha  occ. eigenvalues --   -0.63772  -0.62867  -0.61158  -0.56014  -0.54177
 Alpha  occ. eigenvalues --   -0.53855  -0.53601  -0.52137  -0.51870  -0.49900
 Alpha  occ. eigenvalues --   -0.49848  -0.48096  -0.48067  -0.45951  -0.44149
 Alpha  occ. eigenvalues --   -0.38110  -0.37107  -0.36338  -0.35423
 Alpha virt. eigenvalues --    0.04097   0.05893   0.10551   0.12249   0.15630
 Alpha virt. eigenvalues --    0.17455   0.20694   0.22504   0.26643   0.27468
 Alpha virt. eigenvalues --    0.28303   0.29349   0.30415   0.31668   0.32474

 Mulliken charges:
               1
     1  C   -0.169814
     2  C   -0.218401
     3  C   -0.170332
     4  C    0.157696
     5  C   -0.171137
     6  C   -0.218320
     7  H    0.228382
     8  H    0.226140
     9  H    0.277153
    10  H    0.272628
    11  H    0.225460
    12  N    0.490647
    13  O   -0.473621
    14  O   -0.453917
    15  C   -0.172892
    16  C   -0.219911
    17  C   -0.172590
    18  C    0.157339
    19  C   -0.172099
    20  C   -0.219913
    21  H    0.239094
    22  H    0.231238
    23  H    0.272952
    24  H    0.272102
    25  H    0.219643
    26  N    0.488285
    27  O   -0.463307
    28  O   -0.462504
 Sum of Mulliken charges =  -0.00000

 Dipole moment (field-independent basis, Debye):
    X=             10.1570    Y=             -3.4303    Z=              0.4824  Tot=             10.7315
 Quadrupole moment (field-independent basis, Debye-Ang):
   XX=           -114.9036   YY=           -103.6411   ZZ=           -100.6531
   XY=             -5.5302   XZ=             -4.4902   YZ=             -0.0487

 Normal termination of Gaussian 16 at Thu May  6 21:08:18 2021.
