 Gaussian 16, Revision A.03,
 Gaussian 16:  EM64L-G16RevA.03 25-Dec-2016

 -------------
 #p 6-31g* mp2
 -------------

 ------------------------------------------------------
 Input file generated by CHIRIPA (05-May-2021 14:55:21)
 ------------------------------------------------------
 Symbolic Z-matrix:
 Charge =  0 Multiplicity = 1

                         Standard orientation:
 ---------------------------------------------------------------------
 Center     Atomic      Atomic             Coordinates (Angstroms)
 Number     Number       Type             X           Y           Z
 ---------------------------------------------------------------------
      1          6           0       -2.398551    2.391533   -0.013087
      2          6           0       -3.766196    2.260704   -0.275676
      3          6           0       -4.352832    0.995342   -0.371934
      4          6           0       -3.538486   -0.122851   -0.199381
      5          6           0       -2.172919   -0.025199    0.063256
      6          6           0       -1.607672    1.250177    0.155244
      7          1           0       -1.951146    3.378386    0.060030
      8          1           0       -4.382842    3.145343   -0.406852
      9          1           0       -5.409013    0.865209   -0.574328
     10          1           0       -1.583917   -0.925536    0.189301
     11          1           0       -0.545268    1.348756    0.359268
     12          7           0       -4.148210   -1.467734   -0.299025
     13          8           0       -3.409072   -2.437257   -0.143022
     14          8           0       -5.353704   -1.526864   -0.531242
     15          6           0        4.831775    0.131524   -0.341132
     16          6           0        6.225115   -0.496786   -0.383773
     17          6           0        7.075735    0.029411   -1.540213
     18          1           0        4.319420   -0.063166   -1.293251
     19          1           0        4.931583    1.222580   -0.257281
     20          1           0        6.122702   -1.586440   -0.466125
     21          1           0        6.734142   -0.300741    0.568632
     22          1           0        7.207484    1.113258   -1.459477
     23          1           0        6.592572   -0.179746   -2.500113
     24          1           0        8.067657   -0.432991   -1.551800
     25          6           0        3.969495   -0.384456    0.809505
     26          6           0        2.576158    0.243854    0.852146
     27          6           0        1.725536   -0.282343    2.008587
     28          1           0        3.869689   -1.475512    0.725655
     29          1           0        4.481852   -0.189766    1.761625
     30          1           0        2.067130    0.047809   -0.100258
     31          1           0        2.678569    1.333509    0.934498
     32          1           0        2.208700   -0.073187    2.968486
     33          1           0        1.593787   -1.366191    1.927851
     34          1           0        0.733615    0.180059    2.020174
 ---------------------------------------------------------------------

 SCF Done:  E(RHF) =  -669.535518088     A.U. after   15 cycles
 E2 =    -0.2091369904D+01 EUMP2 =    -0.67162688799164D+03

 The electronic state is 1-A.
 Alpha  occ. eigenvalues --  -20.60735 -20.60730 -15.85788 -11.31149 -11.27728
 Alpha  occ. eigenvalues --  -11.27708 -11.27462 -11.26739 -11.26690 -11.22492
 Alpha  occ. eigenvalues --  -11.22002 -11.21973 -11.21948 -11.21856 -11.21380
 Alpha  occ. eigenvalues --   -1.59810  -1.39364  -1.19324  -1.09024  -1.08718
 Alpha  occ. eigenvalues --   -1.04730  -1.04144  -0.96580  -0.95554  -0.87592
 Alpha  occ. eigenvalues --   -0.86122  -0.82388  -0.80224  -0.78806  -0.77437
 Alpha  occ. eigenvalues --   -0.72007  -0.71133  -0.70432  -0.65646  -0.64977
 Alpha  occ. eigenvalues --   -0.64759  -0.62167  -0.61517  -0.59935  -0.58183
 Alpha  occ. eigenvalues --   -0.55833  -0.55223  -0.53354  -0.53098  -0.53022
 Alpha  occ. eigenvalues --   -0.52650  -0.50495  -0.48764  -0.48761  -0.48536
 Alpha  occ. eigenvalues --   -0.47249  -0.46349  -0.46247  -0.44771  -0.44387
 Alpha  occ. eigenvalues --   -0.37305  -0.36322
 Alpha virt. eigenvalues --    0.05084   0.11304   0.16498   0.19654   0.22591
 Alpha virt. eigenvalues --    0.23742   0.25956   0.26132   0.26939   0.28157
 Alpha virt. eigenvalues --    0.29559   0.29820   0.30918   0.31364   0.32094

 Mulliken charges:
               1
     1  C   -0.171583
     2  C   -0.218514
     3  C   -0.170923
     4  C    0.158562
     5  C   -0.172673
     6  C   -0.225404
     7  H    0.225838
     8  H    0.223251
     9  H    0.275513
    10  H    0.276440
    11  H    0.232801
    12  N    0.488145
    13  O   -0.460451
    14  O   -0.460639
    15  C   -0.298975
    16  C   -0.300292
    17  C   -0.476071
    18  H    0.150507
    19  H    0.148938
    20  H    0.153650
    21  H    0.152611
    22  H    0.154982
    23  H    0.155904
    24  H    0.161796
    25  C   -0.298647
    26  C   -0.303606
    27  C   -0.482232
    28  H    0.153152
    29  H    0.151871
    30  H    0.149538
    31  H    0.149914
    32  H    0.161030
    33  H    0.161667
    34  H    0.153899
 Sum of Mulliken charges =  -0.00000

 Dipole moment (field-independent basis, Debye):
    X=              2.3409    Y=              4.6847    Z=              0.3718  Tot=              5.2502
 Quadrupole moment (field-independent basis, Debye-Ang):
   XX=           -105.7298   YY=            -95.0461   ZZ=            -95.7442
   XY=            -19.4860   XZ=              0.1573   YZ=             -0.8248

 Normal termination of Gaussian 16 at Thu May  6 19:10:53 2021.
