 Gaussian 16, Revision A.03,
 Gaussian 16:  EM64L-G16RevA.03 25-Dec-2016

 -------------
 #p 6-31g* mp2
 -------------

 ------------------------------------------------------
 Input file generated by CHIRIPA (05-May-2021 14:55:25)
 ------------------------------------------------------
 Symbolic Z-matrix:
 Charge =  0 Multiplicity = 1

                         Standard orientation:
 ---------------------------------------------------------------------
 Center     Atomic      Atomic             Coordinates (Angstroms)
 Number     Number       Type             X           Y           Z
 ---------------------------------------------------------------------
      1          6           0       -2.360513    1.916469   -0.084362
      2          6           0       -3.716177    2.215764   -0.254998
      3          6           0       -4.675265    1.198682   -0.239397
      4          6           0       -4.241538   -0.112533   -0.049966
      5          6           0       -2.898230   -0.442613    0.122833
      6          6           0       -1.956578    0.590573    0.103678
      7          1           0       -1.622242    2.712817   -0.097862
      8          1           0       -4.032771    3.244565   -0.401225
      9          1           0       -5.731282    1.402253   -0.369036
     10          1           0       -2.613114   -1.477730    0.266569
     11          1           0       -0.904433    0.355188    0.236454
     12          7           0       -5.247653   -1.197796   -0.031568
     13          8           0       -4.839804   -2.344910    0.137035
     14          8           0       -6.425042   -0.880762   -0.186099
     15          6           0        4.490574   -0.273518   -0.074565
     16          6           0        3.481949    0.549595    0.727399
     17          6           0        2.033157    0.160620    0.431602
     18          1           0        4.287175   -0.147441   -1.146795
     19          1           0        4.343296   -1.339367    0.148305
     20          1           0        3.632001    1.613669    0.504134
     21          1           0        3.687894    0.421695    1.797840
     22          1           0        1.860550   -0.893462    0.671849
     23          1           0        1.804341    0.305284   -0.629207
     24          1           0        1.328946    0.761399    1.015564
     25          6           0        5.943265    0.103711    0.210239
     26          6           0        6.951891   -0.719403   -0.591723
     27          6           0        8.400682   -0.330428   -0.295928
     28          1           0        6.090543    1.169559   -0.012631
     29          1           0        6.146665   -0.022366    1.282470
     30          1           0        6.745946   -0.591503   -1.662164
     31          1           0        6.801839   -1.783477   -0.368460
     32          1           0        8.629499   -0.475092    0.764881
     33          1           0        8.573290    0.723654   -0.536175
     34          1           0        9.104894   -0.931207   -0.879888
 ---------------------------------------------------------------------

 SCF Done:  E(RHF) =  -669.535531077     A.U. after   15 cycles
 E2 =    -0.2090909372D+01 EUMP2 =    -0.67162644044913D+03

 The electronic state is 1-A.
 Alpha  occ. eigenvalues --  -20.60690 -20.60685 -15.85741 -11.31087 -11.27655
 Alpha  occ. eigenvalues --  -11.27629 -11.27382 -11.26676 -11.26571 -11.22495
 Alpha  occ. eigenvalues --  -11.22316 -11.22057 -11.22025 -11.21897 -11.21423
 Alpha  occ. eigenvalues --   -1.59766  -1.39320  -1.19251  -1.09079  -1.08652
 Alpha  occ. eigenvalues --   -1.04649  -1.04231  -0.96715  -0.95492  -0.87758
 Alpha  occ. eigenvalues --   -0.86043  -0.82322  -0.80316  -0.78842  -0.77370
 Alpha  occ. eigenvalues --   -0.71961  -0.71089  -0.70367  -0.65701  -0.64901
 Alpha  occ. eigenvalues --   -0.64675  -0.62035  -0.61616  -0.60092  -0.58287
 Alpha  occ. eigenvalues --   -0.55985  -0.55164  -0.53575  -0.53136  -0.52980
 Alpha  occ. eigenvalues --   -0.52573  -0.50638  -0.48718  -0.48715  -0.48617
 Alpha  occ. eigenvalues --   -0.47308  -0.46397  -0.46288  -0.44730  -0.44466
 Alpha  occ. eigenvalues --   -0.37238  -0.36250
 Alpha virt. eigenvalues --    0.05154   0.11375   0.16650   0.20639   0.22343
 Alpha virt. eigenvalues --    0.23758   0.25830   0.26049   0.26891   0.28118
 Alpha virt. eigenvalues --    0.28608   0.30358   0.30702   0.30991   0.31832

 Mulliken charges:
               1
     1  C   -0.174418
     2  C   -0.218376
     3  C   -0.171667
     4  C    0.159083
     5  C   -0.174046
     6  C   -0.229427
     7  H    0.225059
     8  H    0.222833
     9  H    0.275134
    10  H    0.275764
    11  H    0.242539
    12  N    0.488019
    13  O   -0.460620
    14  O   -0.460845
    15  C   -0.299535
    16  C   -0.299084
    17  C   -0.484404
    18  H    0.150572
    19  H    0.151469
    20  H    0.152967
    21  H    0.155447
    22  H    0.159572
    23  H    0.156472
    24  H    0.153482
    25  C   -0.298962
    26  C   -0.300152
    27  C   -0.476059
    28  H    0.149886
    29  H    0.150817
    30  H    0.152502
    31  H    0.153021
    32  H    0.155829
    33  H    0.155413
    34  H    0.161717
 Sum of Mulliken charges =  -0.00000

 Dipole moment (field-independent basis, Debye):
    X=              3.8388    Y=              3.7951    Z=             -0.0629  Tot=              5.3985
 Quadrupole moment (field-independent basis, Debye-Ang):
   XX=           -122.9047   YY=            -93.2951   ZZ=            -94.9736
   XY=            -19.8108   XZ=              0.6701   YZ=             -1.3425

 Normal termination of Gaussian 16 at Wed May  5 20:51:17 2021.
