 Gaussian 16, Revision A.03,
 Gaussian 16:  EM64L-G16RevA.03 25-Dec-2016

 -------------
 #p 6-31g* mp2
 -------------

 ------------------------------------------------------
 Input file generated by CHIRIPA (05-May-2021 14:57:25)
 ------------------------------------------------------
 Symbolic Z-matrix:
 Charge =  0 Multiplicity = 1

                         Standard orientation:
 ---------------------------------------------------------------------
 Center     Atomic      Atomic             Coordinates (Angstroms)
 Number     Number       Type             X           Y           Z
 ---------------------------------------------------------------------
      1          6           0        4.044363    2.479561    0.229587
      2          6           0        5.140430    1.657971   -0.053520
      3          6           0        4.963730    0.288205   -0.270468
      4          6           0        3.671282   -0.228881   -0.196370
      5          6           0        2.559240    0.563717    0.083702
      6          6           0        2.759532    1.930779    0.297175
      7          1           0        4.190791    3.542578    0.396768
      8          1           0        6.139388    2.081417   -0.106635
      9          1           0        5.794617   -0.370760   -0.491400
     10          1           0        1.575454    0.112681    0.130063
     11          1           0        1.906463    2.566435    0.516856
     12          7           0        3.471731   -1.677560   -0.424205
     13          8           0        2.322930   -2.108694   -0.353364
     14          8           0        4.467901   -2.354470   -0.669308
     15          6           0       -5.812241    0.683937   -1.041422
     16          6           0       -5.651580   -0.639131   -0.616922
     17          6           0       -4.487733   -1.034767    0.049023
     18          6           0       -3.500371   -0.076954    0.274856
     19          6           0       -3.630928    1.248792   -0.135805
     20          6           0       -4.803182    1.622022   -0.799935
     21          1           0       -6.719611    0.982573   -1.558039
     22          1           0       -6.433565   -1.369804   -0.803098
     23          1           0       -4.337312   -2.052388    0.388492
     24          1           0       -2.833874    1.954576    0.064175
     25          1           0       -4.925224    2.650231   -1.128473
     26          7           0       -2.263808   -0.483936    0.978901
     27          8           0       -1.408742    0.378967    1.165710
     28          8           0       -2.173071   -1.658125    1.330589
 ---------------------------------------------------------------------

 SCF Done:  E(RHF) =  -868.338926928     A.U. after   16 cycles
 E2 =    -0.2598863484D+01 EUMP2 =    -0.87093779041187D+03

 The electronic state is 1-A.
 Alpha  occ. eigenvalues --  -20.61125 -20.61029 -20.59843 -20.59798 -15.86111
 Alpha  occ. eigenvalues --  -15.84872 -11.31391 -11.30219 -11.27992 -11.27910
 Alpha  occ. eigenvalues --  -11.27673 -11.26967 -11.26917 -11.26891 -11.26647
 Alpha  occ. eigenvalues --  -11.26639 -11.25923 -11.25780  -1.60124  -1.58903
 Alpha  occ. eigenvalues --   -1.39688  -1.38452  -1.19552  -1.18423  -1.08961
 Alpha  occ. eigenvalues --   -1.07844  -1.04946  -1.03807  -0.95812  -0.94662
 Alpha  occ. eigenvalues --   -0.86348  -0.85221  -0.82654  -0.81480  -0.77712
 Alpha  occ. eigenvalues --   -0.76506  -0.72339  -0.71428  -0.71090  -0.70665
 Alpha  occ. eigenvalues --   -0.70230  -0.69541  -0.65212  -0.64950  -0.64075
 Alpha  occ. eigenvalues --   -0.63821  -0.62299  -0.61121  -0.55448  -0.54373
 Alpha  occ. eigenvalues --   -0.53273  -0.53041  -0.52174  -0.51894  -0.49103
 Alpha  occ. eigenvalues --   -0.49054  -0.47869  -0.47833  -0.45106  -0.43860
 Alpha  occ. eigenvalues --   -0.37522  -0.36543  -0.36459  -0.35417
 Alpha virt. eigenvalues --    0.04803   0.06001   0.11113   0.12222   0.16295
 Alpha virt. eigenvalues --    0.17465   0.21216   0.22344   0.27135   0.27858
 Alpha virt. eigenvalues --    0.28446   0.29285   0.30848   0.31842   0.32382

 Mulliken charges:
               1
     1  C   -0.171489
     2  C   -0.219720
     3  C   -0.171672
     4  C    0.156928
     5  C   -0.174678
     6  C   -0.221276
     7  H    0.221440
     8  H    0.219523
     9  H    0.272705
    10  H    0.293283
    11  H    0.224681
    12  N    0.487287
    13  O   -0.454805
    14  O   -0.465671
    15  C   -0.170370
    16  C   -0.218381
    17  C   -0.169707
    18  C    0.159078
    19  C   -0.170607
    20  C   -0.218261
    21  H    0.226374
    22  H    0.225004
    23  H    0.278201
    24  H    0.270968
    25  H    0.222921
    26  N    0.490181
    27  O   -0.472568
    28  O   -0.449369
 Sum of Mulliken charges =  -0.00000

 Dipole moment (field-independent basis, Debye):
    X=             -4.1388    Y=              6.3247    Z=             -1.6262  Tot=              7.7315
 Quadrupole moment (field-independent basis, Debye-Ang):
   XX=            -65.1373   YY=           -103.8193   ZZ=           -108.0831
   XY=             15.4189   XZ=              9.7586   YZ=             -1.1070

 Normal termination of Gaussian 16 at Thu May  6 16:22:25 2021.
