 Gaussian 16, Revision A.03,
 Gaussian 16:  EM64L-G16RevA.03 25-Dec-2016

 -------------
 #p 6-31g* mp2
 -------------

 ------------------------------------------------------
 Input file generated by CHIRIPA (05-May-2021 14:51:07)
 ------------------------------------------------------
 Symbolic Z-matrix:
 Charge =  0 Multiplicity = 1

                         Standard orientation:
 ---------------------------------------------------------------------
 Center     Atomic      Atomic             Coordinates (Angstroms)
 Number     Number       Type             X           Y           Z
 ---------------------------------------------------------------------
      1          6           0       -2.296640    1.447285   -0.292754
      2          6           0       -1.390843    2.376009    0.516560
      3          6           0       -1.229091    3.753089   -0.127865
      4          1           0       -1.884474    1.333967   -1.304793
      5          1           0       -3.283102    1.917438   -0.407840
      6          1           0       -0.406811    1.903632    0.631266
      7          1           0       -1.805109    2.486978    1.526849
      8          1           0       -2.200437    4.248179   -0.227733
      9          1           0       -0.794194    3.661519   -1.128405
     10          1           0       -0.577755    4.400799    0.467191
     11          6           0       -2.468103    0.066850    0.338694
     12          6           0       -3.373901   -0.861874   -0.470620
     13          6           0       -3.535652   -2.238953    0.173805
     14          1           0       -1.481642   -0.403303    0.453780
     15          1           0       -2.880269    0.180168    1.350733
     16          1           0       -2.959634   -0.972842   -1.480909
     17          1           0       -4.357932   -0.389497   -0.585326
     18          1           0       -3.970549   -2.147384    1.174345
     19          1           0       -2.564306   -2.734044    0.273673
     20          1           0       -4.186988   -2.886664   -0.421251
     21          6           0        2.990800   -0.297795    0.025163
     22          6           0        2.643845    1.184866   -0.113841
     23          6           0        3.871450    2.091008   -0.015414
     24          1           0        3.492917   -0.461584    0.988488
     25          1           0        3.714080   -0.572665   -0.755034
     26          1           0        1.920382    1.456529    0.665528
     27          1           0        2.142323    1.345112   -1.076864
     28          1           0        4.593397    1.848402   -0.801885
     29          1           0        4.370194    1.960452    0.950407
     30          1           0        3.600552    3.146504   -0.117414
     31          6           0        1.773944   -1.216340   -0.071103
     32          6           0        2.120898   -2.699001    0.067901
     33          6           0        0.893293   -3.605144   -0.030526
     34          1           0        1.050662   -0.941471    0.709095
     35          1           0        1.271825   -1.052551   -1.034427
     36          1           0        2.622419   -2.859247    1.030924
     37          1           0        2.844362   -2.970664   -0.711468
     38          1           0        0.394550   -3.474588   -0.996347
     39          1           0        0.171346   -3.362537    0.755945
     40          1           0        1.164191   -4.660639    0.071474
 ---------------------------------------------------------------------

 SCF Done:  E(RHF) =  -470.732981845     A.U. after   11 cycles
 E2 =    -0.1584726401D+01 EUMP2 =    -0.47231770824617D+03

 The electronic state is 1-A.
 Alpha  occ. eigenvalues --  -11.21698 -11.21675 -11.21526 -11.21508 -11.21487
 Alpha  occ. eigenvalues --  -11.21444 -11.21315 -11.21251 -11.21169 -11.21123
 Alpha  occ. eigenvalues --  -11.21017 -11.20983  -1.08539  -1.08339  -1.03627
 Alpha  occ. eigenvalues --   -1.03443  -0.96072  -0.95896  -0.87092  -0.86910
 Alpha  occ. eigenvalues --   -0.79748  -0.79463  -0.78469  -0.78063  -0.65214
 Alpha  occ. eigenvalues --   -0.64927  -0.61077  -0.60819  -0.59449  -0.59240
 Alpha  occ. eigenvalues --   -0.57745  -0.57468  -0.55378  -0.55163  -0.52759
 Alpha  occ. eigenvalues --   -0.52597  -0.52557  -0.52260  -0.50059  -0.49776
 Alpha  occ. eigenvalues --   -0.48238  -0.47692  -0.46862  -0.46509  -0.46290
 Alpha  occ. eigenvalues --   -0.45834  -0.45684  -0.44977  -0.43870  -0.43697
 Alpha virt. eigenvalues --    0.20433   0.22049   0.23626   0.24319   0.25461
 Alpha virt. eigenvalues --    0.26087   0.26398   0.27844   0.28694   0.29702
 Alpha virt. eigenvalues --    0.30986   0.31176   0.31538   0.31787   0.32153

 Mulliken charges:
               1
     1  C   -0.296929
     2  C   -0.308308
     3  C   -0.475091
     4  H    0.149038
     5  H    0.149084
     6  H    0.160541
     7  H    0.150901
     8  H    0.154984
     9  H    0.154956
    10  H    0.159543
    11  C   -0.305275
    12  C   -0.298718
    13  C   -0.479597
    14  H    0.156485
    15  H    0.148701
    16  H    0.151369
    17  H    0.151562
    18  H    0.154527
    19  H    0.159269
    20  H    0.159937
    21  C   -0.297650
    22  C   -0.305757
    23  C   -0.475262
    24  H    0.149896
    25  H    0.149931
    26  H    0.157995
    27  H    0.151781
    28  H    0.155310
    29  H    0.155280
    30  H    0.160907
    31  C   -0.303776
    32  C   -0.299525
    33  C   -0.479146
    34  H    0.154074
    35  H    0.149541
    36  H    0.152384
    37  H    0.152476
    38  H    0.155726
    39  H    0.157599
    40  H    0.161236
 Sum of Mulliken charges =  -0.00000

 Dipole moment (field-independent basis, Debye):
    X=              0.0952    Y=             -0.0348    Z=              0.0062  Tot=              0.1015
 Quadrupole moment (field-independent basis, Debye-Ang):
   XX=            -84.8692   YY=            -86.3473   ZZ=            -83.5943
   XY=             -1.1175   XZ=             -0.4871   YZ=              0.5449

 Normal termination of Gaussian 16 at Wed May  5 18:04:02 2021.
