 Gaussian 16, Revision A.03,
 Gaussian 16:  EM64L-G16RevA.03 25-Dec-2016

 -------------
 #p 6-31g* mp2
 -------------

 ------------------------------------------------------
 Input file generated by CHIRIPA (05-May-2021 14:51:08)
 ------------------------------------------------------
 Symbolic Z-matrix:
 Charge =  0 Multiplicity = 1

                         Standard orientation:
 ---------------------------------------------------------------------
 Center     Atomic      Atomic             Coordinates (Angstroms)
 Number     Number       Type             X           Y           Z
 ---------------------------------------------------------------------
      1          6           0        2.855098   -0.423887    0.416384
      2          6           0        4.169267    0.068593   -0.190583
      3          6           0        4.891630    1.077470    0.702810
      4          1           0        2.199510    0.437559    0.603629
      5          1           0        3.059413   -0.879748    1.395078
      6          1           0        3.962713    0.522148   -1.168458
      7          1           0        4.821727   -0.794145   -0.376582
      8          1           0        5.126394    0.632256    1.675060
      9          1           0        4.262498    1.956027    0.878685
     10          1           0        5.828518    1.416309    0.249721
     11          6           0        2.121302   -1.433026   -0.465041
     12          6           0        0.807133   -1.925505    0.141926
     13          6           0        0.084769   -2.934383   -0.751466
     14          1           0        1.916987   -0.977165   -1.443735
     15          1           0        2.776890   -2.294471   -0.652285
     16          1           0        0.154672   -1.062768    0.327925
     17          1           0        1.013687   -2.379061    1.119801
     18          1           0        0.713901   -3.812940   -0.927341
     19          1           0       -0.149995   -2.489169   -1.723717
     20          1           0       -0.852119   -3.273221   -0.298378
     21          6           0       -2.202009    1.594241    0.265696
     22          6           0       -1.362917    2.312530   -0.791645
     23          6           0       -0.797266    3.642948   -0.293831
     24          1           0       -3.025703    2.250319    0.578799
     25          1           0       -1.584516    1.420348    1.157805
     26          1           0       -1.981409    2.483781   -1.682013
     27          1           0       -0.541235    1.654591   -1.102406
     28          1           0       -0.157886    3.486497    0.580993
     29          1           0       -1.606242    4.320399   -0.001906
     30          1           0       -0.200799    4.139491   -1.065539
     31          6           0       -2.774390    0.262672   -0.217039
     32          6           0       -3.613483   -0.455616    0.840301
     33          6           0       -4.179133   -1.786036    0.342487
     34          1           0       -3.391884    0.436565   -1.109148
     35          1           0       -1.950695   -0.393405   -0.530143
     36          1           0       -4.435164    0.202322    1.151063
     37          1           0       -2.994991   -0.626868    1.730669
     38          1           0       -3.370158   -2.463486    0.050563
     39          1           0       -4.818514   -1.629584   -0.532336
     40          1           0       -4.775600   -2.282579    1.114195
 ---------------------------------------------------------------------

 SCF Done:  E(RHF) =  -470.733039032     A.U. after   11 cycles
 E2 =    -0.1584358285D+01 EUMP2 =    -0.47231739731668D+03

 The electronic state is 1-A.
 Alpha  occ. eigenvalues --  -11.21675 -11.21663 -11.21640 -11.21593 -11.21471
 Alpha  occ. eigenvalues --  -11.21419 -11.21411 -11.21331 -11.21165 -11.21126
 Alpha  occ. eigenvalues --  -11.21096 -11.21057  -1.08521  -1.08429  -1.03608
 Alpha  occ. eigenvalues --   -1.03541  -0.96048  -0.95999  -0.87063  -0.87013
 Alpha  occ. eigenvalues --   -0.79660  -0.79615  -0.78339  -0.78237  -0.65413
 Alpha  occ. eigenvalues --   -0.64853  -0.61081  -0.60890  -0.59441  -0.59325
 Alpha  occ. eigenvalues --   -0.57659  -0.57599  -0.55432  -0.55209  -0.52760
 Alpha  occ. eigenvalues --   -0.52693  -0.52494  -0.52377  -0.49992  -0.49940
 Alpha  occ. eigenvalues --   -0.47974  -0.47919  -0.46755  -0.46619  -0.46033
 Alpha  occ. eigenvalues --   -0.45803  -0.45752  -0.45461  -0.43842  -0.43801
 Alpha virt. eigenvalues --    0.18972   0.21881   0.23592   0.24720   0.26146
 Alpha virt. eigenvalues --    0.26385   0.26732   0.27717   0.28298   0.29802
 Alpha virt. eigenvalues --    0.30127   0.31536   0.31708   0.31912   0.32381

 Mulliken charges:
               1
     1  C   -0.299017
     2  C   -0.299653
     3  C   -0.475820
     4  H    0.149694
     5  H    0.149732
     6  H    0.152143
     7  H    0.152092
     8  H    0.155178
     9  H    0.155407
    10  H    0.160458
    11  C   -0.298049
    12  C   -0.306758
    13  C   -0.480055
    14  H    0.149593
    15  H    0.150163
    16  H    0.157254
    17  H    0.152474
    18  H    0.156182
    19  H    0.155912
    20  H    0.163416
    21  C   -0.299057
    22  C   -0.300799
    23  C   -0.475789
    24  H    0.150133
    25  H    0.149652
    26  H    0.152403
    27  H    0.151450
    28  H    0.154960
    29  H    0.155667
    30  H    0.160306
    31  C   -0.306118
    32  C   -0.299460
    33  C   -0.479691
    34  H    0.149671
    35  H    0.158162
    36  H    0.151994
    37  H    0.152070
    38  H    0.158621
    39  H    0.155311
    40  H    0.160167
 Sum of Mulliken charges =  -0.00000

 Dipole moment (field-independent basis, Debye):
    X=              0.0167    Y=             -0.0146    Z=             -0.0076  Tot=              0.0235
 Quadrupole moment (field-independent basis, Debye-Ang):
   XX=            -84.4467   YY=            -85.4005   ZZ=            -84.7959
   XY=             -1.7806   XZ=              0.0872   YZ=             -1.1111

 Normal termination of Gaussian 16 at Thu May  6 06:52:48 2021.
