 Gaussian 16, Revision A.03,
 Gaussian 16:  EM64L-G16RevA.03 25-Dec-2016

 -------------
 #p 6-31g* mp2
 -------------

 ------------------------------------------------------
 Input file generated by CHIRIPA (05-May-2021 14:53:15)
 ------------------------------------------------------
 Symbolic Z-matrix:
 Charge =  0 Multiplicity = 1

                         Standard orientation:
 ---------------------------------------------------------------------
 Center     Atomic      Atomic             Coordinates (Angstroms)
 Number     Number       Type             X           Y           Z
 ---------------------------------------------------------------------
      1          6           0        4.175564   -0.333076    0.283419
      2          6           0        5.407612   -1.106945   -0.186869
      3          6           0        5.400253   -2.565470    0.271873
      4          1           0        4.121353   -0.373793    1.379936
      5          1           0        3.271923   -0.832244   -0.092957
      6          1           0        6.308710   -0.605681    0.189126
      7          1           0        5.459001   -1.064219   -1.282383
      8          1           0        4.518652   -3.086602   -0.115170
      9          1           0        5.373189   -2.625459    1.364699
     10          1           0        6.289963   -3.100016   -0.075311
     11          6           0        4.168474    1.126550   -0.167322
     12          6           0        2.936426    1.900419    0.302966
     13          6           0        2.943785    3.358944   -0.155776
     14          1           0        5.072115    1.625719    0.209054
     15          1           0        4.222684    1.167267   -1.263839
     16          1           0        2.885036    1.857694    1.398480
     17          1           0        2.035328    1.399155   -0.073029
     18          1           0        2.970849    3.418933   -1.248602
     19          1           0        3.825385    3.880077    0.231267
     20          1           0        2.054075    3.893490    0.191408
     21          6           0       -0.980257   -1.359695   -0.309005
     22          6           0       -1.110138    0.032641   -0.276612
     23          6           0       -2.367993    0.625201   -0.130929
     24          6           0       -3.479728   -0.208465   -0.019861
     25          6           0       -3.382828   -1.598816   -0.048611
     26          6           0       -2.115016   -2.169552   -0.195102
     27          1           0        0.000743   -1.811533   -0.422489
     28          1           0       -0.230613    0.664065   -0.364847
     29          1           0       -2.497223    1.700340   -0.102741
     30          1           0       -4.277957   -2.202146    0.041701
     31          1           0       -2.017155   -3.251150   -0.219933
     32          7           0       -4.816633    0.407299    0.134795
     33          8           0       -5.780561   -0.349201    0.230656
     34          8           0       -4.875258    1.634774    0.157224
 ---------------------------------------------------------------------

 SCF Done:  E(RHF) =  -669.535504935     A.U. after   15 cycles
 E2 =    -0.2091191047D+01 EUMP2 =    -0.67162669598275D+03

 The electronic state is 1-A.
 Alpha  occ. eigenvalues --  -20.60734 -20.60728 -15.85787 -11.31148 -11.27718
 Alpha  occ. eigenvalues --  -11.27710 -11.27460 -11.26735 -11.26704 -11.22658
 Alpha  occ. eigenvalues --  -11.22380 -11.22320 -11.22252 -11.21887 -11.21795
 Alpha  occ. eigenvalues --   -1.59809  -1.39363  -1.19320  -1.09330  -1.08716
 Alpha  occ. eigenvalues --   -1.04723  -1.04387  -0.96810  -0.95552  -0.87824
 Alpha  occ. eigenvalues --   -0.86125  -0.82385  -0.80463  -0.79154  -0.77431
 Alpha  occ. eigenvalues --   -0.72005  -0.71132  -0.70431  -0.65986  -0.64972
 Alpha  occ. eigenvalues --   -0.64732  -0.62133  -0.61730  -0.60180  -0.58429
 Alpha  occ. eigenvalues --   -0.56095  -0.55225  -0.53494  -0.53234  -0.53052
 Alpha  occ. eigenvalues --   -0.52832  -0.50746  -0.48819  -0.48760  -0.48708
 Alpha  occ. eigenvalues --   -0.47492  -0.46685  -0.46604  -0.44769  -0.44645
 Alpha  occ. eigenvalues --   -0.37302  -0.36324
 Alpha virt. eigenvalues --    0.05103   0.11322   0.16596   0.18760   0.22585
 Alpha virt. eigenvalues --    0.23117   0.24905   0.26222   0.26444   0.27635
 Alpha virt. eigenvalues --    0.29371   0.30033   0.30887   0.31212   0.31844

 Mulliken charges:
               1
     1  C   -0.296893
     2  C   -0.300441
     3  C   -0.475627
     4  H    0.152322
     5  H    0.139858
     6  H    0.154968
     7  H    0.153089
     8  H    0.151875
     9  H    0.156679
    10  H    0.163215
    11  C   -0.298404
    12  C   -0.305554
    13  C   -0.476368
    14  H    0.153938
    15  H    0.151136
    16  H    0.156262
    17  H    0.143143
    18  H    0.156743
    19  H    0.159642
    20  H    0.161411
    21  C   -0.174367
    22  C   -0.226135
    23  C   -0.173276
    24  C    0.159018
    25  C   -0.171243
    26  C   -0.218597
    27  H    0.225971
    28  H    0.235811
    29  H    0.276140
    30  H    0.275441
    31  H    0.223328
    32  N    0.487982
    33  O   -0.460617
    34  O   -0.460452
 Sum of Mulliken charges =  -0.00000

 Dipole moment (field-independent basis, Debye):
    X=              4.9687    Y=             -2.0962    Z=             -0.5062  Tot=              5.4165
 Quadrupole moment (field-independent basis, Debye-Ang):
   XX=           -125.8522   YY=            -90.5198   ZZ=            -94.9304
   XY=              9.3279   XZ=              2.2436   YZ=              0.5118

 Normal termination of Gaussian 16 at Thu May  6 15:31:37 2021.
