 Gaussian 16, Revision A.03,
 Gaussian 16:  EM64L-G16RevA.03 25-Dec-2016

 -------------
 #p 6-31g* mp2
 -------------

 ------------------------------------------------------
 Input file generated by CHIRIPA (05-May-2021 14:57:26)
 ------------------------------------------------------
 Symbolic Z-matrix:
 Charge =  0 Multiplicity = 1

                         Standard orientation:
 ---------------------------------------------------------------------
 Center     Atomic      Atomic             Coordinates (Angstroms)
 Number     Number       Type             X           Y           Z
 ---------------------------------------------------------------------
      1          6           0       -4.423500   -2.193045   -0.399510
      2          6           0       -5.012612   -1.217362    0.411361
      3          6           0       -4.460858    0.064508    0.494578
      4          6           0       -3.314381    0.337524   -0.249963
      5          6           0       -2.704225   -0.613132   -1.066818
      6          6           0       -3.273214   -1.888353   -1.134716
      7          1           0       -4.858810   -3.186250   -0.458205
      8          1           0       -5.905978   -1.451164    0.983444
      9          1           0       -4.896450    0.838767    1.114417
     10          1           0       -1.814082   -0.350288   -1.625368
     11          1           0       -2.813556   -2.644097   -1.765278
     12          7           0       -2.721140    1.691063   -0.169974
     13          8           0       -1.710747    1.906450   -0.835819
     14          8           0       -3.277785    2.510951    0.557053
     15          6           0        1.210810   -0.092857    1.495843
     16          6           0        2.010182   -1.240595    1.510702
     17          6           0        3.231783   -1.263870    0.831220
     18          6           0        3.624971   -0.116531    0.143973
     19          6           0        2.850777    1.042256    0.110432
     20          6           0        1.632914    1.042903    0.796987
     21          1           0        0.263293   -0.083564    2.026429
     22          1           0        1.684902   -2.124098    2.052607
     23          1           0        3.870256   -2.138940    0.826191
     24          1           0        3.201702    1.907622   -0.438576
     25          1           0        1.014167    1.935664    0.783715
     26          7           0        4.916247   -0.129195   -0.579109
     27          8           0        5.240131    0.894573   -1.177134
     28          8           0        5.580015   -1.162649   -0.534142
 ---------------------------------------------------------------------

 SCF Done:  E(RHF) =  -868.339441192     A.U. after   16 cycles
 E2 =    -0.2599103492D+01 EUMP2 =    -0.87093854468381D+03

 The electronic state is 1-A.
 Alpha  occ. eigenvalues --  -20.61746 -20.61732 -20.60431 -20.60416 -15.86767
 Alpha  occ. eigenvalues --  -15.85472 -11.31957 -11.30753 -11.28501 -11.28477
 Alpha  occ. eigenvalues --  -11.28194 -11.27462 -11.27439 -11.27334 -11.27188
 Alpha  occ. eigenvalues --  -11.26997 -11.26386 -11.26094  -1.60818  -1.59504
 Alpha  occ. eigenvalues --   -1.40369  -1.39059  -1.20112  -1.18895  -1.09538
 Alpha  occ. eigenvalues --   -1.08310  -1.05473  -1.04258  -0.96398  -0.95166
 Alpha  occ. eigenvalues --   -0.86877  -0.85658  -0.83225  -0.81981  -0.78298
 Alpha  occ. eigenvalues --   -0.77040  -0.72982  -0.72150  -0.71691  -0.71194
 Alpha  occ. eigenvalues --   -0.70826  -0.70013  -0.65754  -0.65457  -0.64535
 Alpha  occ. eigenvalues --   -0.64218  -0.62809  -0.61584  -0.55970  -0.54788
 Alpha  occ. eigenvalues --   -0.53830  -0.53547  -0.52628  -0.52317  -0.49752
 Alpha  occ. eigenvalues --   -0.49732  -0.48454  -0.48440  -0.45801  -0.44483
 Alpha  occ. eigenvalues --   -0.38090  -0.37089  -0.36878  -0.35852
 Alpha virt. eigenvalues --    0.04179   0.05449   0.10576   0.11785   0.15711
 Alpha virt. eigenvalues --    0.16983   0.20803   0.21955   0.26739   0.27629
 Alpha virt. eigenvalues --    0.28048   0.28630   0.30423   0.31559   0.31903

 Mulliken charges:
               1
     1  C   -0.170465
     2  C   -0.218967
     3  C   -0.171789
     4  C    0.154445
     5  C   -0.171973
     6  C   -0.219360
     7  H    0.228157
     8  H    0.225567
     9  H    0.276413
    10  H    0.278644
    11  H    0.226670
    12  N    0.486260
    13  O   -0.463212
    14  O   -0.458328
    15  C   -0.175344
    16  C   -0.219648
    17  C   -0.173818
    18  C    0.158098
    19  C   -0.173342
    20  C   -0.216920
    21  H    0.223134
    22  H    0.219291
    23  H    0.272746
    24  H    0.277140
    25  H    0.241439
    26  N    0.487949
    27  O   -0.459831
    28  O   -0.462956
 Sum of Mulliken charges =  -0.00000

 Dipole moment (field-independent basis, Debye):
    X=             -6.9390    Y=             -4.6140    Z=              2.1876  Tot=              8.6153
 Quadrupole moment (field-independent basis, Debye-Ang):
   XX=           -122.3320   YY=           -103.6305   ZZ=           -102.7435
   XY=             14.7385   XZ=              7.6307   YZ=              0.4804

 Normal termination of Gaussian 16 at Thu May  6 11:27:36 2021.
