 Gaussian 16, Revision A.03,
 Gaussian 16:  EM64L-G16RevA.03 25-Dec-2016

 -------------
 #p 6-31g* mp2
 -------------

 ------------------------------------------------------
 Input file generated by CHIRIPA (05-May-2021 14:53:13)
 ------------------------------------------------------
 Symbolic Z-matrix:
 Charge =  0 Multiplicity = 1

                         Standard orientation:
 ---------------------------------------------------------------------
 Center     Atomic      Atomic             Coordinates (Angstroms)
 Number     Number       Type             X           Y           Z
 ---------------------------------------------------------------------
      1          6           0       -2.667067    1.136664    0.088853
      2          6           0       -1.982968    1.543220    1.394497
      3          6           0       -0.861189    2.560273    1.182343
      4          1           0       -1.916591    0.719337   -0.596398
      5          1           0       -3.071832    2.033814   -0.399699
      6          1           0       -1.580820    0.645398    1.881126
      7          1           0       -2.735193    1.959452    2.076791
      8          1           0       -1.250754    3.472406    0.718820
      9          1           0       -0.089822    2.150886    0.522043
     10          1           0       -0.385869    2.836936    2.128592
     11          6           0       -3.790733    0.120400    0.284581
     12          6           0       -4.474832   -0.286156   -1.021063
     13          6           0       -5.596611   -1.303209   -0.808909
     14          1           0       -3.385968   -0.776750    0.773133
     15          1           0       -4.541209    0.537727    0.969831
     16          1           0       -3.722607   -0.702388   -1.703357
     17          1           0       -4.876980    0.611666   -1.507692
     18          1           0       -6.367978   -0.893822   -0.148609
     19          1           0       -5.207046   -2.215342   -0.345386
     20          1           0       -6.071931   -1.579872   -1.755158
     21          6           0        0.879948   -2.239939    0.634542
     22          6           0        0.477197   -1.258685   -0.277300
     23          6           0        1.378847   -0.284731   -0.716605
     24          6           0        2.681382   -0.321963   -0.221320
     25          6           0        3.112822   -1.286645    0.687822
     26          6           0        2.194158   -2.250768    1.113348
     27          1           0        0.172917   -2.992711    0.970453
     28          1           0       -0.542803   -1.247830   -0.650833
     29          1           0        1.093671    0.486363   -1.421946
     30          1           0        4.136280   -1.271696    1.042405
     31          1           0        2.509730   -3.011623    1.821555
     32          7           0        3.644923    0.703914   -0.679099
     33          8           0        4.786826    0.649355   -0.227746
     34          8           0        3.240000    1.543130   -1.480592
 ---------------------------------------------------------------------

 SCF Done:  E(RHF) =  -669.535027506     A.U. after   15 cycles
 E2 =    -0.2093434306D+01 EUMP2 =    -0.67162846181168D+03

 The electronic state is 1-A.
 Alpha  occ. eigenvalues --  -20.60803 -20.60797 -15.85857 -11.31258 -11.27829
 Alpha  occ. eigenvalues --  -11.27819 -11.27569 -11.26844 -11.26833 -11.22331
 Alpha  occ. eigenvalues --  -11.22148 -11.22086 -11.22013 -11.21706 -11.21248
 Alpha  occ. eigenvalues --   -1.59876  -1.39429  -1.19434  -1.09098  -1.08815
 Alpha  occ. eigenvalues --   -1.04848  -1.04064  -0.96516  -0.95648  -0.87526
 Alpha  occ. eigenvalues --   -0.86234  -0.82487  -0.80140  -0.78921  -0.77522
 Alpha  occ. eigenvalues --   -0.72074  -0.71200  -0.70540  -0.65875  -0.65082
 Alpha  occ. eigenvalues --   -0.64771  -0.62214  -0.61433  -0.59886  -0.58124
 Alpha  occ. eigenvalues --   -0.55840  -0.55332  -0.53166  -0.53159  -0.53032
 Alpha  occ. eigenvalues --   -0.52796  -0.50450  -0.48837  -0.48827  -0.48441
 Alpha  occ. eigenvalues --   -0.47193  -0.46436  -0.46380  -0.44825  -0.44358
 Alpha  occ. eigenvalues --   -0.37401  -0.36402
 Alpha virt. eigenvalues --    0.04977   0.11090   0.16374   0.18974   0.22839
 Alpha virt. eigenvalues --    0.23723   0.24978   0.26178   0.26725   0.28601
 Alpha virt. eigenvalues --    0.29114   0.31011   0.31290   0.31559   0.31969

 Mulliken charges:
               1
     1  C   -0.299540
     2  C   -0.300137
     3  C   -0.478021
     4  H    0.138930
     5  H    0.154756
     6  H    0.150600
     7  H    0.153687
     8  H    0.157093
     9  H    0.157250
    10  H    0.163008
    11  C   -0.299193
    12  C   -0.299726
    13  C   -0.475554
    14  H    0.143279
    15  H    0.154238
    16  H    0.146283
    17  H    0.156076
    18  H    0.157684
    19  H    0.152867
    20  H    0.162608
    21  C   -0.172282
    22  C   -0.219526
    23  C   -0.172438
    24  C    0.158714
    25  C   -0.170820
    26  C   -0.218066
    27  H    0.225954
    28  H    0.228285
    29  H    0.276166
    30  H    0.275974
    31  H    0.223818
    32  N    0.488425
    33  O   -0.460120
    34  O   -0.460271
 Sum of Mulliken charges =  -0.00000

 Dipole moment (field-independent basis, Debye):
    X=             -3.4362    Y=             -3.5416    Z=              1.6622  Tot=              5.2071
 Quadrupole moment (field-independent basis, Debye-Ang):
   XX=           -110.3726   YY=            -91.8771   ZZ=            -94.3491
   XY=            -11.7016   XZ=              7.3993   YZ=             -1.0045

 Normal termination of Gaussian 16 at Thu May  6 01:00:17 2021.
