 Gaussian 16, Revision A.03,
 Gaussian 16:  EM64L-G16RevA.03 25-Dec-2016

 -------------
 #p 6-31g* mp2
 -------------

 ------------------------------------------------------
 Input file generated by CHIRIPA (05-May-2021 14:57:22)
 ------------------------------------------------------
 Symbolic Z-matrix:
 Charge =  0 Multiplicity = 1

                         Standard orientation:
 ---------------------------------------------------------------------
 Center     Atomic      Atomic             Coordinates (Angstroms)
 Number     Number       Type             X           Y           Z
 ---------------------------------------------------------------------
      1          6           0       -2.749907    2.328628    0.944154
      2          6           0       -2.230633    2.131382   -0.339578
      3          6           0       -2.130342    0.843734   -0.874791
      4          6           0       -2.560652   -0.228777   -0.095148
      5          6           0       -3.082477   -0.064640    1.187056
      6          6           0       -3.173426    1.231921    1.702038
      7          1           0       -2.824187    3.332365    1.352063
      8          1           0       -1.900950    2.981234   -0.930430
      9          1           0       -1.732271    0.662458   -1.865799
     10          1           0       -3.402985   -0.931466    1.752126
     11          1           0       -3.577114    1.382110    2.699296
     12          7           0       -2.459424   -1.596670   -0.651045
     13          8           0       -2.845396   -2.524963    0.056016
     14          8           0       -1.996025   -1.714631   -1.783293
     15          6           0        2.679596   -2.425274    0.679797
     16          6           0        1.550546   -1.929434    0.019563
     17          6           0        1.482978   -0.585541   -0.359830
     18          6           0        2.567449    0.238121   -0.061849
     19          6           0        3.706149   -0.226117    0.594759
     20          6           0        3.751904   -1.573535    0.964786
     21          1           0        2.723611   -3.470611    0.970880
     22          1           0        0.716289   -2.588598   -0.203062
     23          1           0        0.621082   -0.175401   -0.872020
     24          1           0        4.522084    0.455282    0.802999
     25          1           0        4.630015   -1.955857    1.477421
     26          7           0        2.507465    1.662705   -0.458538
     27          8           0        3.476135    2.367828   -0.184465
     28          8           0        1.492914    2.047196   -1.036024
 ---------------------------------------------------------------------

 SCF Done:  E(RHF) =  -868.340750436     A.U. after   16 cycles
 E2 =    -0.2601542860D+01 EUMP2 =    -0.87094229329615D+03

 The electronic state is 1-A.
 Alpha  occ. eigenvalues --  -20.61446 -20.61438 -20.60904 -20.60875 -15.86441
 Alpha  occ. eigenvalues --  -15.85926 -11.31365 -11.30963 -11.27859 -11.27768
 Alpha  occ. eigenvalues --  -11.27525 -11.27424 -11.27406 -11.27145 -11.26801
 Alpha  occ. eigenvalues --  -11.26616 -11.26486 -11.26285  -1.60526  -1.59959
 Alpha  occ. eigenvalues --   -1.40082  -1.39526  -1.19470  -1.19097  -1.08942
 Alpha  occ. eigenvalues --   -1.08550  -1.04766  -1.04436  -0.95852  -0.95445
 Alpha  occ. eigenvalues --   -0.86209  -0.85842  -0.82685  -0.82280  -0.77814
 Alpha  occ. eigenvalues --   -0.77359  -0.72650  -0.72180  -0.71865  -0.71265
 Alpha  occ. eigenvalues --   -0.70561  -0.70184  -0.65096  -0.64756  -0.64736
 Alpha  occ. eigenvalues --   -0.64398  -0.62146  -0.61734  -0.55277  -0.54952
 Alpha  occ. eigenvalues --   -0.53226  -0.52832  -0.52795  -0.52408  -0.49448
 Alpha  occ. eigenvalues --   -0.49375  -0.48930  -0.48876  -0.45559  -0.45003
 Alpha  occ. eigenvalues --   -0.37437  -0.37063  -0.36313  -0.35998
 Alpha virt. eigenvalues --    0.04614   0.05116   0.11124   0.11665   0.16239
 Alpha virt. eigenvalues --    0.16728   0.21217   0.22103   0.26648   0.27722
 Alpha virt. eigenvalues --    0.28338   0.29101   0.31242   0.31304   0.31929

 Mulliken charges:
               1
     1  C   -0.171463
     2  C   -0.208261
     3  C   -0.181319
     4  C    0.157017
     5  C   -0.172405
     6  C   -0.217795
     7  H    0.228838
     8  H    0.236549
     9  H    0.277353
    10  H    0.273508
    11  H    0.223707
    12  N    0.485412
    13  O   -0.459880
    14  O   -0.465420
    15  C   -0.170617
    16  C   -0.226925
    17  C   -0.173705
    18  C    0.155684
    19  C   -0.171486
    20  C   -0.219242
    21  H    0.227488
    22  H    0.240051
    23  H    0.278886
    24  H    0.273435
    25  H    0.222248
    26  N    0.488859
    27  O   -0.460325
    28  O   -0.470191
 Sum of Mulliken charges =  -0.00000

 Dipole moment (field-independent basis, Debye):
    X=             -0.3026    Y=             -0.0466    Z=              3.3853  Tot=              3.3991
 Quadrupole moment (field-independent basis, Debye-Ang):
   XX=            -97.9667   YY=           -108.9021   ZZ=           -102.0129
   XY=            -24.6400   XZ=             -1.2767   YZ=             -1.7813

 Normal termination of Gaussian 16 at Thu May  6 17:57:22 2021.
