 Gaussian 16, Revision A.03,
 Gaussian 16:  EM64L-G16RevA.03 25-Dec-2016

 -------------
 #p 6-31g* mp2
 -------------

 ------------------------------------------------------
 Input file generated by CHIRIPA (05-May-2021 14:55:24)
 ------------------------------------------------------
 Symbolic Z-matrix:
 Charge =  0 Multiplicity = 1

                         Standard orientation:
 ---------------------------------------------------------------------
 Center     Atomic      Atomic             Coordinates (Angstroms)
 Number     Number       Type             X           Y           Z
 ---------------------------------------------------------------------
      1          6           0       -0.767088   -0.439876    0.048630
      2          6           0       -1.469557   -0.569079   -1.154019
      3          6           0       -2.864971   -0.485541   -1.173717
      4          6           0       -3.528896   -0.271163    0.033154
      5          6           0       -2.857331   -0.138367    1.247508
      6          6           0       -1.461992   -0.225311    1.243449
      7          1           0        0.316875   -0.506093    0.054705
      8          1           0       -0.932514   -0.735768   -2.083451
      9          1           0       -3.433790   -0.581976   -2.090539
     10          1           0       -3.420384    0.027211    2.157987
     11          1           0       -0.919064   -0.124594    2.178933
     12          7           0       -5.006119   -0.180923    0.024876
     13          8           0       -5.567649    0.008439    1.101659
     14          8           0       -5.574465   -0.301264   -1.058239
     15          6           0        3.633217    0.684140   -0.437834
     16          6           0        2.900160    1.780110    0.336416
     17          6           0        1.758238    2.406734   -0.464303
     18          1           0        4.027185    1.105466   -1.372830
     19          1           0        2.914358   -0.095752   -0.724898
     20          1           0        3.620445    2.557027    0.623132
     21          1           0        2.508057    1.356172    1.269769
     22          1           0        1.017994    1.647976   -0.738025
     23          1           0        2.136702    2.855654   -1.388336
     24          1           0        1.247903    3.187664    0.108031
     25          6           0        4.777488    0.048112    0.349467
     26          6           0        5.510545   -1.047858   -0.424782
     27          6           0        6.652467   -1.674482    0.375937
     28          1           0        5.496348    0.828004    0.636532
     29          1           0        4.383520   -0.373214    1.284464
     30          1           0        5.902648   -0.623919   -1.358135
     31          1           0        4.790260   -1.824775   -0.711498
     32          1           0        6.274003   -2.123402    1.299970
     33          1           0        7.392712   -0.915724    0.649658
     34          1           0        7.162802   -2.455412   -0.196397
 ---------------------------------------------------------------------

 SCF Done:  E(RHF) =  -669.534753742     A.U. after   15 cycles
 E2 =    -0.2092406905D+01 EUMP2 =    -0.67162716064688D+03

 The electronic state is 1-A.
 Alpha  occ. eigenvalues --  -20.60770 -20.60765 -15.85825 -11.31202 -11.27778
 Alpha  occ. eigenvalues --  -11.27774 -11.27506 -11.26796 -11.26784 -11.22598
 Alpha  occ. eigenvalues --  -11.22453 -11.22347 -11.22231 -11.21888 -11.21684
 Alpha  occ. eigenvalues --   -1.59845  -1.39398  -1.19383  -1.09355  -1.08779
 Alpha  occ. eigenvalues --   -1.04784  -1.04373  -0.96811  -0.95611  -0.87817
 Alpha  occ. eigenvalues --   -0.86183  -0.82444  -0.80435  -0.79162  -0.77479
 Alpha  occ. eigenvalues --   -0.72043  -0.71169  -0.70557  -0.65998  -0.65035
 Alpha  occ. eigenvalues --   -0.64784  -0.62130  -0.61787  -0.60175  -0.58419
 Alpha  occ. eigenvalues --   -0.56189  -0.55233  -0.53467  -0.53300  -0.53025
 Alpha  occ. eigenvalues --   -0.52876  -0.50744  -0.48808  -0.48797  -0.48728
 Alpha  occ. eigenvalues --   -0.47490  -0.46682  -0.46632  -0.44801  -0.44636
 Alpha  occ. eigenvalues --   -0.37313  -0.36388
 Alpha virt. eigenvalues --    0.05020   0.11214   0.16410   0.18738   0.22714
 Alpha virt. eigenvalues --    0.23932   0.25264   0.25936   0.27185   0.27620
 Alpha virt. eigenvalues --    0.29361   0.30554   0.30960   0.31092   0.32026

 Mulliken charges:
               1
     1  C   -0.172406
     2  C   -0.220599
     3  C   -0.170285
     4  C    0.158497
     5  C   -0.170647
     6  C   -0.220926
     7  H    0.232543
     8  H    0.224047
     9  H    0.275836
    10  H    0.275715
    11  H    0.223726
    12  N    0.488040
    13  O   -0.460374
    14  O   -0.460327
    15  C   -0.300107
    16  C   -0.302027
    17  C   -0.479255
    18  H    0.154415
    19  H    0.139868
    20  H    0.157698
    21  H    0.145950
    22  H    0.151997
    23  H    0.158137
    24  H    0.164809
    25  C   -0.298236
    26  C   -0.300032
    27  C   -0.476153
    28  H    0.153072
    29  H    0.148285
    30  H    0.153728
    31  H    0.150349
    32  H    0.155497
    33  H    0.156797
    34  H    0.162369
 Sum of Mulliken charges =  -0.00000

 Dipole moment (field-independent basis, Debye):
    X=              5.3550    Y=             -0.2551    Z=              0.0252  Tot=              5.3611
 Quadrupole moment (field-independent basis, Debye-Ang):
   XX=           -131.4872   YY=            -94.8937   ZZ=            -89.9082
   XY=              0.7997   XZ=             -0.5787   YZ=              0.7705

 Normal termination of Gaussian 16 at Wed May  5 20:46:55 2021.
