 Gaussian 16, Revision A.03,
 Gaussian 16:  EM64L-G16RevA.03 25-Dec-2016

 -------------
 #p 6-31g* mp2
 -------------

 ------------------------------------------------------
 Input file generated by CHIRIPA (05-May-2021 14:51:10)
 ------------------------------------------------------
 Symbolic Z-matrix:
 Charge =  0 Multiplicity = 1

                         Standard orientation:
 ---------------------------------------------------------------------
 Center     Atomic      Atomic             Coordinates (Angstroms)
 Number     Number       Type             X           Y           Z
 ---------------------------------------------------------------------
      1          6           0        2.812436   -0.225833   -0.548628
      2          6           0        2.078185   -1.514449   -0.920553
      3          6           0        2.883833   -2.400622   -1.871039
      4          1           0        3.045195    0.333599   -1.465036
      5          1           0        3.775470   -0.481440   -0.085351
      6          1           0        1.116212   -1.256501   -1.381733
      7          1           0        1.846978   -2.070785   -0.003138
      8          1           0        3.837454   -2.686735   -1.415685
      9          1           0        3.102536   -1.867825   -2.802112
     10          1           0        2.340297   -3.316340   -2.123802
     11          6           0        2.019767    0.670581    0.401028
     12          6           0        2.754017    1.959197    0.772954
     13          6           0        1.948370    2.845370    1.723440
     14          1           0        1.056733    0.926188   -0.062248
     15          1           0        1.787008    0.111150    1.317437
     16          1           0        2.985225    2.515533   -0.144461
     17          1           0        3.715990    1.701249    1.234134
     18          1           0        1.729667    2.312573    2.654513
     19          1           0        0.994749    3.131483    1.268086
     20          1           0        2.491905    3.761088    1.976203
     21          6           0       -2.267185    0.494569   -0.143569
     22          6           0       -3.225167    1.014436   -1.215946
     23          6           0       -2.914437    2.450066   -1.640457
     24          1           0       -2.313962    1.155779    0.732534
     25          1           0       -1.237546    0.550974   -0.523118
     26          1           0       -4.252814    0.955774   -0.835005
     27          1           0       -3.176245    0.351804   -2.089526
     28          1           0       -1.899767    2.520982   -2.045448
     29          1           0       -2.982452    3.128384   -0.783801
     30          1           0       -3.611297    2.801595   -2.407707
     31          6           0       -2.565018   -0.939317    0.291169
     32          6           0       -1.607036   -1.459185    1.363546
     33          6           0       -1.917766   -2.894814    1.788056
     34          1           0       -3.594657   -0.995723    0.670717
     35          1           0       -2.518241   -1.600527   -0.584935
     36          1           0       -1.655957   -0.796552    2.237124
     37          1           0       -0.579389   -1.400523    0.982605
     38          1           0       -1.849750   -3.573132    0.931400
     39          1           0       -2.932436   -2.965730    2.193047
     40          1           0       -1.220905   -3.246342    2.555306
 ---------------------------------------------------------------------

 SCF Done:  E(RHF) =  -470.732797683     A.U. after   11 cycles
 E2 =    -0.1584717755D+01 EUMP2 =    -0.47231751543730D+03

 The electronic state is 1-A.
 Alpha  occ. eigenvalues --  -11.21694 -11.21607 -11.21601 -11.21476 -11.21435
 Alpha  occ. eigenvalues --  -11.21372 -11.21347 -11.21310 -11.21137 -11.21104
 Alpha  occ. eigenvalues --  -11.21052 -11.21020  -1.08496  -1.08378  -1.03569
 Alpha  occ. eigenvalues --   -1.03497  -0.96012  -0.95957  -0.87029  -0.86972
 Alpha  occ. eigenvalues --   -0.79661  -0.79543  -0.78532  -0.77987  -0.65191
 Alpha  occ. eigenvalues --   -0.64960  -0.60964  -0.60904  -0.59391  -0.59311
 Alpha  occ. eigenvalues --   -0.57646  -0.57553  -0.55343  -0.55210  -0.52722
 Alpha  occ. eigenvalues --   -0.52645  -0.52452  -0.52370  -0.49994  -0.49872
 Alpha  occ. eigenvalues --   -0.48030  -0.47842  -0.46729  -0.46643  -0.46510
 Alpha  occ. eigenvalues --   -0.45721  -0.45634  -0.44914  -0.43813  -0.43747
 Alpha virt. eigenvalues --    0.20518   0.23008   0.23548   0.24479   0.24701
 Alpha virt. eigenvalues --    0.26169   0.27001   0.27884   0.28074   0.30663
 Alpha virt. eigenvalues --    0.31239   0.31324   0.31707   0.31874   0.31966

 Mulliken charges:
               1
     1  C   -0.297617
     2  C   -0.303570
     3  C   -0.475494
     4  H    0.149391
     5  H    0.149699
     6  H    0.152240
     7  H    0.154035
     8  H    0.155651
     9  H    0.155359
    10  H    0.160407
    11  C   -0.307486
    12  C   -0.299065
    13  C   -0.475905
    14  H    0.157422
    15  H    0.151335
    16  H    0.151645
    17  H    0.151772
    18  H    0.155175
    19  H    0.155941
    20  H    0.160081
    21  C   -0.306409
    22  C   -0.298923
    23  C   -0.475686
    24  H    0.149764
    25  H    0.156437
    26  H    0.152182
    27  H    0.151623
    28  H    0.153994
    29  H    0.155308
    30  H    0.160529
    31  C   -0.297334
    32  C   -0.308300
    33  C   -0.475436
    34  H    0.149269
    35  H    0.149001
    36  H    0.151073
    37  H    0.162720
    38  H    0.154918
    39  H    0.154886
    40  H    0.159367
 Sum of Mulliken charges =  -0.00000

 Dipole moment (field-independent basis, Debye):
    X=              0.0381    Y=              0.0053    Z=             -0.0027  Tot=              0.0386
 Quadrupole moment (field-independent basis, Debye-Ang):
   XX=            -84.4857   YY=            -86.1121   ZZ=            -84.2830
   XY=             -0.2745   XZ=              0.2540   YZ=             -0.1609

 Normal termination of Gaussian 16 at Wed May  5 16:41:43 2021.
