 Gaussian 16, Revision A.03,
 Gaussian 16:  EM64L-G16RevA.03 25-Dec-2016

 -------------
 #p 6-31g* mp2
 -------------

 ------------------------------------------------------
 Input file generated by CHIRIPA (05-May-2021 14:57:24)
 ------------------------------------------------------
 Symbolic Z-matrix:
 Charge =  0 Multiplicity = 1

                         Standard orientation:
 ---------------------------------------------------------------------
 Center     Atomic      Atomic             Coordinates (Angstroms)
 Number     Number       Type             X           Y           Z
 ---------------------------------------------------------------------
      1          6           0        4.666339    1.840646    0.853224
      2          6           0        3.311607    1.663500    1.152956
      3          6           0        2.632515    0.520235    0.721299
      4          6           0        3.342243   -0.429959   -0.011304
      5          6           0        4.692247   -0.282188   -0.325859
      6          6           0        5.351128    0.868950    0.116072
      7          1           0        5.186024    2.731820    1.192536
      8          1           0        2.777251    2.416473    1.725267
      9          1           0        1.583946    0.357748    0.939290
     10          1           0        5.198161   -1.050264   -0.898160
     11          1           0        6.403255    1.003868   -0.118176
     12          7           0        2.634017   -1.644450   -0.473719
     13          8           0        3.281879   -2.466819   -1.117630
     14          8           0        1.444457   -1.751003   -0.183493
     15          6           0       -2.494114    2.375462   -0.976555
     16          6           0       -3.848912    2.306437   -0.635558
     17          6           0       -4.394295    1.122771   -0.129555
     18          6           0       -3.552246    0.022361    0.023227
     19          6           0       -2.198530    0.059808   -0.307441
     20          6           0       -1.674692    1.253905   -0.811700
     21          1           0       -2.078816    3.299013   -1.368953
     22          1           0       -4.487657    3.175878   -0.762527
     23          1           0       -5.439696    1.041695    0.142442
     24          1           0       -1.586784   -0.823487   -0.169697
     25          1           0       -0.622177    1.304613   -1.075683
     26          7           0       -4.118215   -1.236254    0.557987
     27          8           0       -3.355273   -2.191707    0.683152
     28          8           0       -5.314046   -1.243472    0.841840
 ---------------------------------------------------------------------

 SCF Done:  E(RHF) =  -868.338364897     A.U. after   16 cycles
 E2 =    -0.2599593675D+01 EUMP2 =    -0.87093795857234D+03

 The electronic state is 1-A.
 Alpha  occ. eigenvalues --  -20.61408 -20.61363 -20.60289 -20.60251 -15.86436
 Alpha  occ. eigenvalues --  -15.85328 -11.31785 -11.30771 -11.28378 -11.28302
 Alpha  occ. eigenvalues --  -11.28049 -11.27436 -11.27364 -11.27315 -11.27245
 Alpha  occ. eigenvalues --  -11.27231 -11.26473 -11.26420  -1.60446  -1.59352
 Alpha  occ. eigenvalues --   -1.40006  -1.38898  -1.19944  -1.18990  -1.09335
 Alpha  occ. eigenvalues --   -1.08389  -1.05344  -1.04395  -0.96175  -0.95189
 Alpha  occ. eigenvalues --   -0.86740  -0.85798  -0.83010  -0.82012  -0.78073
 Alpha  occ. eigenvalues --   -0.77018  -0.72649  -0.71768  -0.71542  -0.71042
 Alpha  occ. eigenvalues --   -0.70682  -0.70096  -0.65595  -0.65338  -0.64641
 Alpha  occ. eigenvalues --   -0.64408  -0.62697  -0.61694  -0.55825  -0.54943
 Alpha  occ. eigenvalues --   -0.53675  -0.53431  -0.52748  -0.52473  -0.49409
 Alpha  occ. eigenvalues --   -0.49383  -0.48324  -0.48282  -0.45411  -0.44285
 Alpha  occ. eigenvalues --   -0.37913  -0.37027  -0.36950  -0.36016
 Alpha virt. eigenvalues --    0.04439   0.05480   0.10652   0.11627   0.15959
 Alpha virt. eigenvalues --    0.16872   0.20331   0.21869   0.25755   0.27162
 Alpha virt. eigenvalues --    0.28277   0.28922   0.30780   0.31041   0.32347

 Mulliken charges:
               1
     1  C   -0.170700
     2  C   -0.218868
     3  C   -0.176272
     4  C    0.159131
     5  C   -0.170479
     6  C   -0.218041
     7  H    0.227329
     8  H    0.224462
     9  H    0.273224
    10  H    0.277552
    11  H    0.225660
    12  N    0.491640
    13  O   -0.454729
    14  O   -0.467990
    15  C   -0.171346
    16  C   -0.219597
    17  C   -0.170653
    18  C    0.157709
    19  C   -0.178128
    20  C   -0.225460
    21  H    0.222171
    22  H    0.221355
    23  H    0.274637
    24  H    0.296557
    25  H    0.221674
    26  N    0.487177
    27  O   -0.454376
    28  O   -0.463636
 Sum of Mulliken charges =  -0.00000

 Dipole moment (field-independent basis, Debye):
    X=              4.8027    Y=              8.5065    Z=             -0.2511  Tot=              9.7719
 Quadrupole moment (field-independent basis, Debye-Ang):
   XX=            -94.4349   YY=           -107.9254   ZZ=           -105.5304
   XY=             -5.8867   XZ=              9.7799   YZ=              0.5061

 Normal termination of Gaussian 16 at Fri May  7 06:29:41 2021.
