 Gaussian 16, Revision A.03,
 Gaussian 16:  EM64L-G16RevA.03 25-Dec-2016

 -------------
 #p 6-31g* mp2
 -------------

 ------------------------------------------------------
 Input file generated by CHIRIPA (05-May-2021 14:57:22)
 ------------------------------------------------------
 Symbolic Z-matrix:
 Charge =  0 Multiplicity = 1

                         Standard orientation:
 ---------------------------------------------------------------------
 Center     Atomic      Atomic             Coordinates (Angstroms)
 Number     Number       Type             X           Y           Z
 ---------------------------------------------------------------------
      1          6           0        3.864215   -2.368872    0.644428
      2          6           0        4.560566   -1.838059   -0.446377
      3          6           0        4.322106   -0.527704   -0.871413
      4          6           0        3.376162    0.227126   -0.179521
      5          6           0        2.666220   -0.273355    0.910795
      6          6           0        2.920928   -1.586205    1.318344
      7          1           0        4.055767   -3.387756    0.967814
      8          1           0        5.293701   -2.443579   -0.971641
      9          1           0        4.846946   -0.091724   -1.712770
     10          1           0        1.941361    0.354583    1.414473
     11          1           0        2.378639   -1.995816    2.165803
     12          7           0        3.115115    1.615660   -0.620232
     13          8           0        2.276700    2.260130    0.006152
     14          8           0        3.753864    2.033233   -1.583699
     15          6           0       -1.622739    1.275675    1.338042
     16          6           0       -2.834083    1.900733    1.024243
     17          6           0       -3.836531    1.204551    0.342353
     18          6           0       -3.592860   -0.121439   -0.012136
     19          6           0       -2.396524   -0.771847    0.286261
     20          6           0       -1.408205   -0.056272    0.968701
     21          1           0       -0.849500    1.824018    1.867965
     22          1           0       -3.003461    2.935043    1.309831
     23          1           0       -4.783628    1.664056    0.086848
     24          1           0       -2.256844   -1.803931   -0.011577
     25          1           0       -0.468435   -0.544258    1.211084
     26          7           0       -4.646629   -0.868721   -0.734314
     27          8           0       -4.407331   -2.036047   -1.035517
     28          8           0       -5.691918   -0.272965   -0.985479
 ---------------------------------------------------------------------

 SCF Done:  E(RHF) =  -868.337552544     A.U. after   16 cycles
 E2 =    -0.2600198746D+01 EUMP2 =    -0.87093775128985D+03

 The electronic state is 1-A.
 Alpha  occ. eigenvalues --  -20.61576 -20.61544 -20.60660 -20.60649 -15.86618
 Alpha  occ. eigenvalues --  -15.85712 -11.32028 -11.31030 -11.28706 -11.28525
 Alpha  occ. eigenvalues --  -11.28277 -11.27668 -11.27666 -11.27589 -11.27529
 Alpha  occ. eigenvalues --  -11.27315 -11.26691 -11.26541  -1.60627  -1.59733
 Alpha  occ. eigenvalues --   -1.40185  -1.39289  -1.20191  -1.19210  -1.09557
 Alpha  occ. eigenvalues --   -1.08602  -1.05619  -1.04625  -0.96399  -0.95441
 Alpha  occ. eigenvalues --   -0.86999  -0.86030  -0.83244  -0.82287  -0.78306
 Alpha  occ. eigenvalues --   -0.77353  -0.72841  -0.71946  -0.71931  -0.71293
 Alpha  occ. eigenvalues --   -0.71056  -0.70287  -0.65848  -0.65625  -0.64869
 Alpha  occ. eigenvalues --   -0.64679  -0.62975  -0.61963  -0.56060  -0.55082
 Alpha  occ. eigenvalues --   -0.53920  -0.53710  -0.52925  -0.52709  -0.49605
 Alpha  occ. eigenvalues --   -0.49576  -0.48689  -0.48686  -0.45580  -0.44705
 Alpha  occ. eigenvalues --   -0.38128  -0.37242  -0.37119  -0.36222
 Alpha virt. eigenvalues --    0.04215   0.05214   0.10390   0.11457   0.15636
 Alpha virt. eigenvalues --    0.16719   0.18901   0.22086   0.25300   0.26540
 Alpha virt. eigenvalues --    0.27675   0.29049   0.30447   0.31373   0.32235

 Mulliken charges:
               1
     1  C   -0.169716
     2  C   -0.217468
     3  C   -0.169532
     4  C    0.159967
     5  C   -0.173280
     6  C   -0.220793
     7  H    0.229184
     8  H    0.227337
     9  H    0.278640
    10  H    0.267333
    11  H    0.223074
    12  N    0.489100
    13  O   -0.465702
    14  O   -0.455480
    15  C   -0.166344
    16  C   -0.218447
    17  C   -0.170269
    18  C    0.158189
    19  C   -0.171508
    20  C   -0.219049
    21  H    0.231019
    22  H    0.225767
    23  H    0.275798
    24  H    0.273394
    25  H    0.212844
    26  N    0.488245
    27  O   -0.462177
    28  O   -0.460122
 Sum of Mulliken charges =  -0.00000

 Dipole moment (field-independent basis, Debye):
    X=              4.8974    Y=             -2.1915    Z=              3.9553  Tot=              6.6657
 Quadrupole moment (field-independent basis, Debye-Ang):
   XX=           -120.8670   YY=           -104.7743   ZZ=           -103.9875
   XY=            -30.3510   XZ=             -7.5019   YZ=              1.4942

 Normal termination of Gaussian 16 at Wed May  5 22:37:40 2021.
