 Gaussian 16, Revision A.03,
 Gaussian 16:  EM64L-G16RevA.03 25-Dec-2016

 -------------
 #p 6-31g* mp2
 -------------

 ------------------------------------------------------
 Input file generated by CHIRIPA (05-May-2021 14:57:26)
 ------------------------------------------------------
 Symbolic Z-matrix:
 Charge =  0 Multiplicity = 1

                         Standard orientation:
 ---------------------------------------------------------------------
 Center     Atomic      Atomic             Coordinates (Angstroms)
 Number     Number       Type             X           Y           Z
 ---------------------------------------------------------------------
      1          6           0       -0.656137   -0.053564   -1.241599
      2          6           0       -1.224806   -1.230339   -0.743264
      3          6           0       -2.498104   -1.214594   -0.166192
      4          6           0       -3.177678    0.000949   -0.103552
      5          6           0       -2.637944    1.190132   -0.591222
      6          6           0       -1.363274    1.150792   -1.164124
      7          1           0        0.333524   -0.074960   -1.688263
      8          1           0       -0.677943   -2.167103   -0.802086
      9          1           0       -2.962037   -2.110849    0.227397
     10          1           0       -3.207415    2.108729   -0.518404
     11          1           0       -0.924121    2.066239   -1.550320
     12          7           0       -4.526387    0.030107    0.505161
     13          8           0       -5.104551    1.113849    0.548375
     14          8           0       -4.979804   -1.031332    0.927531
     15          6           0        3.033033    2.517921    0.402316
     16          6           0        3.014552    1.725037    1.554495
     17          6           0        2.971564    0.331086    1.456504
     18          6           0        2.947888   -0.239194    0.184691
     19          6           0        2.965384    0.523745   -0.981889
     20          6           0        3.008433    1.915805   -0.859973
     21          1           0        3.066451    3.600041    0.487730
     22          1           0        3.033579    2.189907    2.536115
     23          1           0        2.956448   -0.306588    2.332039
     24          1           0        2.945605    0.031471   -1.946613
     25          1           0        3.022701    2.529069   -1.756494
     26          7           0        2.902346   -1.713907    0.068288
     27          8           0        2.882174   -2.191952   -1.063835
     28          8           0        2.887686   -2.363817    1.111380
 ---------------------------------------------------------------------

 SCF Done:  E(RHF) =  -868.337625264     A.U. after   16 cycles
 E2 =    -0.2602019913D+01 EUMP2 =    -0.87093964517647D+03

 The electronic state is 1-A.
 Alpha  occ. eigenvalues --  -20.61927 -20.61893 -20.60640 -20.60627 -15.86944
 Alpha  occ. eigenvalues --  -15.85687 -11.32253 -11.31003 -11.28872 -11.28740
 Alpha  occ. eigenvalues --  -11.28492 -11.27857 -11.27720 -11.27615 -11.27511
 Alpha  occ. eigenvalues --  -11.27229 -11.26637 -11.26432  -1.60986  -1.59713
 Alpha  occ. eigenvalues --   -1.40539  -1.39268  -1.20425  -1.19167  -1.09811
 Alpha  occ. eigenvalues --   -1.08569  -1.05821  -1.04557  -0.96663  -0.95416
 Alpha  occ. eigenvalues --   -0.87216  -0.85953  -0.83487  -0.82248  -0.78560
 Alpha  occ. eigenvalues --   -0.77300  -0.73152  -0.72347  -0.71904  -0.71535
 Alpha  occ. eigenvalues --   -0.71037  -0.70264  -0.66064  -0.65792  -0.64811
 Alpha  occ. eigenvalues --   -0.64545  -0.63160  -0.61897  -0.56286  -0.55300
 Alpha  occ. eigenvalues --   -0.53977  -0.53843  -0.52862  -0.52630  -0.49935
 Alpha  occ. eigenvalues --   -0.49901  -0.48665  -0.48658  -0.45944  -0.44684
 Alpha  occ. eigenvalues --   -0.38403  -0.37494  -0.36995  -0.36164
 Alpha virt. eigenvalues --    0.03914   0.05214   0.10118   0.11476   0.15452
 Alpha virt. eigenvalues --    0.16730   0.20132   0.21912   0.25984   0.26840
 Alpha virt. eigenvalues --    0.27628   0.28906   0.30103   0.30844   0.32454

 Mulliken charges:
               1
     1  C   -0.171299
     2  C   -0.225303
     3  C   -0.170663
     4  C    0.157917
     5  C   -0.172125
     6  C   -0.220168
     7  H    0.226939
     8  H    0.236305
     9  H    0.277057
    10  H    0.273169
    11  H    0.216825
    12  N    0.488001
    13  O   -0.462433
    14  O   -0.459628
    15  C   -0.169946
    16  C   -0.216398
    17  C   -0.168176
    18  C    0.164612
    19  C   -0.187979
    20  C   -0.219923
    21  H    0.229419
    22  H    0.228605
    23  H    0.279438
    24  H    0.273979
    25  H    0.224840
    26  N    0.486717
    27  O   -0.465600
    28  O   -0.454183
 Sum of Mulliken charges =  -0.00000

 Dipole moment (field-independent basis, Debye):
    X=              5.1776    Y=              5.0432    Z=             -1.4563  Tot=              7.3731
 Quadrupole moment (field-independent basis, Debye-Ang):
   XX=           -135.4495   YY=           -102.6296   ZZ=            -99.7501
   XY=             15.9840   XZ=              8.2954   YZ=             -0.3842

 Normal termination of Gaussian 16 at Thu May  6 06:46:48 2021.
