 Gaussian 16, Revision A.03,
 Gaussian 16:  EM64L-G16RevA.03 25-Dec-2016

 -------------
 #p 6-31g* mp2
 -------------

 ------------------------------------------------------
 Input file generated by CHIRIPA (05-May-2021 14:57:26)
 ------------------------------------------------------
 Symbolic Z-matrix:
 Charge =  0 Multiplicity = 1

                         Standard orientation:
 ---------------------------------------------------------------------
 Center     Atomic      Atomic             Coordinates (Angstroms)
 Number     Number       Type             X           Y           Z
 ---------------------------------------------------------------------
      1          6           0       -2.682629    2.232307    0.627457
      2          6           0       -2.439066    1.066539    1.361066
      3          6           0       -3.035105   -0.142749    0.991055
      4          6           0       -3.873027   -0.150140   -0.123002
      5          6           0       -4.135325    0.994516   -0.874170
      6          6           0       -3.528490    2.192645   -0.485857
      7          1           0       -2.215419    3.167377    0.921999
      8          1           0       -1.782606    1.094370    2.226127
      9          1           0       -2.863867   -1.060096    1.541118
     10          1           0       -4.794424    0.935464   -1.731794
     11          1           0       -3.719460    3.096439   -1.057461
     12          7           0       -4.509742   -1.424452   -0.524404
     13          8           0       -5.243978   -1.404531   -1.509867
     14          8           0       -4.262506   -2.419049    0.154041
     15          6           0        1.586492    0.208603    1.295586
     16          6           0        1.872357    1.024959    0.196329
     17          6           0        3.077983    0.885023   -0.497524
     18          6           0        3.978998   -0.085838   -0.062911
     19          6           0        3.723102   -0.914321    1.028613
     20          6           0        2.511147   -0.756730    1.707493
     21          1           0        0.647475    0.324166    1.828772
     22          1           0        1.156131    1.775489   -0.125803
     23          1           0        3.324806    1.503672   -1.351790
     24          1           0        4.456799   -1.653641    1.326126
     25          1           0        2.291815   -1.392122    2.560848
     26          7           0        5.258690   -0.243327   -0.789537
     27          8           0        6.035831   -1.106125   -0.386712
     28          8           0        5.460340    0.499013   -1.748132
 ---------------------------------------------------------------------

 SCF Done:  E(RHF) =  -868.336691703     A.U. after   16 cycles
 E2 =    -0.2600173104D+01 EUMP2 =    -0.87093686480701D+03

 The electronic state is 1-A.
 Alpha  occ. eigenvalues --  -20.61451 -20.61442 -20.61024 -20.61018 -15.86512
 Alpha  occ. eigenvalues --  -15.86081 -11.32076 -11.31535 -11.28743 -11.28644
 Alpha  occ. eigenvalues --  -11.28513 -11.28119 -11.28096 -11.27954 -11.27868
 Alpha  occ. eigenvalues --  -11.27681 -11.27195 -11.27162  -1.60520  -1.60097
 Alpha  occ. eigenvalues --   -1.40068  -1.39648  -1.20291  -1.19724  -1.09654
 Alpha  occ. eigenvalues --   -1.09120  -1.05734  -1.05138  -0.96445  -0.95940
 Alpha  occ. eigenvalues --   -0.87126  -0.86541  -0.83287  -0.82763  -0.78290
 Alpha  occ. eigenvalues --   -0.77779  -0.72727  -0.72298  -0.71846  -0.71420
 Alpha  occ. eigenvalues --   -0.71397  -0.70910  -0.65948  -0.65768  -0.65384
 Alpha  occ. eigenvalues --   -0.65148  -0.63076  -0.62482  -0.56254  -0.55727
 Alpha  occ. eigenvalues --   -0.54028  -0.53805  -0.53459  -0.53239  -0.49502
 Alpha  occ. eigenvalues --   -0.49468  -0.49065  -0.49046  -0.45430  -0.45033
 Alpha  occ. eigenvalues --   -0.38295  -0.37750  -0.37310  -0.36729
 Alpha virt. eigenvalues --    0.04245   0.04760   0.10190   0.10920   0.15567
 Alpha virt. eigenvalues --    0.16230   0.18632   0.21931   0.24751   0.26452
 Alpha virt. eigenvalues --    0.27678   0.28778   0.29624   0.31470   0.32231

 Mulliken charges:
               1
     1  C   -0.174154
     2  C   -0.224225
     3  C   -0.168886
     4  C    0.159493
     5  C   -0.168619
     6  C   -0.218443
     7  H    0.226423
     8  H    0.217586
     9  H    0.276280
    10  H    0.279240
    11  H    0.226892
    12  N    0.488135
    13  O   -0.457293
    14  O   -0.458948
    15  C   -0.170005
    16  C   -0.218502
    17  C   -0.170326
    18  C    0.159139
    19  C   -0.169889
    20  C   -0.218693
    21  H    0.217763
    22  H    0.220201
    23  H    0.276143
    24  H    0.277241
    25  H    0.224255
    26  N    0.488002
    27  O   -0.459005
    28  O   -0.459805
 Sum of Mulliken charges =  -0.00000

 Dipole moment (field-independent basis, Debye):
    X=             -2.4215    Y=              4.9733    Z=              3.7953  Tot=              6.7084
 Quadrupole moment (field-independent basis, Debye-Ang):
   XX=           -156.4881   YY=           -103.1806   ZZ=           -101.5412
   XY=            -17.7154   XZ=              8.0156   YZ=             -5.9708

 Normal termination of Gaussian 16 at Wed May  5 16:28:04 2021.
