 Gaussian 16, Revision A.03,
 Gaussian 16:  EM64L-G16RevA.03 25-Dec-2016

 -------------
 #p 6-31g* mp2
 -------------

 ------------------------------------------------------
 Input file generated by CHIRIPA (05-May-2021 14:51:08)
 ------------------------------------------------------
 Symbolic Z-matrix:
 Charge =  0 Multiplicity = 1

                         Standard orientation:
 ---------------------------------------------------------------------
 Center     Atomic      Atomic             Coordinates (Angstroms)
 Number     Number       Type             X           Y           Z
 ---------------------------------------------------------------------
      1          6           0        2.474761    0.975204   -0.376059
      2          6           0        2.232209    2.057572    0.676383
      3          6           0        1.012320    2.924328    0.362697
      4          1           0        2.603421    1.450115   -1.358328
      5          1           0        1.581596    0.339542   -0.450791
      6          1           0        3.126085    2.690161    0.750093
      7          1           0        2.104301    1.580043    1.656291
      8          1           0        0.107217    2.310702    0.309270
      9          1           0        1.134807    3.427128   -0.602078
     10          1           0        0.857443    3.691449    1.127810
     11          6           0        3.690838    0.100514   -0.076391
     12          6           0        3.933390   -0.981854   -1.128833
     13          6           0        5.153279   -1.848609   -0.815147
     14          1           0        4.584003    0.736177   -0.001660
     15          1           0        3.562178   -0.374396    0.905877
     16          1           0        4.061297   -0.504324   -2.108742
     17          1           0        3.039514   -1.614442   -1.202543
     18          1           0        5.030792   -2.351409    0.149627
     19          1           0        6.058381   -1.234983   -0.761720
     20          1           0        5.308156   -2.615730   -1.580261
     21          6           0       -3.814549   -0.662878    0.046380
     22          6           0       -4.387192    0.374447   -0.920070
     23          6           0       -5.851978    0.110842   -1.270367
     24          1           0       -3.912464   -1.662582   -0.398536
     25          1           0       -4.416855   -0.669397    0.965390
     26          1           0       -3.783150    0.379982   -1.836431
     27          1           0       -4.287729    1.371818   -0.472884
     28          1           0       -6.472457    0.125728   -0.368489
     29          1           0       -5.965011   -0.871743   -1.739784
     30          1           0       -6.241126    0.864208   -1.962366
     31          6           0       -2.351050   -0.412842    0.406071
     32          6           0       -1.778407   -1.450165    1.372520
     33          6           0       -0.313621   -1.186560    1.722818
     34          1           0       -1.748744   -0.406323   -0.512939
     35          1           0       -2.253136    0.586863    0.850986
     36          1           0       -1.877870   -2.447536    0.925334
     37          1           0       -2.382449   -1.455700    2.288882
     38          1           0       -0.200588   -0.203975    2.192235
     39          1           0        0.306858   -1.201447    0.820940
     40          1           0        0.075528   -1.939926    2.414816
 ---------------------------------------------------------------------

 SCF Done:  E(RHF) =  -470.733148586     A.U. after   11 cycles
 E2 =    -0.1583811659D+01 EUMP2 =    -0.47231696024404D+03

 The electronic state is 1-A.
 Alpha  occ. eigenvalues --  -11.21686 -11.21626 -11.21579 -11.21518 -11.21478
 Alpha  occ. eigenvalues --  -11.21409 -11.21330 -11.21259 -11.21164 -11.21089
 Alpha  occ. eigenvalues --  -11.21047 -11.20991  -1.08499  -1.08364  -1.03597
 Alpha  occ. eigenvalues --   -1.03467  -0.96049  -0.95919  -0.87075  -0.86928
 Alpha  occ. eigenvalues --   -0.79665  -0.79534  -0.78332  -0.78161  -0.65145
 Alpha  occ. eigenvalues --   -0.65002  -0.61002  -0.60879  -0.59410  -0.59283
 Alpha  occ. eigenvalues --   -0.57671  -0.57514  -0.55445  -0.55115  -0.52734
 Alpha  occ. eigenvalues --   -0.52622  -0.52509  -0.52310  -0.50017  -0.49838
 Alpha  occ. eigenvalues --   -0.48072  -0.47793  -0.46752  -0.46550  -0.45995
 Alpha  occ. eigenvalues --   -0.45784  -0.45670  -0.45371  -0.43846  -0.43725
 Alpha virt. eigenvalues --    0.20092   0.22858   0.23423   0.24603   0.25606
 Alpha virt. eigenvalues --    0.26233   0.26392   0.27656   0.28537   0.29489
 Alpha virt. eigenvalues --    0.30648   0.31050   0.31707   0.31962   0.32203

 Mulliken charges:
               1
     1  C   -0.302389
     2  C   -0.300061
     3  C   -0.479845
     4  H    0.149101
     5  H    0.154034
     6  H    0.151499
     7  H    0.153295
     8  H    0.159082
     9  H    0.154901
    10  H    0.159359
    11  C   -0.299020
    12  C   -0.299667
    13  C   -0.475655
    14  H    0.149398
    15  H    0.150831
    16  H    0.151866
    17  H    0.150905
    18  H    0.155357
    19  H    0.155199
    20  H    0.160013
    21  C   -0.298308
    22  C   -0.299839
    23  C   -0.475769
    24  H    0.149880
    25  H    0.149793
    26  H    0.152215
    27  H    0.152293
    28  H    0.155213
    29  H    0.155189
    30  H    0.160483
    31  C   -0.301291
    32  C   -0.299666
    33  C   -0.482512
    34  H    0.149926
    35  H    0.151706
    36  H    0.152248
    37  H    0.152365
    38  H    0.157468
    39  H    0.159792
    40  H    0.160610
 Sum of Mulliken charges =  -0.00000

 Dipole moment (field-independent basis, Debye):
    X=             -0.0466    Y=             -0.0248    Z=              0.0171  Tot=              0.0555
 Quadrupole moment (field-independent basis, Debye-Ang):
   XX=            -86.1680   YY=            -84.6311   ZZ=            -83.9933
   XY=              0.7321   XZ=             -0.9612   YZ=              0.1442

 Normal termination of Gaussian 16 at Thu May  6 03:40:30 2021.
