 Gaussian 16, Revision A.03,
 Gaussian 16:  EM64L-G16RevA.03 25-Dec-2016

 -------------
 #p 6-31g* mp2
 -------------

 ------------------------------------------------------
 Input file generated by CHIRIPA (05-May-2021 14:53:16)
 ------------------------------------------------------
 Symbolic Z-matrix:
 Charge =  0 Multiplicity = 1

                         Standard orientation:
 ---------------------------------------------------------------------
 Center     Atomic      Atomic             Coordinates (Angstroms)
 Number     Number       Type             X           Y           Z
 ---------------------------------------------------------------------
      1          6           0        3.863257    0.458478   -0.078035
      2          6           0        5.086134    0.242790   -0.970243
      3          6           0        5.488412    1.503170   -1.736669
      4          1           0        3.021128    0.797578   -0.696724
      5          1           0        4.075134    1.269089    0.632890
      6          1           0        4.872514   -0.568105   -1.678361
      7          1           0        5.925396   -0.096020   -0.349387
      8          1           0        5.728117    2.315704   -1.043176
      9          1           0        4.669252    1.840936   -2.379702
     10          1           0        6.364699    1.326507   -2.368153
     11          6           0        3.448869   -0.792510    0.694648
     12          6           0        2.225992   -0.576822    1.586856
     13          6           0        1.823713   -1.837202    2.353281
     14          1           0        3.236992   -1.603121   -0.016277
     15          1           0        4.290997   -1.131610    1.313337
     16          1           0        1.386730   -0.238012    0.965999
     17          1           0        2.439612    0.234074    2.294974
     18          1           0        2.642873   -2.174968    2.996315
     19          1           0        1.584009   -2.649736    1.659789
     20          1           0        0.947427   -1.660539    2.984766
     21          6           0       -2.637456   -2.149561   -1.298900
     22          6           0       -3.902074   -1.579045   -1.120642
     23          6           0       -4.035261   -0.316324   -0.535541
     24          6           0       -2.877456    0.350907   -0.138577
     25          6           0       -1.603598   -0.190978   -0.302694
     26          6           0       -1.494269   -1.454931   -0.890079
     27          1           0       -2.543260   -3.130951   -1.754307
     28          1           0       -4.791628   -2.116207   -1.437180
     29          1           0       -5.002031    0.148761   -0.385640
     30          1           0       -0.735187    0.368704    0.022939
     31          1           0       -0.510866   -1.895545   -1.027269
     32          7           0       -3.005826    1.688346    0.482051
     33          8           0       -1.970314    2.255733    0.823257
     34          8           0       -4.139524    2.143918    0.615541
 ---------------------------------------------------------------------

 SCF Done:  E(RHF) =  -669.535379117     A.U. after   15 cycles
 E2 =    -0.2091549832D+01 EUMP2 =    -0.67162692894897D+03

 The electronic state is 1-A.
 Alpha  occ. eigenvalues --  -20.60756 -20.60751 -15.85808 -11.31177 -11.27752
 Alpha  occ. eigenvalues --  -11.27736 -11.27500 -11.26774 -11.26764 -11.22134
 Alpha  occ. eigenvalues --  -11.21869 -11.21844 -11.21689 -11.21541 -11.21235
 Alpha  occ. eigenvalues --   -1.59831  -1.39384  -1.19355  -1.08825  -1.08750
 Alpha  occ. eigenvalues --   -1.04763  -1.03897  -0.96330  -0.95584  -0.87345
 Alpha  occ. eigenvalues --   -0.86159  -0.82417  -0.79969  -0.78624  -0.77460
 Alpha  occ. eigenvalues --   -0.72028  -0.71154  -0.70476  -0.65488  -0.65005
 Alpha  occ. eigenvalues --   -0.64768  -0.62178  -0.61248  -0.59691  -0.57931
 Alpha  occ. eigenvalues --   -0.55630  -0.55261  -0.53087  -0.53017  -0.52867
 Alpha  occ. eigenvalues --   -0.52738  -0.50279  -0.48787  -0.48783  -0.48264
 Alpha  occ. eigenvalues --   -0.47016  -0.46156  -0.46089  -0.44788  -0.44147
 Alpha  occ. eigenvalues --   -0.37337  -0.36359
 Alpha virt. eigenvalues --    0.05063   0.11280   0.16528   0.19187   0.22901
 Alpha virt. eigenvalues --    0.23852   0.24960   0.26264   0.27652   0.28132
 Alpha virt. eigenvalues --    0.29286   0.30116   0.31411   0.31554   0.32510

 Mulliken charges:
               1
     1  C   -0.298255
     2  C   -0.299767
     3  C   -0.475997
     4  H    0.147523
     5  H    0.153890
     6  H    0.149946
     7  H    0.152847
     8  H    0.157218
     9  H    0.155847
    10  H    0.160671
    11  C   -0.298068
    12  C   -0.303673
    13  C   -0.475796
    14  H    0.144111
    15  H    0.152586
    16  H    0.144367
    17  H    0.160323
    18  H    0.158343
    19  H    0.149045
    20  H    0.164928
    21  C   -0.170772
    22  C   -0.218755
    23  C   -0.170485
    24  C    0.160457
    25  C   -0.179359
    26  C   -0.220531
    27  H    0.225579
    28  H    0.223489
    29  H    0.275615
    30  H    0.284159
    31  H    0.223505
    32  N    0.487539
    33  O   -0.460018
    34  O   -0.460512
 Sum of Mulliken charges =  -0.00000

 Dipole moment (field-independent basis, Debye):
    X=              0.5638    Y=             -4.6560    Z=             -2.0913  Tot=              5.1352
 Quadrupole moment (field-independent basis, Debye-Ang):
   XX=            -91.6130   YY=            -99.3954   ZZ=            -94.4154
   XY=             14.2473   XZ=              7.8795   YZ=              0.6992

 Normal termination of Gaussian 16 at Thu May  6 17:13:45 2021.
