 Gaussian 16, Revision A.03,
 Gaussian 16:  EM64L-G16RevA.03 25-Dec-2016

 -------------
 #p 6-31g* mp2
 -------------

 ------------------------------------------------------
 Input file generated by CHIRIPA (05-May-2021 14:51:09)
 ------------------------------------------------------
 Symbolic Z-matrix:
 Charge =  0 Multiplicity = 1

                         Standard orientation:
 ---------------------------------------------------------------------
 Center     Atomic      Atomic             Coordinates (Angstroms)
 Number     Number       Type             X           Y           Z
 ---------------------------------------------------------------------
      1          6           0       -4.217069   -0.592733   -0.341762
      2          6           0       -5.094742   -1.536114    0.481469
      3          6           0       -5.441138   -2.824209   -0.265937
      4          1           0       -4.733581   -0.346578   -1.279615
      5          1           0       -3.291947   -1.115117   -0.622224
      6          1           0       -6.017322   -1.011651    0.761467
      7          1           0       -4.576164   -1.779900    1.417557
      8          1           0       -4.531226   -3.371880   -0.531868
      9          1           0       -5.980573   -2.599266   -1.191686
     10          1           0       -6.069100   -3.483980    0.340878
     11          6           0       -3.862297    0.699374    0.391943
     12          6           0       -2.984624    1.642755   -0.431288
     13          6           0       -2.638228    2.930850    0.316118
     14          1           0       -4.787419    1.221758    0.672405
     15          1           0       -3.345785    0.453219    1.329796
     16          1           0       -3.503202    1.886541   -1.367376
     17          1           0       -2.062043    1.118292   -0.711286
     18          1           0       -2.098792    2.705907    1.241867
     19          1           0       -3.548140    3.478521    0.582048
     20          1           0       -2.010265    3.590621   -0.290697
     21          6           0        4.583271   -0.455295    0.330381
     22          6           0        5.921132   -0.453015   -0.409962
     23          6           0        6.998534   -1.261396    0.313583
     24          1           0        4.730159   -0.050946    1.341257
     25          1           0        4.242906   -1.492599    0.455063
     26          1           0        6.258196    0.584054   -0.534431
     27          1           0        5.771006   -0.857239   -1.419260
     28          1           0        6.687444   -2.305173    0.424731
     29          1           0        7.177402   -0.855691    1.314588
     30          1           0        7.946634   -1.246328   -0.232989
     31          6           0        3.496095    0.348654   -0.380562
     32          6           0        2.158234    0.346374    0.359782
     33          6           0        1.080831    1.154755   -0.363763
     34          1           0        3.836460    1.385959   -0.505244
     35          1           0        3.349207   -0.055695   -1.391439
     36          1           0        2.308359    0.750598    1.369079
     37          1           0        1.821170   -0.690695    0.484250
     38          1           0        0.901964    0.749051   -1.364769
     39          1           0        1.391922    2.198532   -0.474912
     40          1           0        0.132732    1.139687    0.182808
 ---------------------------------------------------------------------

 SCF Done:  E(RHF) =  -470.733038105     A.U. after   11 cycles
 E2 =    -0.1582699027D+01 EUMP2 =    -0.47231573713189D+03

 The electronic state is 1-A.
 Alpha  occ. eigenvalues --  -11.21633 -11.21616 -11.21585 -11.21498 -11.21426
 Alpha  occ. eigenvalues --  -11.21374 -11.21366 -11.21314 -11.21083 -11.21083
 Alpha  occ. eigenvalues --  -11.21061 -11.21020  -1.08455  -1.08394  -1.03571
 Alpha  occ. eigenvalues --   -1.03478  -0.96029  -0.95923  -0.87025  -0.86961
 Alpha  occ. eigenvalues --   -0.79649  -0.79527  -0.78269  -0.78202  -0.65086
 Alpha  occ. eigenvalues --   -0.65046  -0.61000  -0.60939  -0.59414  -0.59228
 Alpha  occ. eigenvalues --   -0.57628  -0.57532  -0.55291  -0.55249  -0.52703
 Alpha  occ. eigenvalues --   -0.52607  -0.52431  -0.52360  -0.49991  -0.49850
 Alpha  occ. eigenvalues --   -0.47962  -0.47839  -0.46695  -0.46541  -0.45809
 Alpha  occ. eigenvalues --   -0.45755  -0.45731  -0.45665  -0.43784  -0.43715
 Alpha virt. eigenvalues --    0.21393   0.23025   0.23696   0.25005   0.26424
 Alpha virt. eigenvalues --    0.26662   0.27132   0.27586   0.27829   0.28870
 Alpha virt. eigenvalues --    0.30440   0.31181   0.31481   0.31832   0.32173

 Mulliken charges:
               1
     1  C   -0.298187
     2  C   -0.299608
     3  C   -0.475673
     4  H    0.149661
     5  H    0.149406
     6  H    0.151927
     7  H    0.151839
     8  H    0.155056
     9  H    0.155165
    10  H    0.160187
    11  C   -0.298196
    12  C   -0.306388
    13  C   -0.475659
    14  H    0.149477
    15  H    0.148844
    16  H    0.151848
    17  H    0.158554
    18  H    0.154309
    19  H    0.154922
    20  H    0.161208
    21  C   -0.298258
    22  C   -0.299645
    23  C   -0.475712
    24  H    0.149681
    25  H    0.149466
    26  H    0.151985
    27  H    0.151966
    28  H    0.155176
    29  H    0.155201
    30  H    0.160312
    31  C   -0.298615
    32  C   -0.299681
    33  C   -0.481036
    34  H    0.149667
    35  H    0.149691
    36  H    0.151966
    37  H    0.151554
    38  H    0.154956
    39  H    0.155764
    40  H    0.166869
 Sum of Mulliken charges =  -0.00000

 Dipole moment (field-independent basis, Debye):
    X=              0.0271    Y=              0.0108    Z=             -0.0108  Tot=              0.0311
 Quadrupole moment (field-independent basis, Debye-Ang):
   XX=            -85.0093   YY=            -85.1398   ZZ=            -84.7227
   XY=              0.0386   XZ=              0.0118   YZ=              0.0723

 Normal termination of Gaussian 16 at Wed May  5 19:44:21 2021.
