 Gaussian 16, Revision A.03,
 Gaussian 16:  EM64L-G16RevA.03 25-Dec-2016

 -------------
 #p 6-31g* mp2
 -------------

 ------------------------------------------------------
 Input file generated by CHIRIPA (05-May-2021 14:57:21)
 ------------------------------------------------------
 Symbolic Z-matrix:
 Charge =  0 Multiplicity = 1

                         Standard orientation:
 ---------------------------------------------------------------------
 Center     Atomic      Atomic             Coordinates (Angstroms)
 Number     Number       Type             X           Y           Z
 ---------------------------------------------------------------------
      1          6           0       -3.353145   -1.782352   -0.376437
      2          6           0       -3.014860   -1.058895   -1.524782
      3          6           0       -2.467261    0.223221   -1.420573
      4          6           0       -2.270569    0.753680   -0.146518
      5          6           0       -2.597363    0.057825    1.016358
      6          6           0       -3.143686   -1.222669    0.888238
      7          1           0       -3.778037   -2.777700   -0.466676
      8          1           0       -3.176419   -1.491040   -2.508243
      9          1           0       -2.196331    0.805305   -2.293037
     10          1           0       -2.424622    0.515084    1.983050
     11          1           0       -3.405454   -1.782208    1.781792
     12          7           0       -1.691526    2.110141   -0.023540
     13          8           0       -1.528112    2.555123    1.110445
     14          8           0       -1.412051    2.702668   -1.063465
     15          6           0        0.348019   -1.831390    0.941615
     16          6           0        0.947173   -2.134001   -0.285562
     17          6           0        2.065697   -1.419563   -0.724912
     18          6           0        2.561094   -0.404317    0.091879
     19          6           0        1.986344   -0.079142    1.319565
     20          6           0        0.868599   -0.806732    1.738856
     21          1           0       -0.520574   -2.391493    1.275122
     22          1           0        0.545036   -2.929242   -0.906789
     23          1           0        2.549132   -1.632943   -1.670522
     24          1           0        2.409893    0.719096    1.916927
     25          1           0        0.405342   -0.569531    2.692362
     26          7           0        3.744812    0.358989   -0.362624
     27          8           0        4.162111    1.248776    0.375467
     28          8           0        4.232899    0.053028   -1.448348
 ---------------------------------------------------------------------

 SCF Done:  E(RHF) =  -868.335247783     A.U. after   16 cycles
 E2 =    -0.2604843242D+01 EUMP2 =    -0.87094009102545D+03

 The electronic state is 1-A.
 Alpha  occ. eigenvalues --  -20.61288 -20.61262 -20.60495 -20.60472 -15.86337
 Alpha  occ. eigenvalues --  -15.85549 -11.31900 -11.30998 -11.28579 -11.28496
 Alpha  occ. eigenvalues --  -11.28352 -11.27666 -11.27631 -11.27586 -11.27565
 Alpha  occ. eigenvalues --  -11.27396 -11.26686 -11.26639  -1.60341  -1.59559
 Alpha  occ. eigenvalues --   -1.39894  -1.39111  -1.20144  -1.19221  -1.09495
 Alpha  occ. eigenvalues --   -1.08609  -1.05597  -1.04647  -0.96288  -0.95416
 Alpha  occ. eigenvalues --   -0.86978  -0.86049  -0.83129  -0.82249  -0.78129
 Alpha  occ. eigenvalues --   -0.77267  -0.72558  -0.71770  -0.71665  -0.71257
 Alpha  occ. eigenvalues --   -0.70880  -0.70380  -0.65795  -0.65602  -0.64879
 Alpha  occ. eigenvalues --   -0.64689  -0.62929  -0.61991  -0.56085  -0.55382
 Alpha  occ. eigenvalues --   -0.54101  -0.53676  -0.52750  -0.52596  -0.49329
 Alpha  occ. eigenvalues --   -0.49297  -0.48538  -0.48512  -0.45259  -0.44499
 Alpha  occ. eigenvalues --   -0.38210  -0.37725  -0.36747  -0.36027
 Alpha virt. eigenvalues --    0.04383   0.05324   0.10115   0.11585   0.15799
 Alpha virt. eigenvalues --    0.16740   0.19943   0.21888   0.25733   0.26652
 Alpha virt. eigenvalues --    0.28193   0.29032   0.29651   0.30892   0.32359

 Mulliken charges:
               1
     1  C   -0.174334
     2  C   -0.219232
     3  C   -0.167452
     4  C    0.166210
     5  C   -0.168964
     6  C   -0.229528
     7  H    0.226207
     8  H    0.225635
     9  H    0.279621
    10  H    0.273302
    11  H    0.221893
    12  N    0.488328
    13  O   -0.461637
    14  O   -0.455353
    15  C   -0.161955
    16  C   -0.220823
    17  C   -0.170963
    18  C    0.157889
    19  C   -0.167410
    20  C   -0.223218
    21  H    0.219841
    22  H    0.217947
    23  H    0.274526
    24  H    0.279980
    25  H    0.220248
    26  N    0.488771
    27  O   -0.457449
    28  O   -0.462081
 Sum of Mulliken charges =  -0.00000

 Dipole moment (field-independent basis, Debye):
    X=             -6.2140    Y=             -7.1687    Z=              1.0349  Tot=              9.5434
 Quadrupole moment (field-independent basis, Debye-Ang):
   XX=           -118.4317   YY=           -109.7870   ZZ=            -96.1172
   XY=              4.1042   XZ=              5.0621   YZ=              1.7937

 Normal termination of Gaussian 16 at Wed May  5 19:18:51 2021.
