 Gaussian 16, Revision A.03,
 Gaussian 16:  EM64L-G16RevA.03 25-Dec-2016

 -------------
 #p 6-31g* mp2
 -------------

 ------------------------------------------------------
 Input file generated by CHIRIPA (05-May-2021 14:51:09)
 ------------------------------------------------------
 Symbolic Z-matrix:
 Charge =  0 Multiplicity = 1

                         Standard orientation:
 ---------------------------------------------------------------------
 Center     Atomic      Atomic             Coordinates (Angstroms)
 Number     Number       Type             X           Y           Z
 ---------------------------------------------------------------------
      1          6           0        4.210763   -0.274854    0.071593
      2          6           0        4.357948   -1.757012   -0.274137
      3          6           0        5.474625   -2.440240    0.515818
      4          1           0        5.163866    0.236454   -0.121031
      5          1           0        4.014107   -0.174361    1.147987
      6          1           0        4.552895   -1.854758   -1.349803
      7          1           0        3.404327   -2.264814   -0.080848
      8          1           0        5.282701   -2.372291    1.591527
      9          1           0        6.437795   -1.959905    0.315362
     10          1           0        5.562357   -3.499072    0.253070
     11          6           0        3.098451    0.421985   -0.710012
     12          6           0        2.951266    1.904143   -0.364282
     13          6           0        1.834590    2.587370   -1.154237
     14          1           0        3.295108    0.321491   -1.786405
     15          1           0        2.145349   -0.089323   -0.517387
     16          1           0        3.904887    2.411945   -0.557571
     17          1           0        2.756320    2.001889    0.711384
     18          1           0        0.871420    2.107036   -0.953780
     19          1           0        2.026513    2.519422   -2.229945
     20          1           0        1.746858    3.646203   -0.891489
     21          6           0       -4.388135   -0.284162    0.351134
     22          6           0       -4.901178   -0.894252   -0.953688
     23          6           0       -6.370238   -1.310579   -0.874145
     24          1           0       -4.521515   -1.009821    1.165121
     25          1           0       -5.004329    0.588985    0.606700
     26          1           0       -4.283332   -1.765167   -1.207442
     27          1           0       -4.766383   -0.167129   -1.764699
     28          1           0       -7.003413   -0.447353   -0.644946
     29          1           0       -6.517617   -2.054471   -0.084522
     30          1           0       -6.716283   -1.744175   -1.817601
     31          6           0       -2.921080    0.137031    0.287285
     32          6           0       -2.408037    0.747121    1.592107
     33          6           0       -0.938976    1.163448    1.512564
     34          1           0       -2.304886   -0.736116    0.031719
     35          1           0       -2.787698    0.862689   -0.526702
     36          1           0       -2.542831    0.019998    2.403117
     37          1           0       -3.025882    1.618036    1.845861
     38          1           0       -0.791598    1.907340    0.722941
     39          1           0       -0.305801    0.300222    1.283365
     40          1           0       -0.592931    1.597044    2.456019
 ---------------------------------------------------------------------

 SCF Done:  E(RHF) =  -470.733155948     A.U. after   11 cycles
 E2 =    -0.1582800991D+01 EUMP2 =    -0.47231595693883D+03

 The electronic state is 1-A.
 Alpha  occ. eigenvalues --  -11.21650 -11.21618 -11.21580 -11.21519 -11.21441
 Alpha  occ. eigenvalues --  -11.21380 -11.21358 -11.21296 -11.21130 -11.21084
 Alpha  occ. eigenvalues --  -11.21055 -11.20957  -1.08467  -1.08378  -1.03577
 Alpha  occ. eigenvalues --   -1.03467  -0.96037  -0.95913  -0.87058  -0.86929
 Alpha  occ. eigenvalues --   -0.79655  -0.79522  -0.78283  -0.78187  -0.65097
 Alpha  occ. eigenvalues --   -0.65012  -0.61016  -0.60850  -0.59392  -0.59292
 Alpha  occ. eigenvalues --   -0.57665  -0.57511  -0.55470  -0.55083  -0.52710
 Alpha  occ. eigenvalues --   -0.52623  -0.52508  -0.52294  -0.50131  -0.49699
 Alpha  occ. eigenvalues --   -0.48049  -0.47765  -0.46705  -0.46497  -0.45873
 Alpha  occ. eigenvalues --   -0.45737  -0.45696  -0.45593  -0.43821  -0.43735
 Alpha virt. eigenvalues --    0.21114   0.22992   0.23683   0.24808   0.25855
 Alpha virt. eigenvalues --    0.26316   0.27203   0.27669   0.27785   0.29245
 Alpha virt. eigenvalues --    0.30734   0.31343   0.31523   0.31823   0.32188

 Mulliken charges:
               1
     1  C   -0.298334
     2  C   -0.299510
     3  C   -0.475672
     4  H    0.149562
     5  H    0.149610
     6  H    0.151900
     7  H    0.151478
     8  H    0.155137
     9  H    0.155196
    10  H    0.160101
    11  C   -0.299859
    12  C   -0.299212
    13  C   -0.480606
    14  H    0.149250
    15  H    0.150943
    16  H    0.151425
    17  H    0.153172
    18  H    0.160884
    19  H    0.154357
    20  H    0.159209
    21  C   -0.298283
    22  C   -0.299721
    23  C   -0.475740
    24  H    0.149711
    25  H    0.149673
    26  H    0.151972
    27  H    0.152137
    28  H    0.155231
    29  H    0.155174
    30  H    0.160359
    31  C   -0.298508
    32  C   -0.299661
    33  C   -0.481537
    34  H    0.149300
    35  H    0.149718
    36  H    0.151988
    37  H    0.152296
    38  H    0.160941
    39  H    0.155366
    40  H    0.160552
 Sum of Mulliken charges =  -0.00000

 Dipole moment (field-independent basis, Debye):
    X=             -0.0383    Y=              0.0070    Z=              0.0155  Tot=              0.0419
 Quadrupole moment (field-independent basis, Debye-Ang):
   XX=            -85.9984   YY=            -84.4286   ZZ=            -84.4177
   XY=             -0.0260   XZ=             -0.8525   YZ=             -0.1546

 Normal termination of Gaussian 16 at Wed May  5 18:10:33 2021.
