 Gaussian 16, Revision A.03,
 Gaussian 16:  EM64L-G16RevA.03 25-Dec-2016

 -------------
 #p 6-31g* mp2
 -------------

 ------------------------------------------------------
 Input file generated by CHIRIPA (05-May-2021 14:55:25)
 ------------------------------------------------------
 Symbolic Z-matrix:
 Charge =  0 Multiplicity = 1

                         Standard orientation:
 ---------------------------------------------------------------------
 Center     Atomic      Atomic             Coordinates (Angstroms)
 Number     Number       Type             X           Y           Z
 ---------------------------------------------------------------------
      1          6           0       -1.628374    2.453562   -0.247299
      2          6           0       -2.953096    2.284244    0.168589
      3          6           0       -3.558811    1.025375    0.114679
      4          6           0       -2.807105   -0.047149   -0.362731
      5          6           0       -1.485416    0.089561   -0.784323
      6          6           0       -0.900046    1.357612   -0.721592
      7          1           0       -1.165742    3.435049   -0.201995
      8          1           0       -3.521135    3.133579    0.537380
      9          1           0       -4.582747    0.866072    0.430265
     10          1           0       -0.944559   -0.776003   -1.147215
     11          1           0        0.128921    1.486149   -1.045245
     12          7           0       -3.437579   -1.384718   -0.424472
     13          8           0       -2.753887   -2.313653   -0.849070
     14          8           0       -4.603498   -1.478843   -0.047098
     15          6           0        4.034436   -0.553759    0.072621
     16          6           0        4.927088    0.441668   -0.669190
     17          6           0        6.071578   -0.237551   -1.421917
     18          1           0        4.647444   -1.131246    0.778081
     19          1           0        3.623837   -1.274875   -0.647654
     20          1           0        5.334778    1.161526    0.052065
     21          1           0        4.311849    1.016984   -1.372829
     22          1           0        5.680633   -0.942327   -2.162898
     23          1           0        6.709373   -0.796964   -0.729908
     24          1           0        6.697105    0.492465   -1.945034
     25          6           0        2.885744    0.110116    0.829921
     26          6           0        1.993091   -0.885312    1.571730
     27          6           0        0.848601   -0.206092    2.324457
     28          1           0        3.296342    0.831231    1.550195
     29          1           0        2.272735    0.687603    0.124459
     30          1           0        2.608330   -1.460628    2.275369
     31          1           0        1.585401   -1.605170    0.850475
     32          1           0        0.210806    0.353320    1.632448
     33          1           0        1.239547    0.498682    3.065438
     34          1           0        0.223073   -0.936109    2.847575
 ---------------------------------------------------------------------

 SCF Done:  E(RHF) =  -669.534361937     A.U. after   15 cycles
 E2 =    -0.2093559791D+01 EUMP2 =    -0.67162792172795D+03

 The electronic state is 1-A.
 Alpha  occ. eigenvalues --  -20.60815 -20.60809 -15.85870 -11.31261 -11.27836
 Alpha  occ. eigenvalues --  -11.27828 -11.27578 -11.26848 -11.26832 -11.22083
 Alpha  occ. eigenvalues --  -11.21990 -11.21901 -11.21828 -11.21436 -11.21104
 Alpha  occ. eigenvalues --   -1.59889  -1.39442  -1.19451  -1.08896  -1.08825
 Alpha  occ. eigenvalues --   -1.04871  -1.03883  -0.96330  -0.95659  -0.87345
 Alpha  occ. eigenvalues --   -0.86249  -0.82499  -0.79956  -0.78725  -0.77536
 Alpha  occ. eigenvalues --   -0.72088  -0.71212  -0.70541  -0.65583  -0.65092
 Alpha  occ. eigenvalues --   -0.64836  -0.62222  -0.61287  -0.59698  -0.57953
 Alpha  occ. eigenvalues --   -0.55723  -0.55340  -0.53297  -0.52992  -0.52951
 Alpha  occ. eigenvalues --   -0.52620  -0.50239  -0.48849  -0.48841  -0.48252
 Alpha  occ. eigenvalues --   -0.46992  -0.46247  -0.46179  -0.44841  -0.44171
 Alpha  occ. eigenvalues --   -0.37415  -0.36358
 Alpha virt. eigenvalues --    0.04988   0.11101   0.16381   0.19653   0.22889
 Alpha virt. eigenvalues --    0.24051   0.24993   0.26266   0.27742   0.28385
 Alpha virt. eigenvalues --    0.28973   0.30510   0.31367   0.31528   0.32016

 Mulliken charges:
               1
     1  C   -0.170201
     2  C   -0.217998
     3  C   -0.170594
     4  C    0.160487
     5  C   -0.170709
     6  C   -0.224316
     7  H    0.226654
     8  H    0.224010
     9  H    0.276049
    10  H    0.276192
    11  H    0.228713
    12  N    0.488120
    13  O   -0.460354
    14  O   -0.460124
    15  C   -0.298522
    16  C   -0.299035
    17  C   -0.475956
    18  H    0.153025
    19  H    0.150066
    20  H    0.152526
    21  H    0.147152
    22  H    0.156235
    23  H    0.156949
    24  H    0.160855
    25  C   -0.299231
    26  C   -0.300801
    27  C   -0.484934
    28  H    0.151213
    29  H    0.138050
    30  H    0.155055
    31  H    0.152205
    32  H    0.163125
    33  H    0.152299
    34  H    0.163795
 Sum of Mulliken charges =  -0.00000

 Dipole moment (field-independent basis, Debye):
    X=              2.1906    Y=              4.6836    Z=              0.2349  Tot=              5.1759
 Quadrupole moment (field-independent basis, Debye-Ang):
   XX=           -103.7327   YY=            -95.0162   ZZ=            -94.6862
   XY=            -15.2498   XZ=             -2.1943   YZ=             -1.0899

 Normal termination of Gaussian 16 at Thu May  6 08:01:41 2021.
