 Gaussian 16, Revision A.03,
 Gaussian 16:  EM64L-G16RevA.03 25-Dec-2016

 -------------
 #p 6-31g* mp2
 -------------

 ------------------------------------------------------
 Input file generated by CHIRIPA (05-May-2021 14:53:14)
 ------------------------------------------------------
 Symbolic Z-matrix:
 Charge =  0 Multiplicity = 1

                         Standard orientation:
 ---------------------------------------------------------------------
 Center     Atomic      Atomic             Coordinates (Angstroms)
 Number     Number       Type             X           Y           Z
 ---------------------------------------------------------------------
      1          6           0       -3.804687    0.467906   -0.317675
      2          6           0       -2.411338   -0.125332   -0.528939
      3          6           0       -1.333537    0.944897   -0.704293
      4          1           0       -4.057427    1.107993   -1.174037
      5          1           0       -3.787544    1.120607    0.566114
      6          1           0       -2.431446   -0.777808   -1.411258
      7          1           0       -2.161964   -0.764233    0.327936
      8          1           0       -1.284317    1.590362    0.178630
      9          1           0       -1.555330    1.576710   -1.570446
     10          1           0       -0.345379    0.498785   -0.853922
     11          6           0       -4.892909   -0.589552   -0.140805
     12          6           0       -6.286258    0.003686    0.070458
     13          6           0       -7.364060   -1.066543    0.245813
     14          1           0       -4.910053   -1.242253   -1.024594
     15          1           0       -4.640170   -1.229639    0.715557
     16          1           0       -6.535632    0.642587   -0.786416
     17          1           0       -6.266151    0.656161    0.952778
     18          1           0       -7.142267   -1.698357    1.111965
     19          1           0       -7.413279   -1.712008   -0.637110
     20          1           0       -8.352217   -0.620431    0.395442
     21          6           0        1.823189    1.918803    0.800195
     22          6           0        1.810569    0.723355    1.526325
     23          6           0        2.678417   -0.320198    1.191086
     24          6           0        3.549697   -0.133391    0.119048
     25          6           0        3.586114    1.045768   -0.623616
     26          6           0        2.709360    2.075917   -0.270570
     27          1           0        1.145565    2.724254    1.067534
     28          1           0        1.123434    0.598538    2.358377
     29          1           0        2.689684   -1.256171    1.736287
     30          1           0        4.282422    1.140690   -1.447973
     31          1           0        2.721366    3.003218   -0.836269
     32          7           0        4.473163   -1.231059   -0.245281
     33          8           0        5.231191   -1.041575   -1.194031
     34          8           0        4.421462   -2.260110    0.424807
 ---------------------------------------------------------------------

 SCF Done:  E(RHF) =  -669.534803956     A.U. after   15 cycles
 E2 =    -0.2092015995D+01 EUMP2 =    -0.67162681995135D+03

 The electronic state is 1-A.
 Alpha  occ. eigenvalues --  -20.60759 -20.60754 -15.85815 -11.31175 -11.27765
 Alpha  occ. eigenvalues --  -11.27758 -11.27481 -11.26748 -11.26738 -11.22047
 Alpha  occ. eigenvalues --  -11.21911 -11.21814 -11.21708 -11.21569 -11.21323
 Alpha  occ. eigenvalues --   -1.59836  -1.39389  -1.19363  -1.08828  -1.08743
 Alpha  occ. eigenvalues --   -1.04763  -1.03916  -0.96378  -0.95580  -0.87394
 Alpha  occ. eigenvalues --   -0.86155  -0.82416  -0.79986  -0.78626  -0.77463
 Alpha  occ. eigenvalues --   -0.72032  -0.71161  -0.70469  -0.65456  -0.65008
 Alpha  occ. eigenvalues --   -0.64759  -0.62110  -0.61325  -0.59749  -0.57980
 Alpha  occ. eigenvalues --   -0.55721  -0.55238  -0.53531  -0.52850  -0.52819
 Alpha  occ. eigenvalues --   -0.52567  -0.50321  -0.48790  -0.48787  -0.48296
 Alpha  occ. eigenvalues --   -0.47027  -0.46170  -0.46095  -0.44796  -0.44163
 Alpha  occ. eigenvalues --   -0.37243  -0.36372
 Alpha virt. eigenvalues --    0.05065   0.11244   0.16525   0.20780   0.22582
 Alpha virt. eigenvalues --    0.24006   0.26035   0.26655   0.27208   0.27499
 Alpha virt. eigenvalues --    0.28546   0.30545   0.31227   0.31493   0.31953

 Mulliken charges:
               1
     1  C   -0.298134
     2  C   -0.299849
     3  C   -0.477149
     4  H    0.150255
     5  H    0.146678
     6  H    0.155283
     7  H    0.150185
     8  H    0.142703
     9  H    0.154277
    10  H    0.170305
    11  C   -0.298456
    12  C   -0.299750
    13  C   -0.475887
    14  H    0.151164
    15  H    0.149534
    16  H    0.152285
    17  H    0.151095
    18  H    0.155404
    19  H    0.156128
    20  H    0.160842
    21  C   -0.165225
    22  C   -0.217815
    23  C   -0.171768
    24  C    0.157782
    25  C   -0.171098
    26  C   -0.219885
    27  H    0.225998
    28  H    0.223098
    29  H    0.275566
    30  H    0.275679
    31  H    0.223690
    32  N    0.488172
    33  O   -0.460547
    34  O   -0.460560
 Sum of Mulliken charges =  -0.00000

 Dipole moment (field-independent basis, Debye):
    X=             -3.2833    Y=              3.8501    Z=              1.2434  Tot=              5.2105
 Quadrupole moment (field-independent basis, Debye-Ang):
   XX=           -118.6061   YY=            -95.1747   ZZ=            -91.0302
   XY=             15.1083   XZ=              2.9753   YZ=             -1.9884

 Normal termination of Gaussian 16 at Thu May  6 13:45:47 2021.
