 Gaussian 16, Revision A.03,
 Gaussian 16:  EM64L-G16RevA.03 25-Dec-2016

 -------------
 #p 6-31g* mp2
 -------------

 ------------------------------------------------------
 Input file generated by CHIRIPA (05-May-2021 14:55:22)
 ------------------------------------------------------
 Symbolic Z-matrix:
 Charge =  0 Multiplicity = 1

                         Standard orientation:
 ---------------------------------------------------------------------
 Center     Atomic      Atomic             Coordinates (Angstroms)
 Number     Number       Type             X           Y           Z
 ---------------------------------------------------------------------
      1          6           0       -2.152229    2.206344   -0.914526
      2          6           0       -1.195661    1.337251   -0.379571
      3          6           0       -1.569265    0.077933    0.099057
      4          6           0       -2.914228   -0.281468    0.026981
      5          6           0       -3.890722    0.562128   -0.500367
      6          6           0       -3.494340    1.816696   -0.973113
      7          1           0       -1.853157    3.182768   -1.284051
      8          1           0       -0.152640    1.637193   -0.332803
      9          1           0       -0.849406   -0.614569    0.518179
     10          1           0       -4.922870    0.235049   -0.533631
     11          1           0       -4.239391    2.489582   -1.388044
     12          7           0       -3.321803   -1.612138    0.530569
     13          8           0       -4.513122   -1.905061    0.455794
     14          8           0       -2.442223   -2.336997    0.990522
     15          6           0        3.806956   -0.416235   -0.486095
     16          6           0        4.194607   -1.802723    0.029037
     17          6           0        4.517282   -2.783448   -1.098728
     18          1           0        2.938638   -0.509286   -1.152663
     19          1           0        4.628436   -0.016753   -1.096817
     20          1           0        3.373203   -2.198890    0.639744
     21          1           0        5.061984   -1.706337    0.694606
     22          1           0        5.351446   -2.413787   -1.703810
     23          1           0        3.653070   -2.909138   -1.758984
     24          1           0        4.791824   -3.768263   -0.708056
     25          6           0        3.481505    0.575359    0.629498
     26          6           0        3.093854    1.961848    0.114366
     27          6           0        2.771177    2.942571    1.242131
     28          1           0        2.660025    0.175876    1.240220
     29          1           0        4.349822    0.668410    1.296065
     30          1           0        2.226476    1.865462   -0.551204
     31          1           0        3.915258    2.358014   -0.496341
     32          1           0        3.635391    3.068262    1.902386
     33          1           0        1.937015    2.572910    1.847213
     34          1           0        2.496636    3.927387    0.851459
 ---------------------------------------------------------------------

 SCF Done:  E(RHF) =  -669.535531631     A.U. after   15 cycles
 E2 =    -0.2091361577D+01 EUMP2 =    -0.67162689320786D+03

 The electronic state is 1-A.
 Alpha  occ. eigenvalues --  -20.60768 -20.60763 -15.85822 -11.31184 -11.27754
 Alpha  occ. eigenvalues --  -11.27750 -11.27488 -11.26766 -11.26734 -11.22571
 Alpha  occ. eigenvalues --  -11.22105 -11.21946 -11.21941 -11.21882 -11.21268
 Alpha  occ. eigenvalues --   -1.59844  -1.39398  -1.19355  -1.09075  -1.08749
 Alpha  occ. eigenvalues --   -1.04760  -1.04134  -0.96562  -0.95585  -0.87577
 Alpha  occ. eigenvalues --   -0.86158  -0.82420  -0.80224  -0.78837  -0.77469
 Alpha  occ. eigenvalues --   -0.72040  -0.71167  -0.70464  -0.65791  -0.65006
 Alpha  occ. eigenvalues --   -0.64742  -0.62178  -0.61454  -0.59957  -0.58159
 Alpha  occ. eigenvalues --   -0.55855  -0.55253  -0.53258  -0.53087  -0.52987
 Alpha  occ. eigenvalues --   -0.52834  -0.50512  -0.48806  -0.48795  -0.48504
 Alpha  occ. eigenvalues --   -0.47278  -0.46375  -0.46286  -0.44804  -0.44382
 Alpha  occ. eigenvalues --   -0.37334  -0.36361
 Alpha virt. eigenvalues --    0.05066   0.11276   0.16545   0.18562   0.22989
 Alpha virt. eigenvalues --    0.23608   0.25442   0.26230   0.27244   0.28480
 Alpha virt. eigenvalues --    0.29497   0.30059   0.31085   0.31281   0.32204

 Mulliken charges:
               1
     1  C   -0.172867
     2  C   -0.227518
     3  C   -0.174129
     4  C    0.158982
     5  C   -0.171127
     6  C   -0.218428
     7  H    0.226235
     8  H    0.236948
     9  H    0.275261
    10  H    0.275575
    11  H    0.223405
    12  N    0.488115
    13  O   -0.460431
    14  O   -0.460671
    15  C   -0.298686
    16  C   -0.300646
    17  C   -0.476179
    18  H    0.147464
    19  H    0.151116
    20  H    0.154630
    21  H    0.153060
    22  H    0.154857
    23  H    0.156545
    24  H    0.163075
    25  C   -0.299203
    26  C   -0.304859
    27  C   -0.477930
    28  H    0.147506
    29  H    0.154225
    30  H    0.142711
    31  H    0.157518
    32  H    0.161039
    33  H    0.154837
    34  H    0.159569
 Sum of Mulliken charges =  -0.00000

 Dipole moment (field-independent basis, Debye):
    X=              1.6252    Y=              4.6551    Z=             -1.7390  Tot=              5.2284
 Quadrupole moment (field-independent basis, Debye-Ang):
   XX=            -96.8312   YY=            -98.2086   ZZ=            -95.8149
   XY=            -14.8505   XZ=              7.0322   YZ=             -0.1836

 Normal termination of Gaussian 16 at Thu May  6 09:23:03 2021.
