 Gaussian 16, Revision A.03,
 Gaussian 16:  EM64L-G16RevA.03 25-Dec-2016

 -------------
 #p 6-31g* mp2
 -------------

 ------------------------------------------------------
 Input file generated by CHIRIPA (05-May-2021 14:57:23)
 ------------------------------------------------------
 Symbolic Z-matrix:
 Charge =  0 Multiplicity = 1

                         Standard orientation:
 ---------------------------------------------------------------------
 Center     Atomic      Atomic             Coordinates (Angstroms)
 Number     Number       Type             X           Y           Z
 ---------------------------------------------------------------------
      1          6           0       -3.073945   -2.373380    0.567946
      2          6           0       -4.224058   -1.760749    0.059571
      3          6           0       -4.246327   -0.384443   -0.185037
      4          6           0       -3.095571    0.352190    0.091410
      5          6           0       -1.934358   -0.229143    0.598288
      6          6           0       -1.934774   -1.606973    0.835211
      7          1           0       -3.065457   -3.443120    0.754978
      8          1           0       -5.110211   -2.353458   -0.148931
      9          1           0       -5.123181    0.115465   -0.578275
     10          1           0       -1.066366    0.387970    0.796227
     11          1           0       -1.040164   -2.080064    1.230055
     12          7           0       -3.107138    1.810031   -0.163478
     13          8           0       -2.080345    2.436825    0.088435
     14          8           0       -4.142779    2.298287   -0.610345
     15          6           0        3.976525    2.195153    0.380288
     16          6           0        4.806907    1.079161    0.527083
     17          6           0        4.328383   -0.203870    0.245313
     18          6           0        3.008313   -0.334960   -0.183081
     19          6           0        2.156428    0.757402   -0.339056
     20          6           0        2.656263    2.031001   -0.051552
     21          1           0        4.356531    3.188178    0.601399
     22          1           0        5.832670    1.203641    0.862283
     23          1           0        4.949570   -1.085065    0.350383
     24          1           0        1.138439    0.601681   -0.675010
     25          1           0        2.009108    2.895889   -0.166455
     26          7           0        2.490440   -1.688255   -0.484413
     27          8           0        1.323623   -1.777038   -0.860300
     28          8           0        3.261155   -2.634559   -0.339003
 ---------------------------------------------------------------------

 SCF Done:  E(RHF) =  -868.340294180     A.U. after   16 cycles
 E2 =    -0.2599733105D+01 EUMP2 =    -0.87094002728546D+03

 The electronic state is 1-A.
 Alpha  occ. eigenvalues --  -20.61305 -20.61269 -20.60814 -20.60762 -15.86309
 Alpha  occ. eigenvalues --  -15.85827 -11.31413 -11.30865 -11.27933 -11.27887
 Alpha  occ. eigenvalues --  -11.27566 -11.27364 -11.27357 -11.26955 -11.26904
 Alpha  occ. eigenvalues --  -11.26775 -11.26340 -11.26180  -1.60363  -1.59861
 Alpha  occ. eigenvalues --   -1.39923  -1.39430  -1.19538  -1.18966  -1.08978
 Alpha  occ. eigenvalues --   -1.08413  -1.04879  -1.04305  -0.95862  -0.95319
 Alpha  occ. eigenvalues --   -0.86295  -0.85724  -0.82691  -0.82157  -0.77798
 Alpha  occ. eigenvalues --   -0.77246  -0.72531  -0.72062  -0.71682  -0.71171
 Alpha  occ. eigenvalues --   -0.70642  -0.70072  -0.65177  -0.64863  -0.64611
 Alpha  occ. eigenvalues --   -0.64281  -0.62254  -0.61632  -0.55381  -0.54804
 Alpha  occ. eigenvalues --   -0.53250  -0.52961  -0.52640  -0.52361  -0.49310
 Alpha  occ. eigenvalues --   -0.49266  -0.48834  -0.48768  -0.45379  -0.44909
 Alpha  occ. eigenvalues --   -0.37501  -0.36904  -0.36475  -0.35853
 Alpha virt. eigenvalues --    0.04638   0.05233   0.11103   0.11720   0.16217
 Alpha virt. eigenvalues --    0.16877   0.20834   0.22245   0.26091   0.27822
 Alpha virt. eigenvalues --    0.28380   0.29549   0.31117   0.31520   0.31985

 Mulliken charges:
               1
     1  C   -0.171310
     2  C   -0.217794
     3  C   -0.172496
     4  C    0.158394
     5  C   -0.173373
     6  C   -0.206816
     7  H    0.227609
     8  H    0.222444
     9  H    0.273396
    10  H    0.266481
    11  H    0.232663
    12  N    0.489129
    13  O   -0.471121
    14  O   -0.458993
    15  C   -0.170636
    16  C   -0.218111
    17  C   -0.171736
    18  C    0.157431
    19  C   -0.179759
    20  C   -0.219804
    21  H    0.228184
    22  H    0.224130
    23  H    0.274810
    24  H    0.278739
    25  H    0.236477
    26  N    0.487447
    27  O   -0.466629
    28  O   -0.458756
 Sum of Mulliken charges =  -0.00000

 Dipole moment (field-independent basis, Debye):
    X=              2.0160    Y=             -0.4480    Z=              1.9685  Tot=              2.8530
 Quadrupole moment (field-independent basis, Debye-Ang):
   XX=            -85.6399   YY=           -111.3981   ZZ=           -105.8510
   XY=             29.2385   XZ=              3.1115   YZ=             -1.9688

 Normal termination of Gaussian 16 at Fri May  7 04:53:08 2021.
