 Gaussian 16, Revision A.03,
 Gaussian 16:  EM64L-G16RevA.03 25-Dec-2016

 -------------
 #p 6-31g* mp2
 -------------

 ------------------------------------------------------
 Input file generated by CHIRIPA (05-May-2021 14:51:12)
 ------------------------------------------------------
 Symbolic Z-matrix:
 Charge =  0 Multiplicity = 1

                         Standard orientation:
 ---------------------------------------------------------------------
 Center     Atomic      Atomic             Coordinates (Angstroms)
 Number     Number       Type             X           Y           Z
 ---------------------------------------------------------------------
      1          6           0        2.944434   -0.550147   -0.335454
      2          6           0        1.689483   -0.018942    0.358018
      3          6           0        0.398725   -0.513184   -0.295788
      4          1           0        2.927712   -0.248087   -1.391591
      5          1           0        2.923943   -1.648713   -0.324185
      6          1           0        1.713013    1.078297    0.346668
      7          1           0        1.709289   -0.322139    1.412673
      8          1           0        0.348603   -1.606566   -0.271208
      9          1           0        0.352348   -0.198174   -1.343270
     10          1           0       -0.485968   -0.121427    0.215783
     11          6           0        4.242835   -0.064811    0.306679
     12          6           0        5.497786   -0.596016   -0.386793
     13          6           0        6.788544   -0.101774    0.267013
     14          1           0        4.263326    1.033755    0.295410
     15          1           0        4.259557   -0.366871    1.362816
     16          1           0        5.477980   -0.292819   -1.441448
     17          1           0        5.474256   -1.693255   -0.375443
     18          1           0        6.834921   -0.416784    1.314495
     19          1           0        6.838666    0.991609    0.242433
     20          1           0        7.673237   -0.493531   -0.244558
     21          6           0       -3.918892   -0.262447    0.405315
     22          6           0       -4.450271   -1.384266   -0.487512
     23          6           0       -5.098101   -2.517173    0.309126
     24          1           0       -3.188689   -0.679746    1.112147
     25          1           0       -4.744719    0.138367    1.009263
     26          1           0       -3.623966   -1.781913   -1.090599
     27          1           0       -5.179152   -0.964215   -1.192427
     28          1           0       -5.940411   -2.140897    0.898644
     29          1           0       -4.376390   -2.963241    1.001051
     30          1           0       -5.471021   -3.308360   -0.348758
     31          6           0       -3.268378    0.877404   -0.376540
     32          6           0       -2.736998    1.999225    0.516287
     33          6           0       -2.089168    3.132130   -0.280352
     34          1           0       -2.442550    0.476592   -0.980487
     35          1           0       -3.998580    1.294704   -1.083372
     36          1           0       -2.008117    1.579173    1.221202
     37          1           0       -3.563303    2.396871    1.119374
     38          1           0       -2.810878    3.578198   -0.972276
     39          1           0       -1.246857    2.755854   -0.869869
     40          1           0       -1.716247    3.923318    0.377533
 ---------------------------------------------------------------------

 SCF Done:  E(RHF) =  -470.732572794     A.U. after   11 cycles
 E2 =    -0.1583794741D+01 EUMP2 =    -0.47231636753509D+03

 The electronic state is 1-A.
 Alpha  occ. eigenvalues --  -11.21662 -11.21624 -11.21589 -11.21553 -11.21442
 Alpha  occ. eigenvalues --  -11.21381 -11.21346 -11.21258 -11.21129 -11.21088
 Alpha  occ. eigenvalues --  -11.21057 -11.21035  -1.08481  -1.08386  -1.03595
 Alpha  occ. eigenvalues --   -1.03484  -0.96043  -0.95936  -0.87086  -0.86935
 Alpha  occ. eigenvalues --   -0.79653  -0.79558  -0.78288  -0.78193  -0.65161
 Alpha  occ. eigenvalues --   -0.65066  -0.61082  -0.60885  -0.59321  -0.59306
 Alpha  occ. eigenvalues --   -0.57614  -0.57554  -0.55320  -0.55246  -0.52731
 Alpha  occ. eigenvalues --   -0.52642  -0.52449  -0.52358  -0.50000  -0.49850
 Alpha  occ. eigenvalues --   -0.47971  -0.47858  -0.46699  -0.46582  -0.45848
 Alpha  occ. eigenvalues --   -0.45756  -0.45738  -0.45617  -0.43779  -0.43736
 Alpha virt. eigenvalues --    0.20510   0.23002   0.23772   0.25297   0.26010
 Alpha virt. eigenvalues --    0.26282   0.26752   0.27448   0.27936   0.29313
 Alpha virt. eigenvalues --    0.30938   0.31013   0.31747   0.32020   0.32250

 Mulliken charges:
               1
     1  C   -0.298635
     2  C   -0.299921
     3  C   -0.484801
     4  H    0.149753
     5  H    0.149601
     6  H    0.152671
     7  H    0.151914
     8  H    0.155146
     9  H    0.154810
    10  H    0.170731
    11  C   -0.298318
    12  C   -0.299669
    13  C   -0.475732
    14  H    0.149705
    15  H    0.149694
    16  H    0.152004
    17  H    0.151943
    18  H    0.155205
    19  H    0.155264
    20  H    0.160334
    21  C   -0.298732
    22  C   -0.299693
    23  C   -0.475705
    24  H    0.149446
    25  H    0.149411
    26  H    0.152768
    27  H    0.151759
    28  H    0.154994
    29  H    0.155123
    30  H    0.160096
    31  C   -0.305464
    32  C   -0.301730
    33  C   -0.476517
    34  H    0.156371
    35  H    0.150248
    36  H    0.151763
    37  H    0.152602
    38  H    0.155304
    39  H    0.156248
    40  H    0.160008
 Sum of Mulliken charges =  -0.00000

 Dipole moment (field-independent basis, Debye):
    X=              0.0243    Y=             -0.0042    Z=             -0.0120  Tot=              0.0274
 Quadrupole moment (field-independent basis, Debye-Ang):
   XX=            -85.3386   YY=            -84.8073   ZZ=            -84.7255
   XY=             -1.1387   XZ=             -0.0533   YZ=             -0.2668

 Normal termination of Gaussian 16 at Wed May  5 18:17:41 2021.
