 Gaussian 16, Revision A.03,
 Gaussian 16:  EM64L-G16RevA.03 25-Dec-2016

 -------------
 #p 6-31g* mp2
 -------------

 ------------------------------------------------------
 Input file generated by CHIRIPA (05-May-2021 14:53:12)
 ------------------------------------------------------
 Symbolic Z-matrix:
 Charge =  0 Multiplicity = 1

                         Standard orientation:
 ---------------------------------------------------------------------
 Center     Atomic      Atomic             Coordinates (Angstroms)
 Number     Number       Type             X           Y           Z
 ---------------------------------------------------------------------
      1          6           0       -2.770964    0.661005   -0.600855
      2          6           0       -3.499543    1.965030   -0.274243
      3          6           0       -2.905159    3.172164   -1.000418
      4          1           0       -1.710032    0.764699   -0.335120
      5          1           0       -2.806265    0.491252   -1.685905
      6          1           0       -3.464074    2.131566    0.810019
      7          1           0       -4.558902    1.858154   -0.540609
      8          1           0       -2.954759    3.032032   -2.085086
      9          1           0       -1.853710    3.306998   -0.726784
     10          1           0       -3.441091    4.093679   -0.752533
     11          6           0       -3.353587   -0.554800    0.117543
     12          6           0       -2.625009   -1.858826   -0.209070
     13          6           0       -3.219392   -3.065959    0.517106
     14          1           0       -3.318286   -0.385047    1.202593
     15          1           0       -4.414519   -0.658494   -0.148193
     16          1           0       -1.565649   -1.751949    0.057297
     17          1           0       -2.660478   -2.025361   -1.293331
     18          1           0       -4.270841   -3.200793    0.243472
     19          1           0       -3.169792   -2.925827    1.601774
     20          1           0       -2.683460   -3.987474    0.269221
     21          6           0        1.416503    0.507192    2.449876
     22          6           0        2.640083    1.063001    2.061999
     23          6           0        3.190256    0.766002    0.811539
     24          6           0        2.486749   -0.094531   -0.029799
     25          6           0        1.265718   -0.664097    0.327925
     26          6           0        0.734427   -0.353066    1.583129
     27          1           0        0.996449    0.743358    3.423106
     28          1           0        3.172005    1.731407    2.733071
     29          1           0        4.135792    1.182350    0.485909
     30          1           0        0.758801   -1.327048   -0.362691
     31          1           0       -0.216001   -0.786176    1.881703
     32          7           0        3.059198   -0.416377   -1.356116
     33          8           0        2.419711   -1.177335   -2.079052
     34          8           0        4.136531    0.098411   -1.647634
 ---------------------------------------------------------------------

 SCF Done:  E(RHF) =  -669.534911174     A.U. after   15 cycles
 E2 =    -0.2093203703D+01 EUMP2 =    -0.67162811487703D+03

 The electronic state is 1-A.
 Alpha  occ. eigenvalues --  -20.60775 -20.60768 -15.85828 -11.31212 -11.27794
 Alpha  occ. eigenvalues --  -11.27770 -11.27541 -11.26811 -11.26797 -11.22395
 Alpha  occ. eigenvalues --  -11.22026 -11.21965 -11.21765 -11.21726 -11.21304
 Alpha  occ. eigenvalues --   -1.59848  -1.39401  -1.19398  -1.08991  -1.08783
 Alpha  occ. eigenvalues --   -1.04813  -1.04052  -0.96470  -0.95617  -0.87488
 Alpha  occ. eigenvalues --   -0.86197  -0.82466  -0.80150  -0.78787  -0.77482
 Alpha  occ. eigenvalues --   -0.72046  -0.71171  -0.70510  -0.65730  -0.65034
 Alpha  occ. eigenvalues --   -0.64775  -0.62257  -0.61350  -0.59838  -0.58079
 Alpha  occ. eigenvalues --   -0.55767  -0.55304  -0.53186  -0.53120  -0.52902
 Alpha  occ. eigenvalues --   -0.52858  -0.50420  -0.48808  -0.48803  -0.48429
 Alpha  occ. eigenvalues --   -0.47204  -0.46293  -0.46224  -0.44801  -0.44295
 Alpha  occ. eigenvalues --   -0.37377  -0.36375
 Alpha virt. eigenvalues --    0.05013   0.11234   0.16384   0.19403   0.22828
 Alpha virt. eigenvalues --    0.23767   0.25360   0.26026   0.27515   0.28278
 Alpha virt. eigenvalues --    0.29293   0.30084   0.31266   0.31414   0.32594

 Mulliken charges:
               1
     1  C   -0.303611
     2  C   -0.299257
     3  C   -0.476268
     4  H    0.151223
     5  H    0.154184
     6  H    0.148863
     7  H    0.153042
     8  H    0.157967
     9  H    0.156196
    10  H    0.160508
    11  C   -0.298543
    12  C   -0.306631
    13  C   -0.475736
    14  H    0.143652
    15  H    0.153914
    16  H    0.142429
    17  H    0.160769
    18  H    0.159587
    19  H    0.151400
    20  H    0.163845
    21  C   -0.171492
    22  C   -0.218784
    23  C   -0.170693
    24  C    0.159587
    25  C   -0.176015
    26  C   -0.221671
    27  H    0.225844
    28  H    0.223716
    29  H    0.275817
    30  H    0.280658
    31  H    0.227458
    32  N    0.488745
    33  O   -0.460255
    34  O   -0.460448
 Sum of Mulliken charges =  -0.00000

 Dipole moment (field-independent basis, Debye):
    X=             -2.0944    Y=              1.1346    Z=              4.5623  Tot=              5.1467
 Quadrupole moment (field-independent basis, Debye-Ang):
   XX=           -101.2143   YY=            -94.4754   ZZ=            -94.9687
   XY=              5.7018   XZ=             13.6972   YZ=              0.8709

 Normal termination of Gaussian 16 at Thu May  6 07:18:19 2021.
