 Gaussian 16, Revision A.03,
 Gaussian 16:  EM64L-G16RevA.03 25-Dec-2016

 -------------
 #p 6-31g* mp2
 -------------

 ------------------------------------------------------
 Input file generated by CHIRIPA (05-May-2021 14:55:24)
 ------------------------------------------------------
 Symbolic Z-matrix:
 Charge =  0 Multiplicity = 1

                         Standard orientation:
 ---------------------------------------------------------------------
 Center     Atomic      Atomic             Coordinates (Angstroms)
 Number     Number       Type             X           Y           Z
 ---------------------------------------------------------------------
      1          6           0        0.325421   -1.811586    0.437868
      2          6           0        0.556007   -0.656348    1.192041
      3          6           0        1.733577    0.078184    1.023699
      4          6           0        2.663211   -0.373280    0.088150
      5          6           0        2.462391   -1.520245   -0.678291
      6          6           0        1.277670   -2.239094   -0.493249
      7          1           0       -0.592121   -2.376096    0.575127
      8          1           0       -0.181754   -0.321979    1.915886
      9          1           0        1.937607    0.976083    1.594284
     10          1           0        3.216458   -1.828683   -1.392201
     11          1           0        1.101268   -3.135894   -1.080341
     12          7           0        3.913637    0.396035   -0.098906
     13          8           0        4.716916   -0.022709   -0.929588
     14          8           0        4.066764    1.403200    0.588704
     15          6           0       -3.789834    0.230585   -0.143293
     16          6           0       -3.550124   -1.275343   -0.030581
     17          6           0       -4.849435   -2.081136   -0.013809
     18          1           0       -4.416211    0.559642    0.697134
     19          1           0       -4.361781    0.436275   -1.058696
     20          1           0       -2.977604   -1.477993    0.883624
     21          1           0       -2.924084   -1.600820   -0.871269
     22          1           0       -5.421799   -1.908293   -0.930937
     23          1           0       -5.475622   -1.784768    0.833926
     24          1           0       -4.654781   -3.155097    0.067295
     25          6           0       -2.500407    1.049599   -0.161293
     26          6           0       -2.740117    2.555527   -0.274005
     27          6           0       -1.440806    3.361320   -0.290777
     28          1           0       -1.928460    0.843909    0.754111
     29          1           0       -1.874030    0.720541   -1.001720
     30          1           0       -3.366156    2.881004    0.566683
     31          1           0       -3.312637    2.758178   -1.188210
     32          1           0       -0.814618    3.064952   -1.138513
     33          1           0       -0.868442    3.188477    0.626351
     34          1           0       -1.635461    4.435281   -0.371881
 ---------------------------------------------------------------------

 SCF Done:  E(RHF) =  -669.534267923     A.U. after   15 cycles
 E2 =    -0.2093630491D+01 EUMP2 =    -0.67162789841377D+03

 The electronic state is 1-A.
 Alpha  occ. eigenvalues --  -20.60712 -20.60706 -15.85766 -11.31119 -11.27687
 Alpha  occ. eigenvalues --  -11.27679 -11.27366 -11.26697 -11.26679 -11.22719
 Alpha  occ. eigenvalues --  -11.22190 -11.22107 -11.22023 -11.21964 -11.21440
 Alpha  occ. eigenvalues --   -1.59788  -1.39342  -1.19290  -1.09215  -1.08673
 Alpha  occ. eigenvalues --   -1.04699  -1.04263  -0.96670  -0.95518  -0.87691
 Alpha  occ. eigenvalues --   -0.86100  -0.82364  -0.80375  -0.79030  -0.77403
 Alpha  occ. eigenvalues --   -0.71984  -0.71112  -0.70379  -0.65891  -0.64939
 Alpha  occ. eigenvalues --   -0.64687  -0.62066  -0.61654  -0.60081  -0.58300
 Alpha  occ. eigenvalues --   -0.55954  -0.55188  -0.53388  -0.53196  -0.52953
 Alpha  occ. eigenvalues --   -0.52754  -0.50611  -0.48768  -0.48740  -0.48624
 Alpha  occ. eigenvalues --   -0.47422  -0.46516  -0.46429  -0.44750  -0.44505
 Alpha  occ. eigenvalues --   -0.37213  -0.36259
 Alpha virt. eigenvalues --    0.05102   0.11283   0.16491   0.19584   0.22747
 Alpha virt. eigenvalues --    0.23215   0.24936   0.26205   0.27021   0.27584
 Alpha virt. eigenvalues --    0.29820   0.30519   0.30764   0.31296   0.31831

 Mulliken charges:
               1
     1  C   -0.171682
     2  C   -0.214926
     3  C   -0.172206
     4  C    0.158088
     5  C   -0.171000
     6  C   -0.220350
     7  H    0.230849
     8  H    0.221959
     9  H    0.275082
    10  H    0.275157
    11  H    0.223036
    12  N    0.488083
    13  O   -0.460796
    14  O   -0.460506
    15  C   -0.298304
    16  C   -0.302836
    17  C   -0.475512
    18  H    0.151123
    19  H    0.153316
    20  H    0.141585
    21  H    0.152022
    22  H    0.159283
    23  H    0.158006
    24  H    0.159178
    25  C   -0.298858
    26  C   -0.300686
    27  C   -0.474630
    28  H    0.142008
    29  H    0.154398
    30  H    0.151758
    31  H    0.153885
    32  H    0.159014
    33  H    0.151117
    34  H    0.163344
 Sum of Mulliken charges =  -0.00000

 Dipole moment (field-independent basis, Debye):
    X=             -4.5545    Y=             -2.6231    Z=              0.5501  Tot=              5.2846
 Quadrupole moment (field-independent basis, Debye-Ang):
   XX=           -118.7924   YY=            -91.3379   ZZ=            -91.6272
   XY=             -7.3892   XZ=              0.4224   YZ=              2.1682

 Normal termination of Gaussian 16 at Thu May  6 00:00:43 2021.
