 Gaussian 16, Revision A.03,
 Gaussian 16:  EM64L-G16RevA.03 25-Dec-2016

 -------------
 #p 6-31g* mp2
 -------------

 ------------------------------------------------------
 Input file generated by CHIRIPA (05-May-2021 14:53:18)
 ------------------------------------------------------
 Symbolic Z-matrix:
 Charge =  0 Multiplicity = 1

                         Standard orientation:
 ---------------------------------------------------------------------
 Center     Atomic      Atomic             Coordinates (Angstroms)
 Number     Number       Type             X           Y           Z
 ---------------------------------------------------------------------
      1          6           0        4.026984   -0.207010    0.337530
      2          6           0        3.465863   -1.629159    0.312627
      3          6           0        2.018475   -1.702201    0.799995
      4          1           0        3.962749    0.187831    1.360721
      5          1           0        3.395632    0.439799   -0.287312
      6          1           0        4.098884   -2.273387    0.936222
      7          1           0        3.531618   -2.020731   -0.710585
      8          1           0        1.369100   -1.082815    0.172878
      9          1           0        1.939590   -1.336907    1.829042
     10          1           0        1.637356   -2.727836    0.773922
     11          6           0        5.473046   -0.117734   -0.146890
     12          6           0        6.034167    1.304415   -0.121987
     13          6           0        7.481555    1.377456   -0.609355
     14          1           0        6.104398   -0.764543    0.477952
     15          1           0        5.537281   -0.512576   -1.170081
     16          1           0        5.968412    1.695987    0.901225
     17          1           0        5.401146    1.948643   -0.745582
     18          1           0        7.560440    1.012163   -1.638402
     19          1           0        8.130930    0.758071    0.017762
     20          1           0        7.862674    2.403092   -0.583282
     21          6           0       -2.981072   -2.270158   -0.370343
     22          6           0       -4.335994   -1.934732   -0.460892
     23          6           0       -4.751827   -0.609849   -0.298663
     24          6           0       -3.781511    0.358587   -0.045865
     25          6           0       -2.424138    0.055878    0.050030
     26          6           0       -2.031143   -1.275536   -0.115620
     27          1           0       -2.666914   -3.301895   -0.497696
     28          1           0       -5.075930   -2.705084   -0.658622
     29          1           0       -5.794204   -0.322393   -0.363752
     30          1           0       -1.709804    0.845760    0.248100
     31          1           0       -0.978208   -1.533120   -0.044773
     32          7           0       -4.209646    1.764638    0.127691
     33          8           0       -3.335149    2.599295    0.349593
     34          8           0       -5.411607    2.005421    0.038535
 ---------------------------------------------------------------------

 SCF Done:  E(RHF) =  -669.535566975     A.U. after   15 cycles
 E2 =    -0.2090834725D+01 EUMP2 =    -0.67162640170075D+03

 The electronic state is 1-A.
 Alpha  occ. eigenvalues --  -20.60704 -20.60699 -15.85756 -11.31105 -11.27672
 Alpha  occ. eigenvalues --  -11.27653 -11.27400 -11.26690 -11.26609 -11.22352
 Alpha  occ. eigenvalues --  -11.22175 -11.21925 -11.21884 -11.21766 -11.21293
 Alpha  occ. eigenvalues --   -1.59780  -1.39334  -1.19270  -1.08944  -1.08669
 Alpha  occ. eigenvalues --   -1.04669  -1.04092  -0.96570  -0.95509  -0.87604
 Alpha  occ. eigenvalues --   -0.86065  -0.82342  -0.80171  -0.78710  -0.77389
 Alpha  occ. eigenvalues --   -0.71975  -0.71103  -0.70384  -0.65580  -0.64921
 Alpha  occ. eigenvalues --   -0.64681  -0.62068  -0.61450  -0.59960  -0.58147
 Alpha  occ. eigenvalues --   -0.55878  -0.55167  -0.53341  -0.53040  -0.53002
 Alpha  occ. eigenvalues --   -0.52652  -0.50490  -0.48734  -0.48731  -0.48468
 Alpha  occ. eigenvalues --   -0.47172  -0.46263  -0.46156  -0.44743  -0.44327
 Alpha  occ. eigenvalues --   -0.37254  -0.36271
 Alpha virt. eigenvalues --    0.05138   0.11376   0.16633   0.20399   0.22507
 Alpha virt. eigenvalues --    0.23817   0.25445   0.26326   0.27088   0.28189
 Alpha virt. eigenvalues --    0.28845   0.30388   0.30863   0.31201   0.32168

 Mulliken charges:
               1
     1  C   -0.299558
     2  C   -0.299162
     3  C   -0.481523
     4  H    0.151632
     5  H    0.150324
     6  H    0.155187
     7  H    0.153181
     8  H    0.148553
     9  H    0.161284
    10  H    0.158177
    11  C   -0.298842
    12  C   -0.300273
    13  C   -0.476052
    14  H    0.150251
    15  H    0.150081
    16  H    0.153046
    17  H    0.153189
    18  H    0.155392
    19  H    0.155377
    20  H    0.161834
    21  C   -0.172680
    22  C   -0.218343
    23  C   -0.171494
    24  C    0.158738
    25  C   -0.173701
    26  C   -0.226697
    27  H    0.225647
    28  H    0.222930
    29  H    0.275229
    30  H    0.274984
    31  H    0.236587
    32  N    0.488109
    33  O   -0.460624
    34  O   -0.460783
 Sum of Mulliken charges =  -0.00000

 Dipole moment (field-independent basis, Debye):
    X=              1.7551    Y=             -4.9540    Z=             -0.5794  Tot=              5.2876
 Quadrupole moment (field-independent basis, Debye-Ang):
   XX=           -101.9281   YY=            -98.5892   ZZ=            -94.6159
   XY=             20.7018   XZ=              3.7941   YZ=              0.1483

 Normal termination of Gaussian 16 at Wed May  5 18:49:03 2021.
