 Gaussian 16, Revision A.03,
 Gaussian 16:  EM64L-G16RevA.03 25-Dec-2016

 -------------
 #p 6-31g* mp2
 -------------

 ------------------------------------------------------
 Input file generated by CHIRIPA (05-May-2021 14:55:24)
 ------------------------------------------------------
 Symbolic Z-matrix:
 Charge =  0 Multiplicity = 1

                         Standard orientation:
 ---------------------------------------------------------------------
 Center     Atomic      Atomic             Coordinates (Angstroms)
 Number     Number       Type             X           Y           Z
 ---------------------------------------------------------------------
      1          6           0       -2.609371   -2.659849    0.011827
      2          6           0       -1.872598   -2.088170    1.054357
      3          6           0       -1.695633   -0.703032    1.122358
      4          6           0       -2.271888    0.084096    0.126542
      5          6           0       -3.011335   -0.455628   -0.924746
      6          6           0       -3.175391   -1.843194   -0.972661
      7          1           0       -2.741828   -3.736801   -0.033197
      8          1           0       -1.431881   -2.719942    1.820305
      9          1           0       -1.129996   -0.234114    1.918341
     10          1           0       -3.438661    0.200005   -1.673715
     11          1           0       -3.748077   -2.284407   -1.783468
     12          7           0       -2.091376    1.551764    0.187900
     13          8           0       -2.609191    2.223399   -0.701713
     14          8           0       -1.435494    2.002698    1.124444
     15          6           0        2.994146    0.921407    0.103046
     16          6           0        1.969485    1.858140   -0.537723
     17          6           0        2.078158    3.293872   -0.023274
     18          1           0        2.860415    0.932823    1.193427
     19          1           0        4.004718    1.306258   -0.091967
     20          1           0        0.961202    1.470889   -0.342739
     21          1           0        2.105546    1.844345   -1.626720
     22          1           0        3.071805    3.703574   -0.231626
     23          1           0        1.920958    3.327996    1.059650
     24          1           0        1.336507    3.946390   -0.494478
     25          6           0        2.898049   -0.517456   -0.401105
     26          6           0        3.922710   -1.454188    0.239665
     27          6           0        3.814037   -2.889919   -0.274785
     28          1           0        1.887477   -0.902305   -0.206092
     29          1           0        3.031780   -0.528871   -1.491487
     30          1           0        3.786648   -1.440394    1.328661
     31          1           0        4.930992   -1.066937    0.044680
     32          1           0        3.971236   -2.924043   -1.357709
     33          1           0        2.820390   -3.299622   -0.066433
     34          1           0        4.555687   -3.542438    0.196419
 ---------------------------------------------------------------------

 SCF Done:  E(RHF) =  -669.536124567     A.U. after   15 cycles
 E2 =    -0.2092355166D+01 EUMP2 =    -0.67162847973217D+03

 The electronic state is 1-A.
 Alpha  occ. eigenvalues --  -20.60952 -20.60947 -15.85969 -11.31310 -11.27884
 Alpha  occ. eigenvalues --  -11.27860 -11.27601 -11.26885 -11.26867 -11.21570
 Alpha  occ. eigenvalues --  -11.21198 -11.21182 -11.20934 -11.20810 -11.20009
 Alpha  occ. eigenvalues --   -1.60009  -1.39565  -1.19476  -1.08876  -1.08089
 Alpha  occ. eigenvalues --   -1.04873  -1.03098  -0.95718  -0.95548  -0.86572
 Alpha  occ. eigenvalues --   -0.86271  -0.82550  -0.79223  -0.77862  -0.77600
 Alpha  occ. eigenvalues --   -0.72198  -0.71338  -0.70579  -0.65133  -0.64874
 Alpha  occ. eigenvalues --   -0.64722  -0.62220  -0.60487  -0.58981  -0.57134
 Alpha  occ. eigenvalues --   -0.55372  -0.54850  -0.53196  -0.52962  -0.52221
 Alpha  occ. eigenvalues --   -0.51982  -0.49522  -0.48961  -0.48950  -0.47524
 Alpha  occ. eigenvalues --   -0.46302  -0.45530  -0.45361  -0.44702  -0.43359
 Alpha  occ. eigenvalues --   -0.37446  -0.36467
 Alpha virt. eigenvalues --    0.04908   0.11139   0.16371   0.21214   0.23039
 Alpha virt. eigenvalues --    0.24692   0.26534   0.27387   0.27656   0.28325
 Alpha virt. eigenvalues --    0.28457   0.30663   0.31723   0.31981   0.32562

 Mulliken charges:
               1
     1  C   -0.170386
     2  C   -0.218841
     3  C   -0.171880
     4  C    0.157489
     5  C   -0.170488
     6  C   -0.218313
     7  H    0.226253
     8  H    0.224056
     9  H    0.275820
    10  H    0.276026
    11  H    0.224038
    12  N    0.488270
    13  O   -0.458063
    14  O   -0.458102
    15  C   -0.298164
    16  C   -0.299824
    17  C   -0.472674
    18  H    0.148546
    19  H    0.148371
    20  H    0.153014
    21  H    0.147924
    22  H    0.147665
    23  H    0.159657
    24  H    0.168166
    25  C   -0.298191
    26  C   -0.299044
    27  C   -0.474661
    28  H    0.145321
    29  H    0.149396
    30  H    0.149795
    31  H    0.153110
    32  H    0.155718
    33  H    0.150503
    34  H    0.159493
 Sum of Mulliken charges =  -0.00000

 Dipole moment (field-independent basis, Debye):
    X=             -0.8418    Y=             -5.0555    Z=             -0.2035  Tot=              5.1292
 Quadrupole moment (field-independent basis, Debye-Ang):
   XX=            -90.8909   YY=            -97.0832   ZZ=            -91.0853
   XY=             11.8161   XZ=              2.6696   YZ=             -1.5284

 Normal termination of Gaussian 16 at Thu May  6 07:54:53 2021.
