 Gaussian 16, Revision A.03,
 Gaussian 16:  EM64L-G16RevA.03 25-Dec-2016

 -------------
 #p 6-31g* mp2
 -------------

 ------------------------------------------------------
 Input file generated by CHIRIPA (05-May-2021 14:53:13)
 ------------------------------------------------------
 Symbolic Z-matrix:
 Charge =  0 Multiplicity = 1

                         Standard orientation:
 ---------------------------------------------------------------------
 Center     Atomic      Atomic             Coordinates (Angstroms)
 Number     Number       Type             X           Y           Z
 ---------------------------------------------------------------------
      1          6           0        2.680961   -0.776305   -0.211006
      2          6           0        2.030825   -1.006684   -1.575643
      3          6           0        0.720671   -1.789287   -1.481717
      4          1           0        2.865763   -1.747264    0.268610
      5          1           0        1.976157   -0.236818    0.436759
      6          1           0        2.737165   -1.544360   -2.221093
      7          1           0        1.847724   -0.035071   -2.052148
      8          1           0       -0.004072   -1.253994   -0.859776
      9          1           0        0.890422   -2.771859   -1.029680
     10          1           0        0.273001   -1.942635   -2.468599
     11          6           0        3.991578    0.004727   -0.288460
     12          6           0        4.641714    0.235106    1.076178
     13          6           0        5.951869    1.017708    0.982252
     14          1           0        4.696382   -0.534761   -0.936225
     15          1           0        3.806776    0.975685   -0.768076
     16          1           0        4.824815   -0.736508    1.552683
     17          1           0        3.935374    0.772781    1.721627
     18          1           0        5.782117    2.000280    0.530215
     19          1           0        6.676611    0.482416    0.360311
     20          1           0        6.399538    1.171057    1.969134
     21          6           0       -2.992971   -1.930022    1.307442
     22          6           0       -2.842046   -0.777097    2.084941
     23          6           0       -2.627453    0.464590    1.479373
     24          6           0       -2.569094    0.517123    0.087567
     25          6           0       -2.715704   -0.613676   -0.714361
     26          6           0       -2.929430   -1.844782   -0.087269
     27          1           0       -3.159336   -2.890485    1.786222
     28          1           0       -2.890935   -0.840299    3.168297
     29          1           0       -2.507293    1.372932    2.057209
     30          1           0       -2.662147   -0.519104   -1.792139
     31          1           0       -3.046294   -2.738506   -0.693608
     32          7           0       -2.342373    1.826041   -0.564914
     33          8           0       -2.295030    1.845670   -1.792925
     34          8           0       -2.216304    2.807557    0.164037
 ---------------------------------------------------------------------

 SCF Done:  E(RHF) =  -669.534693364     A.U. after   15 cycles
 E2 =    -0.2092553933D+01 EUMP2 =    -0.67162724729738D+03

 The electronic state is 1-A.
 Alpha  occ. eigenvalues --  -20.60813 -20.60808 -15.85868 -11.31222 -11.27805
 Alpha  occ. eigenvalues --  -11.27772 -11.27533 -11.26802 -11.26773 -11.21509
 Alpha  occ. eigenvalues --  -11.21502 -11.21324 -11.21239 -11.21075 -11.20957
 Alpha  occ. eigenvalues --   -1.59891  -1.39443  -1.19414  -1.08797  -1.08341
 Alpha  occ. eigenvalues --   -1.04813  -1.03457  -0.95934  -0.95629  -0.86955
 Alpha  occ. eigenvalues --   -0.86198  -0.82461  -0.79530  -0.78153  -0.77508
 Alpha  occ. eigenvalues --   -0.72083  -0.71221  -0.70507  -0.65053  -0.64972
 Alpha  occ. eigenvalues --   -0.64792  -0.62150  -0.60868  -0.59297  -0.57547
 Alpha  occ. eigenvalues --   -0.55328  -0.55276  -0.53283  -0.52887  -0.52617
 Alpha  occ. eigenvalues --   -0.52225  -0.49825  -0.48843  -0.48839  -0.47834
 Alpha  occ. eigenvalues --   -0.46539  -0.45696  -0.45610  -0.44846  -0.43724
 Alpha  occ. eigenvalues --   -0.37390  -0.36310
 Alpha virt. eigenvalues --    0.05016   0.11211   0.16483   0.21277   0.22949
 Alpha virt. eigenvalues --    0.24306   0.26739   0.26894   0.27593   0.28024
 Alpha virt. eigenvalues --    0.28594   0.30918   0.31505   0.31669   0.32060

 Mulliken charges:
               1
     1  C   -0.298025
     2  C   -0.300256
     3  C   -0.481983
     4  H    0.146954
     5  H    0.149727
     6  H    0.150938
     7  H    0.158317
     8  H    0.162932
     9  H    0.150554
    10  H    0.155653
    11  C   -0.298814
    12  C   -0.299589
    13  C   -0.475824
    14  H    0.148981
    15  H    0.153163
    16  H    0.150110
    17  H    0.152278
    18  H    0.156960
    19  H    0.154755
    20  H    0.159586
    21  C   -0.170796
    22  C   -0.218391
    23  C   -0.171726
    24  C    0.159778
    25  C   -0.174776
    26  C   -0.214106
    27  H    0.225957
    28  H    0.223634
    29  H    0.275663
    30  H    0.276713
    31  H    0.224595
    32  N    0.488081
    33  O   -0.460391
    34  O   -0.460650
 Sum of Mulliken charges =  -0.00000

 Dipole moment (field-independent basis, Debye):
    X=             -0.8575    Y=             -4.5613    Z=              2.3027  Tot=              5.1810
 Quadrupole moment (field-independent basis, Debye-Ang):
   XX=            -92.1043   YY=            -98.7944   ZZ=            -90.4941
   XY=             11.0322   XZ=             -6.0674   YZ=              2.9177

 Normal termination of Gaussian 16 at Thu May  6 05:46:39 2021.
