 Gaussian 16, Revision A.03,
 Gaussian 16:  EM64L-G16RevA.03 25-Dec-2016

 -------------
 #p 6-31g* mp2
 -------------

 ------------------------------------------------------
 Input file generated by CHIRIPA (05-May-2021 14:55:20)
 ------------------------------------------------------
 Symbolic Z-matrix:
 Charge =  0 Multiplicity = 1

                         Standard orientation:
 ---------------------------------------------------------------------
 Center     Atomic      Atomic             Coordinates (Angstroms)
 Number     Number       Type             X           Y           Z
 ---------------------------------------------------------------------
      1          6           0        4.139802    1.779214   -0.716577
      2          6           0        3.385542    2.026790    0.435083
      3          6           0        2.519868    1.052012    0.940025
      4          6           0        2.432735   -0.164621    0.265116
      5          6           0        3.171064   -0.441301   -0.884497
      6          6           0        4.030348    0.548129   -1.371536
      7          1           0        4.809796    2.542135   -1.101874
      8          1           0        3.468518    2.981948    0.945801
      9          1           0        1.924336    1.217194    1.829673
     10          1           0        3.066989   -1.403124   -1.371817
     11          1           0        4.614899    0.353082   -2.266132
     12          7           0        1.519667   -1.204329    0.790199
     13          8           0        1.460935   -2.268017    0.177209
     14          8           0        0.880024   -0.935879    1.804807
     15          6           0       -2.717899   -0.493668   -0.269641
     16          6           0       -3.145170   -1.956449   -0.394922
     17          6           0       -1.956449   -2.914654   -0.476026
     18          1           0       -2.088362   -0.227242   -1.129668
     19          1           0       -2.090445   -0.377539    0.624906
     20          1           0       -3.772770   -2.069515   -1.288202
     21          1           0       -3.773919   -2.219369    0.465405
     22          1           0       -1.332557   -2.831204    0.419739
     23          1           0       -1.331402   -2.680498   -1.343833
     24          1           0       -2.284694   -3.954930   -0.565138
     25          6           0       -3.895143    0.476423   -0.187513
     26          6           0       -3.467871    1.939204   -0.062232
     27          6           0       -4.656592    2.897410    0.018872
     28          1           0       -4.522596    0.360295   -1.082058
     29          1           0       -4.524678    0.209998    0.672515
     30          1           0       -2.839122    2.202124   -0.922559
     31          1           0       -2.840271    2.052270    0.831049
     32          1           0       -5.281639    2.663254    0.886679
     33          1           0       -5.280484    2.813960   -0.876893
     34          1           0       -4.328347    3.937687    0.107985
 ---------------------------------------------------------------------

 SCF Done:  E(RHF) =  -669.536577734     A.U. after   15 cycles
 E2 =    -0.2092185136D+01 EUMP2 =    -0.67162876286976D+03

 The electronic state is 1-A.
 Alpha  occ. eigenvalues --  -20.61030 -20.61017 -15.86012 -11.31312 -11.27868
 Alpha  occ. eigenvalues --  -11.27864 -11.27602 -11.26869 -11.26859 -11.21122
 Alpha  occ. eigenvalues --  -11.20713 -11.20675 -11.20408 -11.20339 -11.19313
 Alpha  occ. eigenvalues --   -1.60056  -1.39615  -1.19474  -1.08885  -1.07580
 Alpha  occ. eigenvalues --   -1.04866  -1.02608  -0.95734  -0.95023  -0.86269
 Alpha  occ. eigenvalues --   -0.86035  -0.82569  -0.78726  -0.77628  -0.77336
 Alpha  occ. eigenvalues --   -0.72235  -0.71349  -0.70585  -0.65130  -0.64871
 Alpha  occ. eigenvalues --   -0.64216  -0.62214  -0.60006  -0.58501  -0.56638
 Alpha  occ. eigenvalues --   -0.55376  -0.54300  -0.53199  -0.52958  -0.51746
 Alpha  occ. eigenvalues --   -0.51465  -0.49199  -0.49009  -0.48788  -0.46965
 Alpha  occ. eigenvalues --   -0.45763  -0.45087  -0.44835  -0.44629  -0.42874
 Alpha  occ. eigenvalues --   -0.37447  -0.36464
 Alpha virt. eigenvalues --    0.04873   0.11192   0.16358   0.21315   0.23644
 Alpha virt. eigenvalues --    0.25282   0.27222   0.27481   0.28007   0.28457
 Alpha virt. eigenvalues --    0.29097   0.30937   0.32261   0.32466   0.32525

 Mulliken charges:
               1
     1  C   -0.170484
     2  C   -0.218557
     3  C   -0.170338
     4  C    0.159826
     5  C   -0.170833
     6  C   -0.218615
     7  H    0.226074
     8  H    0.223931
     9  H    0.275707
    10  H    0.275905
    11  H    0.223881
    12  N    0.488859
    13  O   -0.456484
    14  O   -0.461509
    15  C   -0.303009
    16  C   -0.299165
    17  C   -0.479945
    18  H    0.142767
    19  H    0.161716
    20  H    0.144841
    21  H    0.149266
    22  H    0.181347
    23  H    0.150653
    24  H    0.152211
    25  C   -0.297070
    26  C   -0.298900
    27  C   -0.474994
    28  H    0.146858
    29  H    0.149437
    30  H    0.148554
    31  H    0.151543
    32  H    0.155341
    33  H    0.154330
    34  H    0.156855
 Sum of Mulliken charges =  -0.00000

 Dipole moment (field-independent basis, Debye):
    X=              3.5596    Y=              3.5767    Z=             -1.7060  Tot=              5.3268
 Quadrupole moment (field-independent basis, Debye-Ang):
   XX=            -80.8603   YY=            -95.4012   ZZ=            -92.3915
   XY=              8.2741   XZ=             -5.3332   YZ=              3.5312

 Normal termination of Gaussian 16 at Thu May  6 02:57:09 2021.
