 Gaussian 16, Revision A.03,
 Gaussian 16:  EM64L-G16RevA.03 25-Dec-2016

 -------------
 #p 6-31g* mp2
 -------------

 ------------------------------------------------------
 Input file generated by CHIRIPA (05-May-2021 14:55:23)
 ------------------------------------------------------
 Symbolic Z-matrix:
 Charge =  0 Multiplicity = 1

                         Standard orientation:
 ---------------------------------------------------------------------
 Center     Atomic      Atomic             Coordinates (Angstroms)
 Number     Number       Type             X           Y           Z
 ---------------------------------------------------------------------
      1          6           0       -3.879002   -2.438983    0.350224
      2          6           0       -2.511233   -2.291303    0.097405
      3          6           0       -1.966246   -1.026620   -0.143664
      4          6           0       -2.821915    0.073719   -0.124310
      5          6           0       -4.188745   -0.040975    0.124508
      6          6           0       -4.711925   -1.315329    0.362946
      7          1           0       -4.293891   -3.425176    0.536471
      8          1           0       -1.861987   -3.162173    0.086907
      9          1           0       -0.910971   -0.883663   -0.342099
     10          1           0       -4.810794    0.845850    0.128464
     11          1           0       -5.774531   -1.427018    0.559005
     12          7           0       -2.256505    1.417702   -0.378127
     13          8           0       -3.031585    2.371316   -0.355580
     14          8           0       -1.048963    1.492052   -0.594809
     15          6           0        3.980707   -0.375815   -0.343917
     16          6           0        4.800253   -1.428380    0.403370
     17          6           0        5.292105   -2.552155   -0.509321
     18          1           0        3.121011   -0.862777   -0.824266
     19          1           0        4.591770    0.048343   -1.152674
     20          1           0        4.188295   -1.849440    1.211350
     21          1           0        5.657992   -0.938824    0.882156
     22          1           0        5.924445   -2.150937   -1.307927
     23          1           0        4.446397   -3.066727   -0.976862
     24          1           0        5.875682   -3.293490    0.045405
     25          6           0        3.481952    0.754146    0.555060
     26          6           0        2.662407    1.806710   -0.192227
     27          6           0        2.170555    2.930486    0.720465
     28          1           0        2.870889    0.329988    1.363817
     29          1           0        4.341648    1.241107    1.035410
     30          1           0        1.804667    1.317156   -0.671012
     31          1           0        3.274365    2.227771   -1.000206
     32          1           0        3.016263    3.445057    1.188005
     33          1           0        1.538214    2.529268    1.519071
     34          1           0        1.586978    3.671820    0.165739
 ---------------------------------------------------------------------

 SCF Done:  E(RHF) =  -669.535954264     A.U. after   15 cycles
 E2 =    -0.2091308318D+01 EUMP2 =    -0.67162726258188D+03

 The electronic state is 1-A.
 Alpha  occ. eigenvalues --  -20.60935 -20.60930 -15.85976 -11.31305 -11.27876
 Alpha  occ. eigenvalues --  -11.27863 -11.27605 -11.26879 -11.26868 -11.21398
 Alpha  occ. eigenvalues --  -11.21020 -11.20977 -11.20728 -11.20442 -11.19798
 Alpha  occ. eigenvalues --   -1.59998  -1.39555  -1.19474  -1.08875  -1.07877
 Alpha  occ. eigenvalues --   -1.04873  -1.02860  -0.95720  -0.95331  -0.86361
 Alpha  occ. eigenvalues --   -0.86272  -0.82554  -0.78996  -0.77676  -0.77540
 Alpha  occ. eigenvalues --   -0.72206  -0.71313  -0.70583  -0.65136  -0.64875
 Alpha  occ. eigenvalues --   -0.64515  -0.62222  -0.60245  -0.58767  -0.56899
 Alpha  occ. eigenvalues --   -0.55374  -0.54640  -0.53202  -0.52965  -0.52001
 Alpha  occ. eigenvalues --   -0.51764  -0.49333  -0.48957  -0.48937  -0.47283
 Alpha  occ. eigenvalues --   -0.46058  -0.45164  -0.45019  -0.44956  -0.43134
 Alpha  occ. eigenvalues --   -0.37452  -0.36474
 Alpha virt. eigenvalues --    0.04925   0.11180   0.16418   0.20894   0.23046
 Alpha virt. eigenvalues --    0.24741   0.26266   0.27437   0.27711   0.28555
 Alpha virt. eigenvalues --    0.28956   0.30838   0.31732   0.32144   0.32995

 Mulliken charges:
               1
     1  C   -0.170614
     2  C   -0.218572
     3  C   -0.170554
     4  C    0.157817
     5  C   -0.170824
     6  C   -0.218515
     7  H    0.226077
     8  H    0.223903
     9  H    0.275109
    10  H    0.275928
    11  H    0.223892
    12  N    0.495322
    13  O   -0.459037
    14  O   -0.467129
    15  C   -0.296297
    16  C   -0.298870
    17  C   -0.474857
    18  H    0.144001
    19  H    0.150180
    20  H    0.148802
    21  H    0.152620
    22  H    0.156011
    23  H    0.151889
    24  H    0.158916
    25  C   -0.297894
    26  C   -0.305684
    27  C   -0.470206
    28  H    0.145238
    29  H    0.147498
    30  H    0.169340
    31  H    0.147209
    32  H    0.145845
    33  H    0.153608
    34  H    0.169845
 Sum of Mulliken charges =  -0.00000

 Dipole moment (field-independent basis, Debye):
    X=             -2.2594    Y=             -4.6363    Z=              0.8311  Tot=              5.2241
 Quadrupole moment (field-independent basis, Debye-Ang):
   XX=            -79.5604   YY=            -95.6457   ZZ=            -96.2270
   XY=             12.2297   XZ=             -3.0677   YZ=              0.1330

 Normal termination of Gaussian 16 at Thu May  6 03:08:34 2021.
