 Gaussian 16, Revision A.03,
 Gaussian 16:  EM64L-G16RevA.03 25-Dec-2016

 -------------
 #p 6-31g* mp2
 -------------

 ------------------------------------------------------
 Input file generated by CHIRIPA (05-May-2021 14:57:21)
 ------------------------------------------------------
 Symbolic Z-matrix:
 Charge =  0 Multiplicity = 1

                         Standard orientation:
 ---------------------------------------------------------------------
 Center     Atomic      Atomic             Coordinates (Angstroms)
 Number     Number       Type             X           Y           Z
 ---------------------------------------------------------------------
      1          6           0       -0.826276   -0.451749    0.221590
      2          6           0       -1.376139   -0.213413   -1.042280
      3          6           0       -2.750275   -0.002887   -1.190531
      4          6           0       -3.548766   -0.037684   -0.048388
      5          6           0       -3.030780   -0.272705    1.224304
      6          6           0       -1.653893   -0.480583    1.348861
      7          1           0        0.242254   -0.614262    0.327551
      8          1           0       -0.735814   -0.190459   -1.919493
      9          1           0       -3.202305    0.183777   -2.157094
     10          1           0       -3.694509   -0.289672    2.080222
     11          1           0       -1.229623   -0.665452    2.331645
     12          7           0       -5.004959    0.183789   -0.192793
     13          8           0       -5.686969    0.148140    0.829082
     14          8           0       -5.436739    0.388836   -1.325117
     15          6           0        3.268657    2.589335    0.220383
     16          6           0        3.665757    1.986738   -0.977827
     17          6           0        3.691806    0.594074   -1.097649
     18          6           0        3.312645   -0.168970    0.005660
     19          6           0        2.912214    0.401782    1.212800
     20          6           0        2.893814    1.796332    1.309952
     21          1           0        3.251392    3.671923    0.304659
     22          1           0        3.957393    2.600093   -1.825642
     23          1           0        3.995000    0.101417   -2.013499
     24          1           0        2.627047   -0.235999    2.040650
     25          1           0        2.584978    2.261576    2.241731
     26          7           0        3.336174   -1.644320   -0.109190
     27          8           0        2.997447   -2.294310    0.877427
     28          8           0        3.692897   -2.122772   -1.183652
 ---------------------------------------------------------------------

 SCF Done:  E(RHF) =  -868.337798054     A.U. after   16 cycles
 E2 =    -0.2600983896D+01 EUMP2 =    -0.87093878195014D+03

 The electronic state is 1-A.
 Alpha  occ. eigenvalues --  -20.61949 -20.61936 -20.60680 -20.60675 -15.86980
 Alpha  occ. eigenvalues --  -15.85734 -11.32355 -11.31054 -11.28912 -11.28846
 Alpha  occ. eigenvalues --  -11.28525 -11.27859 -11.27821 -11.27641 -11.27630
 Alpha  occ. eigenvalues --  -11.27290 -11.26628 -11.26601  -1.61021  -1.59757
 Alpha  occ. eigenvalues --   -1.40570  -1.39312  -1.20505  -1.19226  -1.09876
 Alpha  occ. eigenvalues --   -1.08617  -1.05878  -1.04631  -0.96712  -0.95462
 Alpha  occ. eigenvalues --   -0.87270  -0.86024  -0.83526  -0.82304  -0.78603
 Alpha  occ. eigenvalues --   -0.77363  -0.73175  -0.72408  -0.71952  -0.71549
 Alpha  occ. eigenvalues --   -0.71081  -0.70294  -0.66120  -0.65832  -0.64875
 Alpha  occ. eigenvalues --   -0.64639  -0.63210  -0.61986  -0.56315  -0.55283
 Alpha  occ. eigenvalues --   -0.54055  -0.53930  -0.52948  -0.52722  -0.49956
 Alpha  occ. eigenvalues --   -0.49934  -0.48709  -0.48707  -0.45950  -0.44728
 Alpha  occ. eigenvalues --   -0.38446  -0.37539  -0.37114  -0.36243
 Alpha virt. eigenvalues --    0.03884   0.05190   0.10053   0.11416   0.15417
 Alpha virt. eigenvalues --    0.16694   0.20304   0.21523   0.26103   0.27032
 Alpha virt. eigenvalues --    0.27609   0.28118   0.30321   0.31033   0.31550

 Mulliken charges:
               1
     1  C   -0.169604
     2  C   -0.220775
     3  C   -0.170874
     4  C    0.157719
     5  C   -0.170908
     6  C   -0.221728
     7  H    0.230181
     8  H    0.223333
     9  H    0.274865
    10  H    0.274763
    11  H    0.221519
    12  N    0.488093
    13  O   -0.461071
    14  O   -0.460980
    15  C   -0.169987
    16  C   -0.217645
    17  C   -0.173283
    18  C    0.154069
    19  C   -0.183439
    20  C   -0.214579
    21  H    0.230662
    22  H    0.227859
    23  H    0.278177
    24  H    0.274279
    25  H    0.227404
    26  N    0.487862
    27  O   -0.460732
    28  O   -0.455180
 Sum of Mulliken charges =  -0.00000

 Dipole moment (field-independent basis, Debye):
    X=              5.3618    Y=              4.5694    Z=              0.8476  Tot=              7.0956
 Quadrupole moment (field-independent basis, Debye-Ang):
   XX=           -142.1386   YY=           -107.2644   ZZ=            -95.4658
   XY=             20.7387   XZ=             -3.3108   YZ=             -0.9994

 Normal termination of Gaussian 16 at Wed May  5 16:14:53 2021.
