 Gaussian 16, Revision A.03,
 Gaussian 16:  EM64L-G16RevA.03 25-Dec-2016

 -------------
 #p 6-31g* mp2
 -------------

 ------------------------------------------------------
 Input file generated by CHIRIPA (05-May-2021 14:51:08)
 ------------------------------------------------------
 Symbolic Z-matrix:
 Charge =  0 Multiplicity = 1

                         Standard orientation:
 ---------------------------------------------------------------------
 Center     Atomic      Atomic             Coordinates (Angstroms)
 Number     Number       Type             X           Y           Z
 ---------------------------------------------------------------------
      1          6           0       -3.052344    1.262743   -0.343174
      2          6           0       -2.355530    2.366635    0.452977
      3          6           0       -2.355865    3.710987   -0.275387
      4          1           0       -2.556790    1.153583   -1.317574
      5          1           0       -4.087247    1.567818   -0.551262
      6          1           0       -1.322665    2.058969    0.660694
      7          1           0       -2.852681    2.473049    1.425671
      8          1           0       -3.380672    4.043897   -0.469147
      9          1           0       -1.841963    3.627465   -1.238470
     10          1           0       -1.852732    4.485720    0.311559
     11          6           0       -3.060160   -0.087192    0.371909
     12          6           0       -3.756974   -1.191085   -0.424241
     13          6           0       -3.756639   -2.535436    0.304122
     14          1           0       -2.025258   -0.392268    0.579998
     15          1           0       -3.555715    0.021967    1.346309
     16          1           0       -3.259824   -1.297498   -1.396935
     17          1           0       -4.789840   -0.883418   -0.631959
     18          1           0       -4.270542   -2.451914    1.267206
     19          1           0       -2.731833   -2.868347    0.497883
     20          1           0       -4.259772   -3.310169   -0.282824
     21          6           0        3.378660    0.071505    0.197374
     22          6           0        4.834166    0.206341   -0.251301
     23          6           0        5.465400    1.530541    0.179778
     24          1           0        2.796176    0.907753   -0.212927
     25          1           0        3.329456    0.163300    1.291242
     26          1           0        4.880774    0.112936   -1.343876
     27          1           0        5.413213   -0.630430    0.159957
     28          1           0        5.448289    1.628582    1.270052
     29          1           0        4.912826    2.376172   -0.242326
     30          1           0        6.505851    1.605911   -0.151341
     31          6           0        2.733844   -1.247055   -0.226109
     32          6           0        1.278339   -1.381891    0.222566
     33          6           0        0.647105   -2.706092   -0.208514
     34          1           0        2.783049   -1.338850   -1.319977
     35          1           0        3.316328   -2.083303    0.184192
     36          1           0        0.699292   -0.545120   -0.188692
     37          1           0        1.231730   -1.288487    1.315141
     38          1           0        1.199679   -3.551722    0.213591
     39          1           0        0.664215   -2.804132   -1.298787
     40          1           0       -0.393346   -2.781462    0.122606
 ---------------------------------------------------------------------

 SCF Done:  E(RHF) =  -470.733226564     A.U. after   11 cycles
 E2 =    -0.1583406541D+01 EUMP2 =    -0.47231663310491D+03

 The electronic state is 1-A.
 Alpha  occ. eigenvalues --  -11.21689 -11.21635 -11.21595 -11.21588 -11.21460
 Alpha  occ. eigenvalues --  -11.21399 -11.21390 -11.21326 -11.21140 -11.21095
 Alpha  occ. eigenvalues --  -11.21073 -11.21064  -1.08491  -1.08417  -1.03596
 Alpha  occ. eigenvalues --   -1.03517  -0.96040  -0.95971  -0.87064  -0.86980
 Alpha  occ. eigenvalues --   -0.79656  -0.79582  -0.78321  -0.78211  -0.65165
 Alpha  occ. eigenvalues --   -0.65023  -0.61007  -0.60953  -0.59449  -0.59283
 Alpha  occ. eigenvalues --   -0.57665  -0.57564  -0.55322  -0.55282  -0.52775
 Alpha  occ. eigenvalues --   -0.52666  -0.52484  -0.52343  -0.49972  -0.49918
 Alpha  occ. eigenvalues --   -0.48010  -0.47848  -0.46697  -0.46605  -0.45932
 Alpha  occ. eigenvalues --   -0.45781  -0.45754  -0.45565  -0.43822  -0.43772
 Alpha virt. eigenvalues --    0.19934   0.22947   0.23298   0.24876   0.25845
 Alpha virt. eigenvalues --    0.26634   0.26914   0.27202   0.28078   0.29248
 Alpha virt. eigenvalues --    0.30150   0.31394   0.31727   0.31833   0.32341

 Mulliken charges:
               1
     1  C   -0.297909
     2  C   -0.300535
     3  C   -0.475648
     4  H    0.149130
     5  H    0.149565
     6  H    0.152636
     7  H    0.152064
     8  H    0.155234
     9  H    0.154824
    10  H    0.160320
    11  C   -0.304169
    12  C   -0.299143
    13  C   -0.481735
    14  H    0.155512
    15  H    0.149533
    16  H    0.152134
    17  H    0.151993
    18  H    0.155354
    19  H    0.159932
    20  H    0.160650
    21  C   -0.298333
    22  C   -0.299684
    23  C   -0.475758
    24  H    0.149469
    25  H    0.149750
    26  H    0.151982
    27  H    0.152071
    28  H    0.155279
    29  H    0.155265
    30  H    0.160385
    31  C   -0.298684
    32  C   -0.300976
    33  C   -0.484643
    34  H    0.149666
    35  H    0.150079
    36  H    0.152730
    37  H    0.152461
    38  H    0.156036
    39  H    0.155561
    40  H    0.167603
 Sum of Mulliken charges =  -0.00000

 Dipole moment (field-independent basis, Debye):
    X=              0.0240    Y=             -0.0112    Z=              0.0088  Tot=              0.0279
 Quadrupole moment (field-independent basis, Debye-Ang):
   XX=            -84.2317   YY=            -86.4341   ZZ=            -84.0239
   XY=             -0.9930   XZ=             -0.2378   YZ=             -0.0749

 Normal termination of Gaussian 16 at Wed May  5 19:41:55 2021.
