 Gaussian 16, Revision A.03,
 Gaussian 16:  EM64L-G16RevA.03 25-Dec-2016

 -------------
 #p 6-31g* mp2
 -------------

 ------------------------------------------------------
 Input file generated by CHIRIPA (05-May-2021 14:53:12)
 ------------------------------------------------------
 Symbolic Z-matrix:
 Charge =  0 Multiplicity = 1

                         Standard orientation:
 ---------------------------------------------------------------------
 Center     Atomic      Atomic             Coordinates (Angstroms)
 Number     Number       Type             X           Y           Z
 ---------------------------------------------------------------------
      1          6           0        2.547857    0.495766   -0.765930
      2          6           0        2.066470    1.925295   -0.515538
      3          6           0        0.841024    2.291677   -1.353298
      4          1           0        2.782011    0.376037   -1.832599
      5          1           0        1.729325   -0.203295   -0.545219
      6          1           0        2.886101    2.621365   -0.735331
      7          1           0        1.833618    2.041690    0.550693
      8          1           0        0.005810    1.620615   -1.128143
      9          1           0        1.064273    2.203584   -2.421474
     10          1           0        0.513791    3.317771   -1.158594
     11          6           0        3.772254    0.114662    0.064335
     12          6           0        4.253642   -1.314867   -0.186058
     13          6           0        5.479088   -1.681249    0.651702
     14          1           0        4.590786    0.813723   -0.156377
     15          1           0        3.538101    0.234391    1.131003
     16          1           0        4.486494   -1.431262   -1.252289
     17          1           0        3.434011   -2.010937    0.033735
     18          1           0        5.255839   -1.593156    1.719878
     19          1           0        6.314302   -1.010187    0.426547
     20          1           0        5.806321   -2.707343    0.456998
     21          6           0       -3.172829   -1.422380   -1.839836
     22          6           0       -3.001822   -2.146800   -0.655568
     23          6           0       -2.611968   -1.501235    0.521635
     24          6           0       -2.400730   -0.123991    0.478425
     25          6           0       -2.562846    0.625409   -0.685795
     26          6           0       -2.953182   -0.041022   -1.851151
     27          1           0       -3.475865   -1.931975   -2.749714
     28          1           0       -3.171700   -3.219670   -0.643828
     29          1           0       -2.472289   -2.037666    1.452307
     30          1           0       -2.386095    1.693960   -0.666373
     31          1           0       -3.085225    0.524128   -2.769418
     32          7           0       -1.987753    0.570486    1.718406
     33          8           0       -1.807908    1.784633    1.654059
     34          8           0       -1.851728   -0.112480    2.731170
 ---------------------------------------------------------------------

 SCF Done:  E(RHF) =  -669.535123789     A.U. after   15 cycles
 E2 =    -0.2092606442D+01 EUMP2 =    -0.67162773023118D+03

 The electronic state is 1-A.
 Alpha  occ. eigenvalues --  -20.60860 -20.60845 -15.85900 -11.31257 -11.27827
 Alpha  occ. eigenvalues --  -11.27792 -11.27559 -11.26831 -11.26817 -11.21432
 Alpha  occ. eigenvalues --  -11.21256 -11.21166 -11.21102 -11.20895 -11.20864
 Alpha  occ. eigenvalues --   -1.59926  -1.39478  -1.19436  -1.08825  -1.08189
 Alpha  occ. eigenvalues --   -1.04836  -1.03300  -0.95794  -0.95645  -0.86816
 Alpha  occ. eigenvalues --   -0.86221  -0.82489  -0.79378  -0.78005  -0.77536
 Alpha  occ. eigenvalues --   -0.72116  -0.71254  -0.70542  -0.65081  -0.64884
 Alpha  occ. eigenvalues --   -0.64764  -0.62205  -0.60682  -0.59132  -0.57382
 Alpha  occ. eigenvalues --   -0.55374  -0.55060  -0.53196  -0.52930  -0.52461
 Alpha  occ. eigenvalues --   -0.52159  -0.49709  -0.48875  -0.48872  -0.47691
 Alpha  occ. eigenvalues --   -0.46387  -0.45555  -0.45457  -0.44862  -0.43560
 Alpha  occ. eigenvalues --   -0.37402  -0.36381
 Alpha virt. eigenvalues --    0.04967   0.11135   0.16466   0.21299   0.23086
 Alpha virt. eigenvalues --    0.24492   0.26769   0.26987   0.27765   0.27898
 Alpha virt. eigenvalues --    0.28880   0.30921   0.31616   0.31961   0.32092

 Mulliken charges:
               1
     1  C   -0.297893
     2  C   -0.301145
     3  C   -0.479729
     4  H    0.146485
     5  H    0.147884
     6  H    0.150778
     7  H    0.162999
     8  H    0.154026
     9  H    0.149399
    10  H    0.162524
    11  C   -0.299010
    12  C   -0.299185
    13  C   -0.475771
    14  H    0.149099
    15  H    0.153909
    16  H    0.149998
    17  H    0.150975
    18  H    0.156957
    19  H    0.154985
    20  H    0.158841
    21  C   -0.170483
    22  C   -0.218273
    23  C   -0.171267
    24  C    0.158992
    25  C   -0.173609
    26  C   -0.218764
    27  H    0.226037
    28  H    0.223740
    29  H    0.275689
    30  H    0.279432
    31  H    0.224650
    32  N    0.488259
    33  O   -0.460254
    34  O   -0.460276
 Sum of Mulliken charges =  -0.00000

 Dipole moment (field-independent basis, Debye):
    X=             -1.5292    Y=             -2.4267    Z=             -4.2707  Tot=              5.1445
 Quadrupole moment (field-independent basis, Debye-Ang):
   XX=            -88.9839   YY=            -90.5444   ZZ=            -98.0965
   XY=              6.9721   XZ=              9.3262   YZ=             -2.9052

 Normal termination of Gaussian 16 at Thu May  6 04:09:11 2021.
