 Gaussian 16, Revision A.03,
 Gaussian 16:  EM64L-G16RevA.03 25-Dec-2016

 -------------
 #p 6-31g* mp2
 -------------

 ------------------------------------------------------
 Input file generated by CHIRIPA (05-May-2021 14:53:14)
 ------------------------------------------------------
 Symbolic Z-matrix:
 Charge =  0 Multiplicity = 1

                         Standard orientation:
 ---------------------------------------------------------------------
 Center     Atomic      Atomic             Coordinates (Angstroms)
 Number     Number       Type             X           Y           Z
 ---------------------------------------------------------------------
      1          6           0        3.790581   -0.404633   -0.103053
      2          6           0        5.111153   -1.118182   -0.394471
      3          6           0        4.938407   -2.624716   -0.590193
      4          1           0        3.334959   -0.842703    0.795528
      5          1           0        3.091352   -0.590072   -0.930148
      6          1           0        5.808155   -0.930310    0.432274
      7          1           0        5.563778   -0.678233   -1.292353
      8          1           0        4.263655   -2.829522   -1.427668
      9          1           0        4.509420   -3.083031    0.306757
     10          1           0        5.894780   -3.114912   -0.797358
     11          6           0        3.946941    1.102036    0.095010
     12          6           0        2.626370    1.815585    0.386428
     13          6           0        2.799116    3.322119    0.582150
     14          1           0        4.646171    1.287475    0.922105
     15          1           0        4.402564    1.540106   -0.803571
     16          1           0        2.173745    1.375636    1.284310
     17          1           0        1.929367    1.627713   -0.440317
     18          1           0        3.228102    3.780434   -0.314800
     19          1           0        3.473868    3.526925    1.419626
     20          1           0        1.842743    3.812315    0.789315
     21          6           0       -0.616320   -0.883187    0.454071
     22          6           0       -1.643011   -1.507691    1.169908
     23          6           0       -2.979781   -1.177143    0.928387
     24          6           0       -3.255087   -0.213377   -0.040453
     25          6           0       -2.254402    0.426499   -0.770162
     26          6           0       -0.924749    0.080217   -0.511976
     27          1           0        0.419350   -1.146075    0.648163
     28          1           0       -1.406440   -2.256244    1.920740
     29          1           0       -3.794227   -1.645025    1.468001
     30          1           0       -2.521403    1.168889   -1.512447
     31          1           0       -0.129464    0.566849   -1.069431
     32          7           0       -4.666499    0.144888   -0.304961
     33          8           0       -4.882724    0.997179   -1.163729
     34          8           0       -5.529813   -0.433379    0.351494
 ---------------------------------------------------------------------

 SCF Done:  E(RHF) =  -669.535476580     A.U. after   15 cycles
 E2 =    -0.2092010878D+01 EUMP2 =    -0.67162748745830D+03

 The electronic state is 1-A.
 Alpha  occ. eigenvalues --  -20.60699 -20.60694 -15.85752 -11.31096 -11.27668
 Alpha  occ. eigenvalues --  -11.27657 -11.27360 -11.26670 -11.26633 -11.22732
 Alpha  occ. eigenvalues --  -11.22595 -11.22498 -11.22385 -11.21894 -11.21893
 Alpha  occ. eigenvalues --   -1.59775  -1.39330  -1.19264  -1.09484  -1.08655
 Alpha  occ. eigenvalues --   -1.04671  -1.04481  -0.96912  -0.95495  -0.87926
 Alpha  occ. eigenvalues --   -0.86067  -0.82333  -0.80571  -0.79348  -0.77386
 Alpha  occ. eigenvalues --   -0.71970  -0.71099  -0.70351  -0.66125  -0.64912
 Alpha  occ. eigenvalues --   -0.64682  -0.62094  -0.61810  -0.60274  -0.58541
 Alpha  occ. eigenvalues --   -0.56192  -0.55149  -0.53576  -0.53335  -0.52991
 Alpha  occ. eigenvalues --   -0.52776  -0.50847  -0.48886  -0.48727  -0.48705
 Alpha  occ. eigenvalues --   -0.47594  -0.46832  -0.46777  -0.44762  -0.44740
 Alpha  occ. eigenvalues --   -0.37227  -0.36270
 Alpha virt. eigenvalues --    0.05141   0.11337   0.16610   0.19141   0.22587
 Alpha virt. eigenvalues --    0.23114   0.24171   0.25082   0.26991   0.28035
 Alpha virt. eigenvalues --    0.29625   0.30539   0.30772   0.31320   0.31619

 Mulliken charges:
               1
     1  C   -0.301917
     2  C   -0.299908
     3  C   -0.476710
     4  H    0.145471
     5  H    0.145459
     6  H    0.154994
     7  H    0.155248
     8  H    0.155646
     9  H    0.153862
    10  H    0.164212
    11  C   -0.298007
    12  C   -0.304422
    13  C   -0.476277
    14  H    0.153739
    15  H    0.153221
    16  H    0.152386
    17  H    0.145127
    18  H    0.157447
    19  H    0.158546
    20  H    0.163812
    21  C   -0.175605
    22  C   -0.219472
    23  C   -0.170971
    24  C    0.158527
    25  C   -0.172146
    26  C   -0.221388
    27  H    0.231440
    28  H    0.223014
    29  H    0.275154
    30  H    0.275272
    31  H    0.227696
    32  N    0.488024
    33  O   -0.460730
    34  O   -0.460749
 Sum of Mulliken charges =  -0.00000

 Dipole moment (field-independent basis, Debye):
    X=              5.2677    Y=             -1.1818    Z=              0.9560  Tot=              5.4826
 Quadrupole moment (field-independent basis, Debye-Ang):
   XX=           -126.2376   YY=            -93.2794   ZZ=            -91.8594
   XY=              4.3603   XZ=             -4.3035   YZ=             -3.0215

 Normal termination of Gaussian 16 at Wed May  5 20:15:01 2021.
