 Gaussian 16, Revision A.03,
 Gaussian 16:  EM64L-G16RevA.03 25-Dec-2016

 -------------
 #p 6-31g* mp2
 -------------

 ------------------------------------------------------
 Input file generated by CHIRIPA (05-May-2021 14:55:24)
 ------------------------------------------------------
 Symbolic Z-matrix:
 Charge =  0 Multiplicity = 1

                         Standard orientation:
 ---------------------------------------------------------------------
 Center     Atomic      Atomic             Coordinates (Angstroms)
 Number     Number       Type             X           Y           Z
 ---------------------------------------------------------------------
      1          6           0        5.315320   -1.029038    0.156140
      2          6           0        5.149611    0.358399    0.092266
      3          6           0        3.872955    0.916411   -0.023145
      4          6           0        2.779158    0.053571   -0.072168
      5          6           0        2.911737   -1.332771   -0.010791
      6          6           0        4.197825   -1.868715    0.104499
      7          1           0        6.310721   -1.453943    0.245747
      8          1           0        6.015661    1.012931    0.132147
      9          1           0        3.715974    1.986985   -0.074590
     10          1           0        2.029323   -1.959659   -0.052913
     11          1           0        4.323509   -2.946587    0.153895
     12          7           0        1.422627    0.632632   -0.194284
     13          8           0        0.475109   -0.149129   -0.235475
     14          8           0        1.332582    1.857296   -0.246495
     15          6           0       -3.758318   -0.674172    0.282350
     16          6           0       -4.781557   -1.617910   -0.350364
     17          6           0       -4.598237   -3.070308    0.090913
     18          1           0       -2.746260   -1.013065    0.021895
     19          1           0       -3.837695   -0.738767    1.376389
     20          1           0       -4.701218   -1.550524   -1.442894
     21          1           0       -5.791301   -1.276621   -0.088533
     22          1           0       -4.699291   -3.158486    1.177474
     23          1           0       -3.603014   -3.433945   -0.184583
     24          1           0       -5.340102   -3.727608   -0.373259
     25          6           0       -3.928672    0.781348   -0.149123
     26          6           0       -2.905432    1.725084    0.483591
     27          6           0       -3.088752    3.177483    0.042313
     28          1           0       -3.849295    0.845942   -1.243163
     29          1           0       -4.940729    1.120239    0.111331
     30          1           0       -1.895689    1.383795    0.221758
     31          1           0       -2.985772    1.657698    1.576120
     32          1           0       -4.083976    3.541120    0.317810
     33          1           0       -2.987699    3.265661   -1.044247
     34          1           0       -2.346888    3.834782    0.506485
 ---------------------------------------------------------------------

 SCF Done:  E(RHF) =  -669.537107333     A.U. after   15 cycles
 E2 =    -0.2091786689D+01 EUMP2 =    -0.67162889402224D+03

 The electronic state is 1-A.
 Alpha  occ. eigenvalues --  -20.61178 -20.61163 -15.86161 -11.31417 -11.27963
 Alpha  occ. eigenvalues --  -11.27959 -11.27687 -11.26952 -11.26943 -11.20600
 Alpha  occ. eigenvalues --  -11.20300 -11.20016 -11.19902 -11.19634 -11.19488
 Alpha  occ. eigenvalues --   -1.60200  -1.39759  -1.19571  -1.08990  -1.07037
 Alpha  occ. eigenvalues --   -1.04955  -1.02175  -0.95842  -0.94681  -0.86359
 Alpha  occ. eigenvalues --   -0.85712  -0.82679  -0.78268  -0.77742  -0.76780
 Alpha  occ. eigenvalues --   -0.72367  -0.71499  -0.70679  -0.65227  -0.64958
 Alpha  occ. eigenvalues --   -0.63663  -0.62301  -0.59572  -0.58088  -0.56260
 Alpha  occ. eigenvalues --   -0.55462  -0.53983  -0.53290  -0.53045  -0.51415
 Alpha  occ. eigenvalues --   -0.51109  -0.49243  -0.49129  -0.48630  -0.46572
 Alpha  occ. eigenvalues --   -0.45265  -0.45188  -0.44366  -0.44063  -0.42420
 Alpha  occ. eigenvalues --   -0.37545  -0.36551
 Alpha virt. eigenvalues --    0.04786   0.11106   0.16302   0.21237   0.24178
 Alpha virt. eigenvalues --    0.25632   0.27174   0.27855   0.28199   0.28959
 Alpha virt. eigenvalues --    0.29247   0.30848   0.32370   0.32632   0.33018

 Mulliken charges:
               1
     1  C   -0.170303
     2  C   -0.218628
     3  C   -0.170525
     4  C    0.158609
     5  C   -0.170491
     6  C   -0.218576
     7  H    0.226461
     8  H    0.224265
     9  H    0.276162
    10  H    0.275920
    11  H    0.224305
    12  N    0.490044
    13  O   -0.460554
    14  O   -0.457932
    15  C   -0.301934
    16  C   -0.298434
    17  C   -0.474567
    18  H    0.163653
    19  H    0.144635
    20  H    0.150353
    21  H    0.148645
    22  H    0.153047
    23  H    0.153852
    24  H    0.156283
    25  C   -0.295670
    26  C   -0.313779
    27  C   -0.472947
    28  H    0.147358
    29  H    0.142159
    30  H    0.186161
    31  H    0.142752
    32  H    0.146155
    33  H    0.153182
    34  H    0.160343
 Sum of Mulliken charges =  -0.00000

 Dipole moment (field-independent basis, Debye):
    X=              5.3504    Y=             -2.0617    Z=              0.3768  Tot=              5.7463
 Quadrupole moment (field-independent basis, Debye-Ang):
   XX=            -69.2951   YY=            -92.6790   ZZ=            -95.3577
   XY=             -3.3985   XZ=              0.5734   YZ=              0.4196

 Normal termination of Gaussian 16 at Thu May  6 07:57:40 2021.
