 Gaussian 16, Revision A.03,
 Gaussian 16:  EM64L-G16RevA.03 25-Dec-2016

 -------------
 #p 6-31g* mp2
 -------------

 ------------------------------------------------------
 Input file generated by CHIRIPA (05-May-2021 14:53:18)
 ------------------------------------------------------
 Symbolic Z-matrix:
 Charge =  0 Multiplicity = 1

                         Standard orientation:
 ---------------------------------------------------------------------
 Center     Atomic      Atomic             Coordinates (Angstroms)
 Number     Number       Type             X           Y           Z
 ---------------------------------------------------------------------
      1          6           0       -3.626495   -0.107002   -0.659157
      2          6           0       -4.521805   -1.149355    0.011592
      3          6           0       -4.916904   -2.284954   -0.932922
      4          1           0       -4.147327    0.306091   -1.533819
      5          1           0       -2.721415   -0.601039   -1.038832
      6          1           0       -5.424287   -0.653262    0.391109
      7          1           0       -3.998858   -1.559876    0.884870
      8          1           0       -4.027610   -2.805909   -1.302194
      9          1           0       -5.461139   -1.894144   -1.798761
     10          1           0       -5.556794   -3.018719   -0.432932
     11          6           0       -3.223078    1.034598    0.272364
     12          6           0       -2.327768    2.076951   -0.398385
     13          6           0       -1.932669    3.212550    0.546129
     14          1           0       -4.128158    1.528635    0.652039
     15          1           0       -2.702246    0.621505    1.147026
     16          1           0       -2.850715    2.487472   -1.271663
     17          1           0       -1.425285    1.580858   -0.777901
     18          1           0       -1.388434    2.821739    1.411968
     19          1           0       -2.821963    3.733505    0.915401
     20          1           0       -1.292779    3.946314    0.046139
     21          6           0        0.578772   -1.240301    1.245789
     22          6           0        0.716857    0.128841    0.994979
     23          6           0        1.874291    0.626458    0.388948
     24          6           0        2.878330   -0.277465    0.045260
     25          6           0        2.770402   -1.646972    0.282094
     26          6           0        1.604177   -2.122282    0.889174
     27          1           0       -0.323765   -1.618197    1.716975
     28          1           0       -0.077858    0.816128    1.270857
     29          1           0        2.007357    1.681638    0.183263
     30          1           0        3.579764   -2.307553   -0.004233
     31          1           0        1.499679   -3.186074    1.082748
     32          7           0        4.108306    0.237533   -0.596873
     33          8           0        4.978386   -0.579543   -0.890106
     34          8           0        4.178993    1.448512   -0.794785
 ---------------------------------------------------------------------

 SCF Done:  E(RHF) =  -669.535027556     A.U. after   15 cycles
 E2 =    -0.2092993974D+01 EUMP2 =    -0.67162802152976D+03

 The electronic state is 1-A.
 Alpha  occ. eigenvalues --  -20.60770 -20.60765 -15.85823 -11.31201 -11.27772
 Alpha  occ. eigenvalues --  -11.27758 -11.27514 -11.26792 -11.26733 -11.22488
 Alpha  occ. eigenvalues --  -11.22391 -11.22384 -11.22167 -11.22094 -11.21720
 Alpha  occ. eigenvalues --   -1.59845  -1.39398  -1.19375  -1.09330  -1.08764
 Alpha  occ. eigenvalues --   -1.04792  -1.04386  -0.96846  -0.95600  -0.87852
 Alpha  occ. eigenvalues --   -0.86178  -0.82433  -0.80442  -0.79118  -0.77485
 Alpha  occ. eigenvalues --   -0.72042  -0.71168  -0.70484  -0.66180  -0.65025
 Alpha  occ. eigenvalues --   -0.64692  -0.62375  -0.61484  -0.60200  -0.58436
 Alpha  occ. eigenvalues --   -0.56182  -0.55256  -0.53508  -0.53263  -0.53108
 Alpha  occ. eigenvalues --   -0.52816  -0.50804  -0.48826  -0.48796  -0.48714
 Alpha  occ. eigenvalues --   -0.47507  -0.46663  -0.46575  -0.44801  -0.44639
 Alpha  occ. eigenvalues --   -0.37353  -0.36360
 Alpha virt. eigenvalues --    0.05037   0.11197   0.16444   0.18665   0.22510
 Alpha virt. eigenvalues --    0.23604   0.25141   0.26154   0.26532   0.28893
 Alpha virt. eigenvalues --    0.29210   0.30293   0.30896   0.31225   0.31921

 Mulliken charges:
               1
     1  C   -0.300143
     2  C   -0.299065
     3  C   -0.476181
     4  H    0.153797
     5  H    0.151529
     6  H    0.154384
     7  H    0.145882
     8  H    0.155195
     9  H    0.157962
    10  H    0.161709
    11  C   -0.297767
    12  C   -0.308911
    13  C   -0.480263
    14  H    0.154080
    15  H    0.137871
    16  H    0.159245
    17  H    0.155085
    18  H    0.146327
    19  H    0.161533
    20  H    0.166347
    21  C   -0.174712
    22  C   -0.224451
    23  C   -0.174910
    24  C    0.159022
    25  C   -0.171005
    26  C   -0.218490
    27  H    0.226070
    28  H    0.236936
    29  H    0.276345
    30  H    0.275702
    31  H    0.223484
    32  N    0.488073
    33  O   -0.460478
    34  O   -0.460203
 Sum of Mulliken charges =  -0.00000

 Dipole moment (field-independent basis, Debye):
    X=             -4.5020    Y=             -1.7496    Z=              2.1266  Tot=              5.2775
 Quadrupole moment (field-independent basis, Debye-Ang):
   XX=           -118.3476   YY=            -89.5653   ZZ=            -95.6435
   XY=             -7.0190   XZ=              6.6671   YZ=             -1.2553

 Normal termination of Gaussian 16 at Thu May  6 09:11:21 2021.
