 Gaussian 16, Revision A.03,
 Gaussian 16:  EM64L-G16RevA.03 25-Dec-2016

 -------------
 #p 6-31g* mp2
 -------------

 ------------------------------------------------------
 Input file generated by CHIRIPA (05-May-2021 14:51:07)
 ------------------------------------------------------
 Symbolic Z-matrix:
 Charge =  0 Multiplicity = 1

                         Standard orientation:
 ---------------------------------------------------------------------
 Center     Atomic      Atomic             Coordinates (Angstroms)
 Number     Number       Type             X           Y           Z
 ---------------------------------------------------------------------
      1          6           0        3.319228    1.017003   -0.503524
      2          6           0        2.480953    1.879243    0.440839
      3          6           0        2.081709    3.218590   -0.179279
      4          1           0        4.221919    1.572383   -0.792743
      5          1           0        2.751854    0.839638   -1.427658
      6          1           0        3.049187    2.053774    1.363479
      7          1           0        1.580247    1.321671    0.727995
      8          1           0        1.493066    3.061728   -1.088947
      9          1           0        2.970352    3.797991   -0.449852
     10          1           0        1.483069    3.818923    0.512885
     11          6           0        3.726100   -0.325129    0.102170
     12          6           0        4.564375   -1.187369   -0.842193
     13          6           0        4.963620   -2.526717   -0.222075
     14          1           0        4.293474   -0.147765    1.026303
     15          1           0        2.823409   -0.880510    0.391388
     16          1           0        5.465081   -0.629797   -1.129349
     17          1           0        3.996141   -1.361901   -1.764833
     18          1           0        4.074976   -3.106117    0.048497
     19          1           0        5.552263   -2.369855    0.687592
     20          1           0        5.562259   -3.127050   -0.914240
     21          6           0       -4.010146   -0.326192   -0.387032
     22          6           0       -5.468869   -0.160647    0.040411
     23          6           0       -6.432025   -0.122887   -1.146476
     24          1           0       -3.735366    0.499231   -1.057940
     25          1           0       -3.909381   -1.251030   -0.971767
     26          1           0       -5.566590    0.762892    0.625340
     27          1           0       -5.740153   -0.986456    0.710532
     28          1           0       -6.363930   -1.048325   -1.727449
     29          1           0       -6.189381    0.710963   -1.813125
     30          1           0       -7.469288   -0.003985   -0.818137
     31          6           0       -3.035181   -0.365681    0.788387
     32          6           0       -1.576459   -0.531226    0.360943
     33          6           0       -0.613304   -0.568986    1.547831
     34          1           0       -3.135948    0.559156    1.373122
     35          1           0       -3.309962   -1.191105    1.459294
     36          1           0       -1.305175    0.294583   -0.309177
     37          1           0       -1.478738   -1.454765   -0.223985
     38          1           0       -0.855947   -1.402836    2.214480
     39          1           0       -0.681398    0.356452    2.128803
     40          1           0        0.423960   -0.687889    1.219492
 ---------------------------------------------------------------------

 SCF Done:  E(RHF) =  -470.732734631     A.U. after   11 cycles
 E2 =    -0.1583426191D+01 EUMP2 =    -0.47231616082256D+03

 The electronic state is 1-A.
 Alpha  occ. eigenvalues --  -11.21671 -11.21625 -11.21601 -11.21495 -11.21444
 Alpha  occ. eigenvalues --  -11.21400 -11.21383 -11.21331 -11.21115 -11.21090
 Alpha  occ. eigenvalues --  -11.21069 -11.21044  -1.08478  -1.08411  -1.03588
 Alpha  occ. eigenvalues --   -1.03495  -0.96030  -0.95964  -0.87057  -0.86971
 Alpha  occ. eigenvalues --   -0.79666  -0.79549  -0.78286  -0.78228  -0.65153
 Alpha  occ. eigenvalues --   -0.65032  -0.61085  -0.60821  -0.59453  -0.59273
 Alpha  occ. eigenvalues --   -0.57653  -0.57562  -0.55348  -0.55221  -0.52811
 Alpha  occ. eigenvalues --   -0.52609  -0.52447  -0.52388  -0.50020  -0.49861
 Alpha  occ. eigenvalues --   -0.47979  -0.47877  -0.46711  -0.46551  -0.45827
 Alpha  occ. eigenvalues --   -0.45758  -0.45743  -0.45664  -0.43793  -0.43718
 Alpha virt. eigenvalues --    0.20819   0.23085   0.23847   0.24450   0.26063
 Alpha virt. eigenvalues --    0.26561   0.27009   0.27539   0.27718   0.28930
 Alpha virt. eigenvalues --    0.31075   0.31449   0.31710   0.31905   0.32055

 Mulliken charges:
               1
     1  C   -0.297755
     2  C   -0.309063
     3  C   -0.475193
     4  H    0.149574
     5  H    0.149092
     6  H    0.151407
     7  H    0.163483
     8  H    0.154467
     9  H    0.154989
    10  H    0.159677
    11  C   -0.304143
    12  C   -0.299345
    13  C   -0.475755
    14  H    0.149926
    15  H    0.153844
    16  H    0.152147
    17  H    0.151944
    18  H    0.155146
    19  H    0.155274
    20  H    0.160261
    21  C   -0.298310
    22  C   -0.299703
    23  C   -0.475739
    24  H    0.149734
    25  H    0.149524
    26  H    0.152042
    27  H    0.151997
    28  H    0.155190
    29  H    0.155243
    30  H    0.160356
    31  C   -0.298471
    32  C   -0.300839
    33  C   -0.484452
    34  H    0.149879
    35  H    0.149939
    36  H    0.152447
    37  H    0.151918
    38  H    0.156286
    39  H    0.156023
    40  H    0.166958
 Sum of Mulliken charges =  -0.00000

 Dipole moment (field-independent basis, Debye):
    X=             -0.0250    Y=             -0.0177    Z=              0.0187  Tot=              0.0359
 Quadrupole moment (field-independent basis, Debye-Ang):
   XX=            -84.8567   YY=            -84.6519   ZZ=            -85.3105
   XY=              0.8222   XZ=             -0.4000   YZ=              0.4667

 Normal termination of Gaussian 16 at Thu May  6 05:13:58 2021.
