 Gaussian 16, Revision A.03,
 Gaussian 16:  EM64L-G16RevA.03 25-Dec-2016

 -------------
 #p 6-31g* mp2
 -------------

 ------------------------------------------------------
 Input file generated by CHIRIPA (05-May-2021 14:57:24)
 ------------------------------------------------------
 Symbolic Z-matrix:
 Charge =  0 Multiplicity = 1

                         Standard orientation:
 ---------------------------------------------------------------------
 Center     Atomic      Atomic             Coordinates (Angstroms)
 Number     Number       Type             X           Y           Z
 ---------------------------------------------------------------------
      1          6           0        5.363106    0.169487    0.943003
      2          6           0        4.465779    1.224517    0.747462
      3          6           0        3.224229    0.998373    0.145830
      4          6           0        2.911195   -0.301137   -0.249864
      5          6           0        3.783798   -1.373074   -0.068739
      6          6           0        5.019857   -1.123661    0.534998
      7          1           0        6.325439    0.354199    1.411183
      8          1           0        4.729673    2.229821    1.063324
      9          1           0        2.510642    1.796802   -0.017639
     10          1           0        3.492518   -2.364379   -0.394144
     11          1           0        5.714752   -1.944933    0.685591
     12          7           0        1.599728   -0.552862   -0.887899
     13          8           0        1.347767   -1.706877   -1.227610
     14          8           0        0.848594    0.408617   -1.036200
     15          6           0       -4.394997   -1.827514    0.779309
     16          6           0       -4.143154   -1.543612   -0.566982
     17          6           0       -3.441755   -0.390071   -0.930200
     18          6           0       -3.004788    0.461429    0.083357
     19          6           0       -3.240065    0.206095    1.433446
     20          6           0       -3.943444   -0.953296    1.773472
     21          1           0       -4.940629   -2.725885    1.052457
     22          1           0       -4.492641   -2.220739   -1.341194
     23          1           0       -3.232988   -0.145995   -1.964734
     24          1           0       -2.879083    0.900098    2.182758
     25          1           0       -4.137581   -1.171232    2.819828
     26          7           0       -2.261200    1.685729   -0.288889
     27          8           0       -1.886867    2.419850    0.623018
     28          8           0       -2.066788    1.888029   -1.485517
 ---------------------------------------------------------------------

 SCF Done:  E(RHF) =  -868.337978041     A.U. after   16 cycles
 E2 =    -0.2600003129D+01 EUMP2 =    -0.87093798116996D+03

 The electronic state is 1-A.
 Alpha  occ. eigenvalues --  -20.60411 -20.60363 -20.59547 -20.59436 -15.85427
 Alpha  occ. eigenvalues --  -15.84552 -11.30807 -11.30068 -11.27433 -11.27313
 Alpha  occ. eigenvalues --  -11.27168 -11.26730 -11.26620 -11.26506 -11.26450
 Alpha  occ. eigenvalues --  -11.26378 -11.25804 -11.25722  -1.59472  -1.58531
 Alpha  occ. eigenvalues --   -1.39017  -1.38095  -1.18995  -1.18268  -1.08397
 Alpha  occ. eigenvalues --   -1.07643  -1.04395  -1.03715  -0.95222  -0.94457
 Alpha  occ. eigenvalues --   -0.85794  -0.85109  -0.82046  -0.81306  -0.77082
 Alpha  occ. eigenvalues --   -0.76309  -0.71714  -0.70820  -0.70793  -0.70113
 Alpha  occ. eigenvalues --   -0.69704  -0.69421  -0.64642  -0.64402  -0.63944
 Alpha  occ. eigenvalues --   -0.63752  -0.61729  -0.61073  -0.54917  -0.54252
 Alpha  occ. eigenvalues --   -0.52736  -0.52484  -0.52012  -0.51833  -0.48444
 Alpha  occ. eigenvalues --   -0.48399  -0.47574  -0.47525  -0.44423  -0.43451
 Alpha  occ. eigenvalues --   -0.36996  -0.36260  -0.36002  -0.35315
 Alpha virt. eigenvalues --    0.05416   0.06296   0.11651   0.12339   0.16905
 Alpha virt. eigenvalues --    0.17720   0.21786   0.22332   0.27704   0.28217
 Alpha virt. eigenvalues --    0.28711   0.29255   0.31325   0.31825   0.33040

 Mulliken charges:
               1
     1  C   -0.171013
     2  C   -0.219277
     3  C   -0.171352
     4  C    0.156883
     5  C   -0.171608
     6  C   -0.219089
     7  H    0.224344
     8  H    0.224363
     9  H    0.284611
    10  H    0.273417
    11  H    0.221487
    12  N    0.488492
    13  O   -0.466338
    14  O   -0.454700
    15  C   -0.171488
    16  C   -0.218046
    17  C   -0.163340
    18  C    0.163682
    19  C   -0.172528
    20  C   -0.219020
    21  H    0.221423
    22  H    0.221135
    23  H    0.277795
    24  H    0.271086
    25  H    0.218429
    26  N    0.494639
    27  O   -0.471401
    28  O   -0.452585
 Sum of Mulliken charges =  -0.00000

 Dipole moment (field-independent basis, Debye):
    X=              2.1168    Y=             -3.2555    Z=              3.3056  Tot=              5.0996
 Quadrupole moment (field-independent basis, Debye-Ang):
   XX=            -64.5433   YY=           -105.4218   ZZ=           -102.0145
   XY=             12.2825   XZ=              2.3499   YZ=              1.0320

 Normal termination of Gaussian 16 at Thu May  6 14:40:22 2021.
