 Gaussian 16, Revision A.03,
 Gaussian 16:  EM64L-G16RevA.03 25-Dec-2016

 -------------
 #p 6-31g* mp2
 -------------

 ------------------------------------------------------
 Input file generated by CHIRIPA (05-May-2021 14:53:16)
 ------------------------------------------------------
 Symbolic Z-matrix:
 Charge =  0 Multiplicity = 1

                         Standard orientation:
 ---------------------------------------------------------------------
 Center     Atomic      Atomic             Coordinates (Angstroms)
 Number     Number       Type             X           Y           Z
 ---------------------------------------------------------------------
      1          6           0        2.968409    0.910692   -0.072695
      2          6           0        3.760983    2.097775   -0.621007
      3          6           0        2.922709    3.372536   -0.721398
      4          1           0        2.098354    0.729192   -0.718457
      5          1           0        2.572865    1.169600    0.919225
      6          1           0        4.156075    1.836202   -1.611005
      7          1           0        4.629357    2.276350    0.026027
      8          1           0        2.540320    3.660680    0.263159
      9          1           0        2.064350    3.218031   -1.383174
     10          1           0        3.508898    4.208491   -1.115634
     11          6           0        3.792844   -0.371004    0.033561
     12          6           0        3.000271   -1.558087    0.581872
     13          6           0        3.838544   -2.832847    0.682264
     14          1           0        4.188388   -0.629912   -0.958359
     15          1           0        4.662899   -0.189504    0.679323
     16          1           0        2.131896   -1.736662   -0.065161
     17          1           0        2.605178   -1.296514    1.571871
     18          1           0        4.696904   -2.678343    1.344040
     19          1           0        4.220933   -3.120991   -0.302294
     20          1           0        3.252355   -3.668803    1.076499
     21          6           0       -3.747260    1.948957    0.706477
     22          6           0       -4.453028    1.014599   -0.058628
     23          6           0       -3.850164   -0.185421   -0.447288
     24          6           0       -2.534176   -0.419615   -0.051535
     25          6           0       -1.804783    0.491529    0.710759
     26          6           0       -2.427717    1.684906    1.088056
     27          1           0       -4.223375    2.878581    1.003983
     28          1           0       -5.477923    1.216992   -0.356408
     29          1           0       -4.373411   -0.926225   -1.039606
     30          1           0       -0.784378    0.261621    0.992421
     31          1           0       -1.877183    2.408713    1.682246
     32          7           0       -1.885328   -1.686505   -0.456977
     33          8           0       -0.724877   -1.869062   -0.095502
     34          8           0       -2.549497   -2.472948   -1.128559
 ---------------------------------------------------------------------

 SCF Done:  E(RHF) =  -669.536190468     A.U. after   15 cycles
 E2 =    -0.2091362954D+01 EUMP2 =    -0.67162755342146D+03

 The electronic state is 1-A.
 Alpha  occ. eigenvalues --  -20.60881 -20.60868 -15.85919 -11.31230 -11.27800
 Alpha  occ. eigenvalues --  -11.27776 -11.27536 -11.26806 -11.26789 -11.21503
 Alpha  occ. eigenvalues --  -11.21186 -11.21154 -11.20859 -11.20615 -11.20244
 Alpha  occ. eigenvalues --   -1.59946  -1.39501  -1.19400  -1.08808  -1.08033
 Alpha  occ. eigenvalues --   -1.04794  -1.03074  -0.95651  -0.95583  -0.86605
 Alpha  occ. eigenvalues --   -0.86195  -0.82486  -0.79185  -0.77826  -0.77484
 Alpha  occ. eigenvalues --   -0.72143  -0.71263  -0.70508  -0.65059  -0.64797
 Alpha  occ. eigenvalues --   -0.64661  -0.62138  -0.60464  -0.58979  -0.57153
 Alpha  occ. eigenvalues --   -0.55302  -0.54894  -0.53130  -0.52885  -0.52267
 Alpha  occ. eigenvalues --   -0.52002  -0.49551  -0.48906  -0.48897  -0.47481
 Alpha  occ. eigenvalues --   -0.46228  -0.45350  -0.45246  -0.44815  -0.43349
 Alpha  occ. eigenvalues --   -0.37384  -0.36395
 Alpha virt. eigenvalues --    0.04973   0.11248   0.16466   0.20967   0.23125
 Alpha virt. eigenvalues --    0.24719   0.25707   0.27042   0.27675   0.28240
 Alpha virt. eigenvalues --    0.29327   0.31094   0.31740   0.31908   0.32591

 Mulliken charges:
               1
     1  C   -0.298986
     2  C   -0.298909
     3  C   -0.475494
     4  H    0.152666
     5  H    0.141578
     6  H    0.153664
     7  H    0.151815
     8  H    0.150274
     9  H    0.154543
    10  H    0.160445
    11  C   -0.297832
    12  C   -0.308386
    13  C   -0.475410
    14  H    0.149637
    15  H    0.146304
    16  H    0.179582
    17  H    0.145111
    18  H    0.149507
    19  H    0.154001
    20  H    0.164025
    21  C   -0.170604
    22  C   -0.218702
    23  C   -0.170792
    24  C    0.157290
    25  C   -0.172326
    26  C   -0.218684
    27  H    0.225819
    28  H    0.223543
    29  H    0.275553
    30  H    0.278456
    31  H    0.224051
    32  N    0.493756
    33  O   -0.465927
    34  O   -0.459569
 Sum of Mulliken charges =  -0.00000

 Dipole moment (field-independent basis, Debye):
    X=             -2.4317    Y=              4.3320    Z=              1.3372  Tot=              5.1447
 Quadrupole moment (field-independent basis, Debye-Ang):
   XX=            -80.5566   YY=            -99.7584   ZZ=            -93.6702
   XY=             -8.8584   XZ=             -1.3879   YZ=              0.4454

 Normal termination of Gaussian 16 at Wed May  5 18:44:34 2021.
