 Gaussian 16, Revision A.03,
 Gaussian 16:  EM64L-G16RevA.03 25-Dec-2016

 -------------
 #p 6-31g* mp2
 -------------

 ------------------------------------------------------
 Input file generated by CHIRIPA (05-May-2021 14:55:20)
 ------------------------------------------------------
 Symbolic Z-matrix:
 Charge =  0 Multiplicity = 1

                         Standard orientation:
 ---------------------------------------------------------------------
 Center     Atomic      Atomic             Coordinates (Angstroms)
 Number     Number       Type             X           Y           Z
 ---------------------------------------------------------------------
      1          6           0        3.319252    2.688587    0.408716
      2          6           0        4.434120    1.875336    0.180216
      3          6           0        4.275489    0.513444   -0.092977
      4          6           0        2.981740   -0.004358   -0.130195
      5          6           0        1.851197    0.780031    0.093182
      6          6           0        2.033615    2.139307    0.364548
      7          1           0        3.451720    3.745521    0.620230
      8          1           0        5.433750    2.299189    0.213889
      9          1           0        5.121136   -0.138978   -0.273655
     10          1           0        0.867227    0.328803    0.052998
     11          1           0        1.165965    2.768496    0.541608
     12          7           0        2.801213   -1.444747   -0.418445
     13          8           0        1.650856   -1.876692   -0.445647
     14          8           0        3.813491   -2.114506   -0.611714
     15          6           0       -4.253139    0.321511    0.307184
     16          6           0       -5.117785    0.880232   -0.823391
     17          6           0       -5.908841    2.120047   -0.405201
     18          1           0       -4.895070    0.076708    1.164471
     19          1           0       -3.559463    1.102148    0.648964
     20          1           0       -5.808679    0.098340   -1.163872
     21          1           0       -4.473745    1.123554   -1.678156
     22          1           0       -5.232146    2.918869   -0.084939
     23          1           0       -6.574665    1.887831    0.432268
     24          1           0       -6.520015    2.502881   -1.228465
     25          6           0       -3.456283   -0.918082   -0.095504
     26          6           0       -2.591635   -1.476804    1.035071
     27          6           0       -1.800581   -2.716619    0.616881
     28          1           0       -4.149958   -1.698720   -0.437284
     29          1           0       -2.814351   -0.673280   -0.952791
     30          1           0       -3.235676   -1.720125    1.889836
     31          1           0       -1.900742   -0.694911    1.375552
     32          1           0       -1.134756   -2.484403   -0.220589
     33          1           0       -2.477276   -3.515442    0.296618
     34          1           0       -1.189406   -3.099452    1.440145
 ---------------------------------------------------------------------

 SCF Done:  E(RHF) =  -669.535764104     A.U. after   15 cycles
 E2 =    -0.2091172076D+01 EUMP2 =    -0.67162693618013D+03

 The electronic state is 1-A.
 Alpha  occ. eigenvalues --  -20.60866 -20.60858 -15.85913 -11.31260 -11.27831
 Alpha  occ. eigenvalues --  -11.27823 -11.27568 -11.26841 -11.26831 -11.21610
 Alpha  occ. eigenvalues --  -11.21359 -11.21237 -11.21146 -11.21143 -11.20082
 Alpha  occ. eigenvalues --   -1.59935  -1.39490  -1.19431  -1.08830  -1.08268
 Alpha  occ. eigenvalues --   -1.04833  -1.03260  -0.95706  -0.95631  -0.86675
 Alpha  occ. eigenvalues --   -0.86231  -0.82504  -0.79343  -0.78067  -0.77551
 Alpha  occ. eigenvalues --   -0.72143  -0.71253  -0.70541  -0.65093  -0.64923
 Alpha  occ. eigenvalues --   -0.64824  -0.62184  -0.60654  -0.59089  -0.57284
 Alpha  occ. eigenvalues --   -0.55335  -0.54944  -0.53162  -0.52925  -0.52327
 Alpha  occ. eigenvalues --   -0.52085  -0.49616  -0.48890  -0.48864  -0.47634
 Alpha  occ. eigenvalues --   -0.46392  -0.45598  -0.45525  -0.44897  -0.43523
 Alpha  occ. eigenvalues --   -0.37411  -0.36435
 Alpha virt. eigenvalues --    0.04980   0.11216   0.16477   0.20185   0.22714
 Alpha virt. eigenvalues --    0.23967   0.26283   0.27413   0.27727   0.28241
 Alpha virt. eigenvalues --    0.28945   0.30575   0.31514   0.31968   0.32418

 Mulliken charges:
               1
     1  C   -0.170617
     2  C   -0.218596
     3  C   -0.170741
     4  C    0.157839
     5  C   -0.172291
     6  C   -0.218857
     7  H    0.225901
     8  H    0.223725
     9  H    0.275799
    10  H    0.277356
    11  H    0.223701
    12  N    0.494390
    13  O   -0.466457
    14  O   -0.459531
    15  C   -0.296600
    16  C   -0.299428
    17  C   -0.475213
    18  H    0.150207
    19  H    0.142987
    20  H    0.153455
    21  H    0.150951
    22  H    0.152437
    23  H    0.155652
    24  H    0.160339
    25  C   -0.298568
    26  C   -0.299499
    27  C   -0.479946
    28  H    0.151248
    29  H    0.148725
    30  H    0.150037
    31  H    0.142255
    32  H    0.176715
    33  H    0.150643
    34  H    0.161982
 Sum of Mulliken charges =  -0.00000

 Dipole moment (field-independent basis, Debye):
    X=              0.7822    Y=              4.9617    Z=              0.9497  Tot=              5.1120
 Quadrupole moment (field-independent basis, Debye-Ang):
   XX=            -85.9980   YY=            -95.6127   ZZ=            -95.9539
   XY=             15.9188   XZ=              2.5780   YZ=             -0.7981

 Normal termination of Gaussian 16 at Thu May  6 06:07:36 2021.
