 Gaussian 16, Revision A.03,
 Gaussian 16:  EM64L-G16RevA.03 25-Dec-2016

 -------------
 #p 6-31g* mp2
 -------------

 ------------------------------------------------------
 Input file generated by CHIRIPA (05-May-2021 14:51:10)
 ------------------------------------------------------
 Symbolic Z-matrix:
 Charge =  0 Multiplicity = 1

                         Standard orientation:
 ---------------------------------------------------------------------
 Center     Atomic      Atomic             Coordinates (Angstroms)
 Number     Number       Type             X           Y           Z
 ---------------------------------------------------------------------
      1          6           0        3.711882    0.730436   -0.523064
      2          6           0        3.048150    1.854931    0.272520
      3          6           0        3.189856    3.219700   -0.402107
      4          1           0        4.776498    0.965062   -0.659036
      5          1           0        3.269578    0.691343   -1.528168
      6          1           0        3.490608    1.890993    1.276286
      7          1           0        1.985031    1.617508    0.406778
      8          1           0        2.731768    3.207362   -1.396393
      9          1           0        4.245899    3.482401   -0.521944
     10          1           0        2.708261    4.008969    0.183538
     11          6           0        3.578711   -0.640046    0.138581
     12          6           0        4.242443   -1.764541   -0.657004
     13          6           0        4.100737   -3.129310    0.017623
     14          1           0        4.021015   -0.600953    1.143685
     15          1           0        2.514095   -0.874672    0.274552
     16          1           0        5.305562   -1.527118   -0.791261
     17          1           0        3.799985   -1.800603   -1.660770
     18          1           0        3.044694   -3.392011    0.137460
     19          1           0        4.558825   -3.116972    1.011909
     20          1           0        4.582331   -3.918579   -0.568022
     21          6           0       -4.336813   -0.363170    0.256494
     22          6           0       -5.327157    0.119772   -0.803682
     23          6           0       -6.706124   -0.525341   -0.662006
     24          1           0       -4.240868   -1.455497    0.188967
     25          1           0       -4.743424   -0.146183    1.253980
     26          1           0       -4.918171   -0.096814   -1.798888
     27          1           0       -5.420611    1.211097   -0.733750
     28          1           0       -7.138698   -0.298559    0.317815
     29          1           0       -6.633403   -1.613903   -0.753376
     30          1           0       -7.398295   -0.165927   -1.429848
     31          6           0       -2.953780    0.272780    0.127990
     32          6           0       -1.963435   -0.210162    1.188165
     33          6           0       -0.584469    0.434952    1.046490
     34          1           0       -2.547169    0.055792   -0.869496
     35          1           0       -3.049725    1.365107    0.195517
     36          1           0       -1.869982   -1.301488    1.118233
     37          1           0       -2.372422    0.006424    2.183372
     38          1           0       -0.657190    1.523512    1.137859
     39          1           0       -0.151895    0.208170    0.066669
     40          1           0        0.107703    0.075536    1.814332
 ---------------------------------------------------------------------

 SCF Done:  E(RHF) =  -470.733008489     A.U. after   11 cycles
 E2 =    -0.1583106858D+01 EUMP2 =    -0.47231611534769D+03

 The electronic state is 1-A.
 Alpha  occ. eigenvalues --  -11.21664 -11.21634 -11.21555 -11.21454 -11.21406
 Alpha  occ. eigenvalues --  -11.21393 -11.21313 -11.21254 -11.21172 -11.21096
 Alpha  occ. eigenvalues --  -11.21044 -11.20972  -1.08484  -1.08340  -1.03594
 Alpha  occ. eigenvalues --   -1.03439  -0.96048  -0.95902  -0.87081  -0.86911
 Alpha  occ. eigenvalues --   -0.79717  -0.79466  -0.78312  -0.78120  -0.65126
 Alpha  occ. eigenvalues --   -0.64969  -0.60986  -0.60852  -0.59417  -0.59262
 Alpha  occ. eigenvalues --   -0.57660  -0.57502  -0.55364  -0.55164  -0.52798
 Alpha  occ. eigenvalues --   -0.52571  -0.52489  -0.52314  -0.49996  -0.49843
 Alpha  occ. eigenvalues --   -0.48057  -0.47767  -0.46701  -0.46527  -0.45917
 Alpha  occ. eigenvalues --   -0.45765  -0.45673  -0.45472  -0.43796  -0.43686
 Alpha virt. eigenvalues --    0.21558   0.22988   0.24149   0.24394   0.25791
 Alpha virt. eigenvalues --    0.26554   0.27050   0.27509   0.27905   0.29590
 Alpha virt. eigenvalues --    0.30766   0.31303   0.31673   0.31869   0.32150

 Mulliken charges:
               1
     1  C   -0.297255
     2  C   -0.311363
     3  C   -0.474958
     4  H    0.149111
     5  H    0.148332
     6  H    0.150557
     7  H    0.168204
     8  H    0.154496
     9  H    0.154551
    10  H    0.159493
    11  C   -0.302172
    12  C   -0.299413
    13  C   -0.475593
    14  H    0.148984
    15  H    0.153578
    16  H    0.151876
    17  H    0.151442
    18  H    0.154837
    19  H    0.155104
    20  H    0.160042
    21  C   -0.298347
    22  C   -0.299658
    23  C   -0.475739
    24  H    0.149726
    25  H    0.149694
    26  H    0.151923
    27  H    0.152027
    28  H    0.155257
    29  H    0.155226
    30  H    0.160368
    31  C   -0.298542
    32  C   -0.300880
    33  C   -0.479162
    34  H    0.149389
    35  H    0.149835
    36  H    0.152075
    37  H    0.152371
    38  H    0.155873
    39  H    0.155418
    40  H    0.163295
 Sum of Mulliken charges =  -0.00000

 Dipole moment (field-independent basis, Debye):
    X=             -0.0748    Y=             -0.0027    Z=              0.0291  Tot=              0.0803
 Quadrupole moment (field-independent basis, Debye-Ang):
   XX=            -85.2833   YY=            -85.5544   ZZ=            -84.2785
   XY=             -0.5757   XZ=              0.2728   YZ=              0.9599

 Normal termination of Gaussian 16 at Thu May  6 03:49:07 2021.
