 Gaussian 16, Revision A.03,
 Gaussian 16:  EM64L-G16RevA.03 25-Dec-2016

 -------------
 #p 6-31g* mp2
 -------------

 ------------------------------------------------------
 Input file generated by CHIRIPA (05-May-2021 14:57:26)
 ------------------------------------------------------
 Symbolic Z-matrix:
 Charge =  0 Multiplicity = 1

                         Standard orientation:
 ---------------------------------------------------------------------
 Center     Atomic      Atomic             Coordinates (Angstroms)
 Number     Number       Type             X           Y           Z
 ---------------------------------------------------------------------
      1          6           0       -2.576002   -2.070886   -0.356294
      2          6           0       -1.985422   -0.818683   -0.156993
      3          6           0       -2.777295    0.321272    0.010303
      4          6           0       -4.162779    0.171944   -0.027449
      5          6           0       -4.780968   -1.061918   -0.224216
      6          6           0       -3.969434   -2.188301   -0.389211
      7          1           0       -1.953220   -2.951159   -0.485360
      8          1           0       -0.903526   -0.724506   -0.130970
      9          1           0       -2.346363    1.302809    0.166185
     10          1           0       -5.862209   -1.124276   -0.245327
     11          1           0       -4.430841   -3.159508   -0.543824
     12          7           0       -5.011507    1.371579    0.148442
     13          8           0       -6.229795    1.213408    0.111105
     14          8           0       -4.442382    2.447308    0.320312
     15          6           0        5.082921    2.284269   -0.319678
     16          6           0        3.708611    2.187553   -0.077933
     17          6           0        3.110564    0.941403    0.131829
     18          6           0        3.920419   -0.192573    0.092800
     19          6           0        5.292409   -0.128858   -0.145685
     20          6           0        5.869048    1.127794   -0.352724
     21          1           0        5.539183    3.256386   -0.481568
     22          1           0        3.095633    3.083998   -0.051704
     23          1           0        2.049030    0.837725    0.321071
     24          1           0        5.877516   -1.040263   -0.165883
     25          1           0        6.936607    1.199885   -0.540247
     26          7           0        3.298626   -1.517375    0.313423
     27          8           0        4.034010   -2.501394    0.274016
     28          8           0        2.087655   -1.546648    0.521577
 ---------------------------------------------------------------------

 SCF Done:  E(RHF) =  -868.339745154     A.U. after   16 cycles
 E2 =    -0.2598453890D+01 EUMP2 =    -0.87093819904372D+03

 The electronic state is 1-A.
 Alpha  occ. eigenvalues --  -20.61706 -20.61648 -20.60465 -20.60455 -15.86718
 Alpha  occ. eigenvalues --  -15.85509 -11.31853 -11.30717 -11.28438 -11.28360
 Alpha  occ. eigenvalues --  -11.28054 -11.27344 -11.27323 -11.27261 -11.27257
 Alpha  occ. eigenvalues --  -11.26846 -11.26224 -11.26092  -1.60737  -1.59540
 Alpha  occ. eigenvalues --   -1.40303  -1.39099  -1.19994  -1.18847  -1.09423
 Alpha  occ. eigenvalues --   -1.08245  -1.05366  -1.04228  -0.96303  -0.95120
 Alpha  occ. eigenvalues --   -0.86773  -0.85608  -0.83149  -0.81965  -0.78232
 Alpha  occ. eigenvalues --   -0.77054  -0.72952  -0.72040  -0.71730  -0.71099
 Alpha  occ. eigenvalues --   -0.70861  -0.69910  -0.65652  -0.65360  -0.64485
 Alpha  occ. eigenvalues --   -0.64181  -0.62727  -0.61576  -0.55855  -0.54649
 Alpha  occ. eigenvalues --   -0.53699  -0.53455  -0.52564  -0.52290  -0.49712
 Alpha  occ. eigenvalues --   -0.49662  -0.48498  -0.48467  -0.45755  -0.44541
 Alpha  occ. eigenvalues --   -0.37945  -0.36956  -0.36780  -0.35839
 Alpha virt. eigenvalues --    0.04289   0.05469   0.10701   0.11832   0.15833
 Alpha virt. eigenvalues --    0.17029   0.20074   0.22025   0.25346   0.27150
 Alpha virt. eigenvalues --    0.28732   0.28963   0.30198   0.31159   0.32627

 Mulliken charges:
               1
     1  C   -0.171982
     2  C   -0.224868
     3  C   -0.172999
     4  C    0.158451
     5  C   -0.172287
     6  C   -0.218815
     7  H    0.233042
     8  H    0.238839
     9  H    0.269087
    10  H    0.273700
    11  H    0.222497
    12  N    0.488319
    13  O   -0.461367
    14  O   -0.463764
    15  C   -0.169848
    16  C   -0.218214
    17  C   -0.169920
    18  C    0.158580
    19  C   -0.170463
    20  C   -0.218223
    21  H    0.228618
    22  H    0.226506
    23  H    0.269534
    24  H    0.276677
    25  H    0.225813
    26  N    0.492386
    27  O   -0.455602
    28  O   -0.473696
 Sum of Mulliken charges =  -0.00000

 Dipole moment (field-independent basis, Debye):
    X=              5.6458    Y=              0.3589    Z=             -1.4321  Tot=              5.8356
 Quadrupole moment (field-independent basis, Debye-Ang):
   XX=           -104.9424   YY=           -105.9714   ZZ=           -106.6146
   XY=             37.3668   XZ=             -0.6013   YZ=              1.1784

 Normal termination of Gaussian 16 at Fri May  7 03:31:08 2021.
