 Gaussian 16, Revision A.03,
 Gaussian 16:  EM64L-G16RevA.03 25-Dec-2016

 -------------
 #p 6-31g* mp2
 -------------

 ------------------------------------------------------
 Input file generated by CHIRIPA (05-May-2021 14:57:27)
 ------------------------------------------------------
 Symbolic Z-matrix:
 Charge =  0 Multiplicity = 1

                         Standard orientation:
 ---------------------------------------------------------------------
 Center     Atomic      Atomic             Coordinates (Angstroms)
 Number     Number       Type             X           Y           Z
 ---------------------------------------------------------------------
      1          6           0        0.799552   -0.643197    1.973755
      2          6           0        1.570675   -1.678424    1.435058
      3          6           0        2.610146   -1.399190    0.542827
      4          6           0        2.851991   -0.067360    0.209613
      5          6           0        2.101366    0.986020    0.729461
      6          6           0        1.066887    0.683382    1.619861
      7          1           0       -0.005995   -0.869203    2.666150
      8          1           0        1.365326   -2.709599    1.708104
      9          1           0        3.222711   -2.181253    0.110901
     10          1           0        2.329953    2.004078    0.438388
     11          1           0        0.469656    1.489384    2.036660
     12          7           0        3.949790    0.240640   -0.733983
     13          8           0        4.142690    1.422315   -1.011599
     14          8           0        4.596557   -0.705456   -1.178090
     15          6           0       -2.336592    2.598914   -0.049334
     16          6           0       -3.522304    1.992421    0.378189
     17          6           0       -3.718458    0.618662    0.208315
     18          6           0       -2.703396   -0.121711   -0.395659
     19          6           0       -1.510964    0.453491   -0.832167
     20          6           0       -1.336469    1.828871   -0.652084
     21          1           0       -2.192629    3.666713    0.086593
     22          1           0       -4.300734    2.587965    0.846611
     23          1           0       -4.626621    0.123493    0.529975
     24          1           0       -0.753127   -0.166335   -1.295760
     25          1           0       -0.414606    2.297193   -0.985079
     26          7           0       -2.899589   -1.576907   -0.580900
     27          8           0       -1.990002   -2.207093   -1.115833
     28          8           0       -3.959238   -2.059748   -0.187651
 ---------------------------------------------------------------------

 SCF Done:  E(RHF) =  -868.336990790     A.U. after   16 cycles
 E2 =    -0.2603322774D+01 EUMP2 =    -0.87094031356361D+03

 The electronic state is 1-A.
 Alpha  occ. eigenvalues --  -20.61298 -20.61292 -20.61093 -20.61064 -15.86348
 Alpha  occ. eigenvalues --  -15.86131 -11.31695 -11.31517 -11.28284 -11.28218
 Alpha  occ. eigenvalues --  -11.28060 -11.28032 -11.27926 -11.27645 -11.27298
 Alpha  occ. eigenvalues --  -11.27230 -11.27060 -11.26943  -1.60378  -1.60158
 Alpha  occ. eigenvalues --   -1.39928  -1.39711  -1.19902  -1.19632  -1.09296
 Alpha  occ. eigenvalues --   -1.09016  -1.05312  -1.04987  -0.96119  -0.95860
 Alpha  occ. eigenvalues --   -0.86677  -0.86404  -0.82950  -0.82673  -0.77993
 Alpha  occ. eigenvalues --   -0.77744  -0.72562  -0.72341  -0.71715  -0.71489
 Alpha  occ. eigenvalues --   -0.70984  -0.70696  -0.65529  -0.65329  -0.65205
 Alpha  occ. eigenvalues --   -0.64993  -0.62629  -0.62345  -0.55793  -0.55468
 Alpha  occ. eigenvalues --   -0.54038  -0.53350  -0.53134  -0.52935  -0.49325
 Alpha  occ. eigenvalues --   -0.49315  -0.49110  -0.49093  -0.45334  -0.45113
 Alpha  occ. eigenvalues --   -0.38023  -0.37915  -0.37133  -0.35852
 Alpha virt. eigenvalues --    0.04460   0.04765   0.10698   0.10978   0.15754
 Alpha virt. eigenvalues --    0.16600   0.20433   0.21591   0.25927   0.27435
 Alpha virt. eigenvalues --    0.27856   0.28305   0.30160   0.31138   0.31832

 Mulliken charges:
               1
     1  C   -0.173947
     2  C   -0.213041
     3  C   -0.171845
     4  C    0.157609
     5  C   -0.183754
     6  C   -0.211504
     7  H    0.228400
     8  H    0.230604
     9  H    0.278448
    10  H    0.270075
    11  H    0.222107
    12  N    0.487963
    13  O   -0.463319
    14  O   -0.456757
    15  C   -0.176029
    16  C   -0.219828
    17  C   -0.173062
    18  C    0.153514
    19  C   -0.164251
    20  C   -0.221790
    21  H    0.226460
    22  H    0.224448
    23  H    0.276026
    24  H    0.279901
    25  H    0.226230
    26  N    0.487186
    27  O   -0.459266
    28  O   -0.460575
 Sum of Mulliken charges =  -0.00000

 Dipole moment (field-independent basis, Debye):
    X=             -3.1582    Y=              3.7887    Z=              3.9954  Tot=              6.3476
 Quadrupole moment (field-independent basis, Debye-Ang):
   XX=           -127.4668   YY=           -101.6630   ZZ=           -104.2446
   XY=            -18.8868   XZ=              4.4364   YZ=             -2.2156

 Normal termination of Gaussian 16 at Fri May  7 08:13:31 2021.
