 Gaussian 16, Revision A.03,
 Gaussian 16:  EM64L-G16RevA.03 25-Dec-2016

 -------------
 #p 6-31g* mp2
 -------------

 ------------------------------------------------------
 Input file generated by CHIRIPA (05-May-2021 14:51:11)
 ------------------------------------------------------
 Symbolic Z-matrix:
 Charge =  0 Multiplicity = 1

                         Standard orientation:
 ---------------------------------------------------------------------
 Center     Atomic      Atomic             Coordinates (Angstroms)
 Number     Number       Type             X           Y           Z
 ---------------------------------------------------------------------
      1          6           0        3.031496   -0.174789   -0.135819
      2          6           0        4.345716   -0.934536   -0.319108
      3          6           0        4.146735   -2.448184   -0.403198
      4          1           0        2.533063   -0.531731    0.775829
      5          1           0        2.359565   -0.411294   -0.972460
      6          1           0        5.015489   -0.695591    0.516909
      7          1           0        4.841171   -0.575608   -1.230322
      8          1           0        3.499213   -2.705285   -1.247718
      9          1           0        3.674521   -2.825948    0.509441
     10          1           0        5.098958   -2.971619   -0.534144
     11          6           0        3.214022    1.339495   -0.050043
     12          6           0        1.899802    2.099243    0.133246
     13          6           0        2.098783    3.612891    0.217336
     14          1           0        3.885953    1.576000    0.786598
     15          1           0        3.712455    1.696437   -0.961691
     16          1           0        1.404347    1.740315    1.044460
     17          1           0        1.230029    1.860297   -0.702771
     18          1           0        2.570997    3.990655   -0.695302
     19          1           0        2.746305    3.869991    1.061857
     20          1           0        1.146560    4.136326    0.348282
     21          6           0       -2.386624   -0.554767    0.294862
     22          6           0       -1.705077   -1.923513    0.290931
     23          6           0       -0.232753   -1.851943    0.697052
     24          1           0       -1.848806    0.117521   -0.387580
     25          1           0       -2.303005   -0.114160    1.297991
     26          1           0       -1.791165   -2.362009   -0.711529
     27          1           0       -2.244695   -2.592676    0.973316
     28          1           0       -0.130987   -1.438236    1.705562
     29          1           0        0.325119   -1.206258    0.011144
     30          1           0        0.234903   -2.841419    0.687470
     31          6           0       -3.858894   -0.609939   -0.109000
     32          6           0       -4.540441    0.758806   -0.105069
     33          6           0       -6.012765    0.687235   -0.511190
     34          1           0       -3.942513   -1.050547   -1.112129
     35          1           0       -4.396711   -1.282227    0.573442
     36          1           0       -4.000824    1.427970   -0.787454
     37          1           0       -4.454353    1.197302    0.897391
     38          1           0       -6.570638    0.041552    0.174718
     39          1           0       -6.114531    0.273530   -1.519700
     40          1           0       -6.480422    1.676713   -0.501609
 ---------------------------------------------------------------------

 SCF Done:  E(RHF) =  -470.732147160     A.U. after   11 cycles
 E2 =    -0.1583833213D+01 EUMP2 =    -0.47231598037234D+03

 The electronic state is 1-A.
 Alpha  occ. eigenvalues --  -11.21600 -11.21579 -11.21566 -11.21511 -11.21367
 Alpha  occ. eigenvalues --  -11.21363 -11.21301 -11.21286 -11.21069 -11.21055
 Alpha  occ. eigenvalues --  -11.21037 -11.20877  -1.08431  -1.08365  -1.03516
 Alpha  occ. eigenvalues --   -1.03464  -0.95997  -0.95887  -0.87028  -0.86899
 Alpha  occ. eigenvalues --   -0.79652  -0.79514  -0.78339  -0.78058  -0.65062
 Alpha  occ. eigenvalues --   -0.64996  -0.60909  -0.60878  -0.59369  -0.59246
 Alpha  occ. eigenvalues --   -0.57736  -0.57402  -0.55273  -0.55195  -0.52717
 Alpha  occ. eigenvalues --   -0.52614  -0.52546  -0.52157  -0.49932  -0.49859
 Alpha  occ. eigenvalues --   -0.47971  -0.47836  -0.46682  -0.46609  -0.45968
 Alpha  occ. eigenvalues --   -0.45765  -0.45586  -0.45195  -0.43759  -0.43717
 Alpha virt. eigenvalues --    0.21715   0.23043   0.23960   0.24144   0.25373
 Alpha virt. eigenvalues --    0.26108   0.27110   0.27765   0.27832   0.29933
 Alpha virt. eigenvalues --    0.30849   0.31172   0.31587   0.31790   0.32246

 Mulliken charges:
               1
     1  C   -0.303573
     2  C   -0.298931
     3  C   -0.476062
     4  H    0.157916
     5  H    0.149018
     6  H    0.151655
     7  H    0.151380
     8  H    0.155018
     9  H    0.155938
    10  H    0.159986
    11  C   -0.297642
    12  C   -0.300671
    13  C   -0.475660
    14  H    0.149356
    15  H    0.149129
    16  H    0.153338
    17  H    0.150937
    18  H    0.155060
    19  H    0.155242
    20  H    0.160392
    21  C   -0.298288
    22  C   -0.300251
    23  C   -0.481343
    24  H    0.149792
    25  H    0.149167
    26  H    0.151152
    27  H    0.151062
    28  H    0.152441
    29  H    0.165404
    30  H    0.159496
    31  C   -0.298183
    32  C   -0.299551
    33  C   -0.475667
    34  H    0.149308
    35  H    0.149604
    36  H    0.151790
    37  H    0.151843
    38  H    0.155152
    39  H    0.155106
    40  H    0.160142
 Sum of Mulliken charges =  -0.00000

 Dipole moment (field-independent basis, Debye):
    X=              0.0452    Y=              0.0120    Z=              0.0083  Tot=              0.0475
 Quadrupole moment (field-independent basis, Debye-Ang):
   XX=            -86.0182   YY=            -86.1291   ZZ=            -82.8660
   XY=              0.1026   XZ=             -0.3744   YZ=             -0.2251

 Normal termination of Gaussian 16 at Wed May  5 18:15:39 2021.
