 Gaussian 16, Revision A.03,
 Gaussian 16:  EM64L-G16RevA.03 25-Dec-2016

 -------------
 #p 6-31g* mp2
 -------------

 ------------------------------------------------------
 Input file generated by CHIRIPA (05-May-2021 14:53:13)
 ------------------------------------------------------
 Symbolic Z-matrix:
 Charge =  0 Multiplicity = 1

                         Standard orientation:
 ---------------------------------------------------------------------
 Center     Atomic      Atomic             Coordinates (Angstroms)
 Number     Number       Type             X           Y           Z
 ---------------------------------------------------------------------
      1          6           0       -1.922429    0.735305   -0.849446
      2          6           0       -1.401379    2.116700   -0.451653
      3          6           0       -0.074488    2.464972   -1.126828
      4          1           0       -1.168872   -0.021741   -0.592583
      5          1           0       -2.044231    0.697355   -1.940830
      6          1           0       -1.281910    2.152489    0.638788
      7          1           0       -2.156344    2.870525   -0.709317
      8          1           0       -0.182808    2.456960   -2.216233
      9          1           0        0.696595    1.734845   -0.860467
     10          1           0        0.279700    3.456611   -0.828395
     11          6           0       -3.248182    0.372775   -0.182603
     12          6           0       -3.769233   -1.008620   -0.580396
     13          6           0       -5.096124   -1.356892    0.094779
     14          1           0       -3.126380    0.410725    0.908781
     15          1           0       -4.001739    1.129821   -0.439466
     16          1           0       -3.014268   -1.762445   -0.322731
     17          1           0       -3.888702   -1.044409   -1.670837
     18          1           0       -5.867207   -0.626765   -0.171581
     19          1           0       -4.987804   -1.348881    1.184184
     20          1           0       -5.450312   -2.348532   -0.203654
     21          6           0        0.541020    0.073699    2.383708
     22          6           0        0.270216   -1.033482    1.572944
     23          6           0        1.082822   -1.323728    0.472953
     24          6           0        2.162731   -0.481814    0.211671
     25          6           0        2.458451    0.628720    1.000689
     26          6           0        1.632349    0.899810    2.095502
     27          1           0       -0.095474    0.291728    3.236196
     28          1           0       -0.576639   -1.676793    1.794377
     29          1           0        0.896039   -2.174319   -0.171271
     30          1           0        3.309859    1.251645    0.754748
     31          1           0        1.845054    1.760347    2.723416
     32          7           0        3.030144   -0.778944   -0.950099
     33          8           0        3.975448   -0.021718   -1.159009
     34          8           0        2.748292   -1.763435   -1.629786
 ---------------------------------------------------------------------

 SCF Done:  E(RHF) =  -669.532468494     A.U. after   15 cycles
 E2 =    -0.2097697026D+01 EUMP2 =    -0.67163016551970D+03

 The electronic state is 1-A.
 Alpha  occ. eigenvalues --  -20.60878 -20.60870 -15.85932 -11.31340 -11.27933
 Alpha  occ. eigenvalues --  -11.27912 -11.27710 -11.26974 -11.26964 -11.22075
 Alpha  occ. eigenvalues --  -11.21755 -11.21684 -11.21529 -11.21369 -11.20950
 Alpha  occ. eigenvalues --   -1.59952  -1.39502  -1.19589  -1.08957  -1.08674
 Alpha  occ. eigenvalues --   -1.04993  -1.03770  -0.96205  -0.95765  -0.87225
 Alpha  occ. eigenvalues --   -0.86364  -0.82593  -0.79862  -0.78498  -0.77621
 Alpha  occ. eigenvalues --   -0.72149  -0.71291  -0.70657  -0.65438  -0.65205
 Alpha  occ. eigenvalues --   -0.64933  -0.62308  -0.61267  -0.59592  -0.57828
 Alpha  occ. eigenvalues --   -0.55585  -0.55461  -0.53300  -0.53050  -0.52904
 Alpha  occ. eigenvalues --   -0.52621  -0.50214  -0.48914  -0.48899  -0.48129
 Alpha  occ. eigenvalues --   -0.46923  -0.45997  -0.45902  -0.44887  -0.44010
 Alpha  occ. eigenvalues --   -0.37484  -0.36402
 Alpha virt. eigenvalues --    0.04866   0.10931   0.16247   0.20022   0.23100
 Alpha virt. eigenvalues --    0.23849   0.25818   0.26415   0.27412   0.28644
 Alpha virt. eigenvalues --    0.28989   0.30036   0.31424   0.31484   0.32091

 Mulliken charges:
               1
     1  C   -0.304864
     2  C   -0.297683
     3  C   -0.480212
     4  H    0.156608
     5  H    0.151205
     6  H    0.145338
     7  H    0.150751
     8  H    0.157474
     9  H    0.161487
    10  H    0.156214
    11  C   -0.297357
    12  C   -0.298663
    13  C   -0.475337
    14  H    0.140832
    15  H    0.151546
    16  H    0.143583
    17  H    0.156416
    18  H    0.157530
    19  H    0.151426
    20  H    0.161624
    21  C   -0.170654
    22  C   -0.216460
    23  C   -0.176142
    24  C    0.163214
    25  C   -0.176870
    26  C   -0.212215
    27  H    0.226977
    28  H    0.226319
    29  H    0.277215
    30  H    0.276791
    31  H    0.225015
    32  N    0.488630
    33  O   -0.459636
    34  O   -0.460099
 Sum of Mulliken charges =  -0.00000

 Dipole moment (field-independent basis, Debye):
    X=             -2.9006    Y=              0.9902    Z=              4.1041  Tot=              5.1223
 Quadrupole moment (field-independent basis, Debye-Ang):
   XX=           -107.5639   YY=            -93.1401   ZZ=            -92.8211
   XY=              5.8654   XZ=             10.0046   YZ=             -0.8281

 Normal termination of Gaussian 16 at Thu May  6 04:11:45 2021.
