 Gaussian 16, Revision A.03,
 Gaussian 16:  EM64L-G16RevA.03 25-Dec-2016

 -------------
 #p 6-31g* mp2
 -------------

 ------------------------------------------------------
 Input file generated by CHIRIPA (05-May-2021 14:51:08)
 ------------------------------------------------------
 Symbolic Z-matrix:
 Charge =  0 Multiplicity = 1

                         Standard orientation:
 ---------------------------------------------------------------------
 Center     Atomic      Atomic             Coordinates (Angstroms)
 Number     Number       Type             X           Y           Z
 ---------------------------------------------------------------------
      1          6           0       -2.454046    0.352608    0.138277
      2          6           0       -2.904710    1.114466   -1.108502
      3          6           0       -3.100650    2.608590   -0.849664
      4          1           0       -3.197115    0.493807    0.935056
      5          1           0       -1.514725    0.788237    0.506107
      6          1           0       -3.842178    0.676644   -1.474673
      7          1           0       -2.160577    0.971280   -1.902467
      8          1           0       -2.167072    3.065719   -0.506057
      9          1           0       -3.858227    2.769408   -0.075833
     10          1           0       -3.422794    3.133873   -1.754187
     11          6           0       -2.253903   -1.142282   -0.104569
     12          6           0       -1.803239   -1.904140    1.142210
     13          6           0       -1.607298   -3.398263    0.883372
     14          1           0       -3.193224   -1.577911   -0.472399
     15          1           0       -1.510834   -1.283481   -0.901348
     16          1           0       -2.547372   -1.760954    1.936175
     17          1           0       -0.865771   -1.466317    1.508381
     18          1           0       -0.849721   -3.559082    0.109541
     19          1           0       -2.540876   -3.855392    0.539765
     20          1           0       -1.285154   -3.923547    1.787895
     21          6           0        2.476500    1.147337   -0.063347
     22          6           0        1.694709    1.954207    0.973837
     23          6           0        1.950298    3.457968    0.868143
     24          1           0        3.549778    1.347747    0.058535
     25          1           0        2.205620    1.496422   -1.069408
     26          1           0        1.965953    1.602762    1.977595
     27          1           0        0.623182    1.751706    0.849596
     28          1           0        1.662161    3.829138   -0.120700
     29          1           0        3.012562    3.679348    1.013709
     30          1           0        1.381571    4.015591    1.618787
     31          6           0        2.231448   -0.357664    0.029640
     32          6           0        3.013238   -1.164533   -1.007545
     33          6           0        2.757651   -2.668295   -0.901852
     34          1           0        2.502329   -0.706749    1.035700
     35          1           0        1.158171   -0.558074   -0.092243
     36          1           0        4.084767   -0.962032   -0.883304
     37          1           0        2.741996   -0.813089   -2.011303
     38          1           0        1.695387   -2.889675   -1.047417
     39          1           0        3.045788   -3.039464    0.086991
     40          1           0        3.326378   -3.225918   -1.652495
 ---------------------------------------------------------------------

 SCF Done:  E(RHF) =  -470.733135446     A.U. after   11 cycles
 E2 =    -0.1584917555D+01 EUMP2 =    -0.47231805300116D+03

 The electronic state is 1-A.
 Alpha  occ. eigenvalues --  -11.21671 -11.21667 -11.21641 -11.21576 -11.21481
 Alpha  occ. eigenvalues --  -11.21435 -11.21421 -11.21375 -11.21135 -11.21127
 Alpha  occ. eigenvalues --  -11.21104 -11.21055  -1.08534  -1.08436  -1.03609
 Alpha  occ. eigenvalues --   -1.03535  -0.96050  -0.95993  -0.87082  -0.86993
 Alpha  occ. eigenvalues --   -0.79677  -0.79597  -0.78404  -0.78203  -0.65438
 Alpha  occ. eigenvalues --   -0.64816  -0.61157  -0.60804  -0.59412  -0.59361
 Alpha  occ. eigenvalues --   -0.57680  -0.57586  -0.55418  -0.55211  -0.52739
 Alpha  occ. eigenvalues --   -0.52683  -0.52481  -0.52423  -0.50150  -0.49778
 Alpha  occ. eigenvalues --   -0.48104  -0.47830  -0.46831  -0.46602  -0.46281
 Alpha  occ. eigenvalues --   -0.45809  -0.45734  -0.45187  -0.43852  -0.43800
 Alpha virt. eigenvalues --    0.18871   0.21407   0.23882   0.24969   0.25562
 Alpha virt. eigenvalues --    0.25692   0.26779   0.27424   0.28843   0.29853
 Alpha virt. eigenvalues --    0.31068   0.31524   0.31618   0.31744   0.32264

 Mulliken charges:
               1
     1  C   -0.309113
     2  C   -0.298969
     3  C   -0.476411
     4  H    0.150289
     5  H    0.158798
     6  H    0.152281
     7  H    0.151176
     8  H    0.155382
     9  H    0.155485
    10  H    0.160421
    11  C   -0.298895
    12  C   -0.302679
    13  C   -0.477980
    14  H    0.150110
    15  H    0.148879
    16  H    0.152015
    17  H    0.155412
    18  H    0.157178
    19  H    0.155004
    20  H    0.160581
    21  C   -0.297470
    22  C   -0.309569
    23  C   -0.475361
    24  H    0.150218
    25  H    0.149289
    26  H    0.152345
    27  H    0.159790
    28  H    0.155149
    29  H    0.155599
    30  H    0.160686
    31  C   -0.305360
    32  C   -0.299575
    33  C   -0.478279
    34  H    0.149846
    35  H    0.155995
    36  H    0.152497
    37  H    0.151859
    38  H    0.156743
    39  H    0.155870
    40  H    0.160762
 Sum of Mulliken charges =  -0.00000

 Dipole moment (field-independent basis, Debye):
    X=              0.0225    Y=              0.0062    Z=              0.0180  Tot=              0.0295
 Quadrupole moment (field-independent basis, Debye-Ang):
   XX=            -83.1463   YY=            -87.1660   ZZ=            -84.2830
   XY=              0.1796   XZ=              0.2618   YZ=             -0.1844

 Normal termination of Gaussian 16 at Thu May  6 14:51:14 2021.
