 Gaussian 16, Revision A.03,
 Gaussian 16:  EM64L-G16RevA.03 25-Dec-2016

 -------------
 #p 6-31g* mp2
 -------------

 ------------------------------------------------------
 Input file generated by CHIRIPA (05-May-2021 14:57:26)
 ------------------------------------------------------
 Symbolic Z-matrix:
 Charge =  0 Multiplicity = 1

                         Standard orientation:
 ---------------------------------------------------------------------
 Center     Atomic      Atomic             Coordinates (Angstroms)
 Number     Number       Type             X           Y           Z
 ---------------------------------------------------------------------
      1          6           0        0.606616   -0.183771   -0.926046
      2          6           0        1.532098    0.662731   -1.545272
      3          6           0        2.872631    0.660666   -1.148390
      4          6           0        3.254863   -0.204563   -0.124394
      5          6           0        2.356519   -1.059738    0.511958
      6          6           0        1.021050   -1.040793    0.098785
      7          1           0       -0.432775   -0.175611   -1.240681
      8          1           0        1.213080    1.329355   -2.341440
      9          1           0        3.610052    1.305601   -1.610653
     10          1           0        2.704429   -1.713194    1.302762
     11          1           0        0.304504   -1.699287    0.581478
     12          7           0        4.671345   -0.215684    0.304390
     13          8           0        4.982849   -0.987296    1.208943
     14          8           0        5.443257    0.547422   -0.272202
     15          6           0       -2.050455    2.411679    0.932433
     16          6           0       -2.394586    2.210981   -0.408393
     17          6           0       -2.933318    0.991119   -0.828217
     18          6           0       -3.115278   -0.010823    0.123776
     19          6           0       -2.782335    0.158651    1.466802
     20          6           0       -2.245085    1.386681    1.864109
     21          1           0       -1.632531    3.362469    1.249818
     22          1           0       -2.244540    3.005224   -1.134139
     23          1           0       -3.208490    0.808844   -1.859951
     24          1           0       -2.943560   -0.651888    2.167124
     25          1           0       -1.978746    1.539727    2.906072
     26          7           0       -3.684825   -1.306559   -0.308754
     27          8           0       -3.835295   -2.173401    0.549490
     28          8           0       -3.969982   -1.430782   -1.497826
 ---------------------------------------------------------------------

 SCF Done:  E(RHF) =  -868.337052403     A.U. after   16 cycles
 E2 =    -0.2602634024D+01 EUMP2 =    -0.87093968642678D+03

 The electronic state is 1-A.
 Alpha  occ. eigenvalues --  -20.61886 -20.61880 -20.60841 -20.60835 -15.86940
 Alpha  occ. eigenvalues --  -15.85896 -11.32386 -11.31219 -11.28918 -11.28899
 Alpha  occ. eigenvalues --  -11.28569 -11.27931 -11.27862 -11.27830 -11.27787
 Alpha  occ. eigenvalues --  -11.27405 -11.26814 -11.26726  -1.60970  -1.59919
 Alpha  occ. eigenvalues --   -1.40516  -1.39473  -1.20556  -1.19393  -1.09893
 Alpha  occ. eigenvalues --   -1.08779  -1.05939  -1.04801  -0.96724  -0.95622
 Alpha  occ. eigenvalues --   -0.87311  -0.86192  -0.83536  -0.82467  -0.78602
 Alpha  occ. eigenvalues --   -0.77530  -0.73131  -0.72354  -0.72111  -0.71568
 Alpha  occ. eigenvalues --   -0.71246  -0.70490  -0.66157  -0.65877  -0.65038
 Alpha  occ. eigenvalues --   -0.64814  -0.63257  -0.62157  -0.56342  -0.55678
 Alpha  occ. eigenvalues --   -0.53985  -0.53939  -0.53023  -0.52885  -0.49904
 Alpha  occ. eigenvalues --   -0.49897  -0.48870  -0.48868  -0.45893  -0.44889
 Alpha  occ. eigenvalues --   -0.38501  -0.37597  -0.37267  -0.36394
 Alpha virt. eigenvalues --    0.03886   0.05021   0.09973   0.11234   0.15400
 Alpha virt. eigenvalues --    0.16520   0.20331   0.21486   0.26062   0.27012
 Alpha virt. eigenvalues --    0.27454   0.28438   0.30034   0.30721   0.32064

 Mulliken charges:
               1
     1  C   -0.167227
     2  C   -0.223503
     3  C   -0.171434
     4  C    0.157280
     5  C   -0.171606
     6  C   -0.223129
     7  H    0.232017
     8  H    0.218914
     9  H    0.274336
    10  H    0.275532
    11  H    0.225506
    12  N    0.488033
    13  O   -0.460469
    14  O   -0.461340
    15  C   -0.167929
    16  C   -0.214559
    17  C   -0.191626
    18  C    0.157779
    19  C   -0.174604
    20  C   -0.214696
    21  H    0.231389
    22  H    0.226198
    23  H    0.277167
    24  H    0.278161
    25  H    0.229290
    26  N    0.486832
    27  O   -0.457750
    28  O   -0.458564
 Sum of Mulliken charges =  -0.00000

 Dipole moment (field-independent basis, Debye):
    X=             -3.2371    Y=              4.7284    Z=              0.2228  Tot=              5.7347
 Quadrupole moment (field-independent basis, Debye-Ang):
   XX=           -151.1374   YY=           -102.3437   ZZ=            -97.6187
   XY=            -12.7358   XZ=             -9.6037   YZ=             -3.4603

 Normal termination of Gaussian 16 at Thu May  6 03:36:23 2021.
