 Gaussian 16, Revision A.03,
 Gaussian 16:  EM64L-G16RevA.03 25-Dec-2016

 -------------
 #p 6-31g* mp2
 -------------

 ------------------------------------------------------
 Input file generated by CHIRIPA (05-May-2021 14:55:22)
 ------------------------------------------------------
 Symbolic Z-matrix:
 Charge =  0 Multiplicity = 1

                         Standard orientation:
 ---------------------------------------------------------------------
 Center     Atomic      Atomic             Coordinates (Angstroms)
 Number     Number       Type             X           Y           Z
 ---------------------------------------------------------------------
      1          6           0       -3.278173   -1.995858   -1.215555
      2          6           0       -2.001974   -1.634505   -0.771413
      3          6           0       -1.785860   -0.392677   -0.166677
      4          6           0       -2.873448    0.467171   -0.021414
      5          6           0       -4.156744    0.136006   -0.453584
      6          6           0       -4.349596   -1.111010   -1.055505
      7          1           0       -3.437020   -2.962555   -1.684235
      8          1           0       -1.168033   -2.319679   -0.894397
      9          1           0       -0.808270   -0.087464    0.186285
     10          1           0       -4.968465    0.840217   -0.317152
     11          1           0       -5.341799   -1.388972   -1.399475
     12          7           0       -2.656971    1.784585    0.617303
     13          8           0       -3.631680    2.524217    0.733598
     14          8           0       -1.516688    2.052596    0.989539
     15          6           0        3.566455   -0.828203    0.710331
     16          6           0        2.097395   -1.251117    0.741856
     17          6           0        1.798494   -2.268003    1.843852
     18          1           0        4.194762   -1.718418    0.570002
     19          1           0        3.839561   -0.403552    1.686282
     20          1           0        1.826768   -1.673574   -0.234313
     21          1           0        1.472503   -0.359768    0.881934
     22          1           0        2.040977   -1.852681    2.827371
     23          1           0        2.397256   -3.173952    1.704780
     24          1           0        0.742737   -2.556478    1.848315
     25          6           0        3.880909    0.188087   -0.386026
     26          6           0        5.349968    0.611001   -0.417550
     27          6           0        5.648871    1.627886   -1.519545
     28          1           0        3.607803   -0.236564   -1.361977
     29          1           0        3.252602    1.078302   -0.245697
     30          1           0        5.974862   -0.280348   -0.557629
     31          1           0        5.620596    1.033458    0.558619
     32          1           0        5.050108    2.533836   -1.380475
     33          1           0        5.406386    1.212565   -2.503065
     34          1           0        6.704627    1.916362   -1.524009
 ---------------------------------------------------------------------

 SCF Done:  E(RHF) =  -669.535776802     A.U. after   15 cycles
 E2 =    -0.2091622501D+01 EUMP2 =    -0.67162739930300D+03

 The electronic state is 1-A.
 Alpha  occ. eigenvalues --  -20.60749 -20.60743 -15.85799 -11.31127 -11.27714
 Alpha  occ. eigenvalues --  -11.27657 -11.27456 -11.26726 -11.26700 -11.22227
 Alpha  occ. eigenvalues --  -11.21700 -11.21669 -11.21592 -11.21509 -11.21068
 Alpha  occ. eigenvalues --   -1.59822  -1.39377  -1.19307  -1.08713  -1.08708
 Alpha  occ. eigenvalues --   -1.04707  -1.03828  -0.96243  -0.95549  -0.87260
 Alpha  occ. eigenvalues --   -0.86108  -0.82383  -0.79944  -0.78507  -0.77419
 Alpha  occ. eigenvalues --   -0.72021  -0.71143  -0.70426  -0.65344  -0.64961
 Alpha  occ. eigenvalues --   -0.64702  -0.62098  -0.61204  -0.59628  -0.57859
 Alpha  occ. eigenvalues --   -0.55504  -0.55214  -0.53049  -0.52961  -0.52827
 Alpha  occ. eigenvalues --   -0.52645  -0.50168  -0.48777  -0.48775  -0.48222
 Alpha  occ. eigenvalues --   -0.46949  -0.46034  -0.45924  -0.44790  -0.44062
 Alpha  occ. eigenvalues --   -0.37296  -0.36306
 Alpha virt. eigenvalues --    0.05091   0.11341   0.16558   0.19703   0.22893
 Alpha virt. eigenvalues --    0.23833   0.25346   0.25949   0.27410   0.28124
 Alpha virt. eigenvalues --    0.29455   0.29573   0.31386   0.31628   0.31892

 Mulliken charges:
               1
     1  C   -0.170482
     2  C   -0.224924
     3  C   -0.178749
     4  C    0.158126
     5  C   -0.169963
     6  C   -0.219132
     7  H    0.225423
     8  H    0.225568
     9  H    0.288761
    10  H    0.275412
    11  H    0.223213
    12  N    0.487178
    13  O   -0.460379
    14  O   -0.461642
    15  C   -0.296622
    16  C   -0.311638
    17  C   -0.476407
    18  H    0.149888
    19  H    0.154000
    20  H    0.144443
    21  H    0.159708
    22  H    0.161821
    23  H    0.156377
    24  H    0.156062
    25  C   -0.300468
    26  C   -0.300024
    27  C   -0.476230
    28  H    0.147250
    29  H    0.155701
    30  H    0.150993
    31  H    0.153739
    32  H    0.158025
    33  H    0.154284
    34  H    0.160687
 Sum of Mulliken charges =  -0.00000

 Dipole moment (field-independent basis, Debye):
    X=             -0.6076    Y=             -4.5737    Z=             -2.1798  Tot=              5.1029
 Quadrupole moment (field-independent basis, Debye-Ang):
   XX=            -85.3019   YY=            -99.5562   ZZ=            -95.4223
   XY=             11.6790   XZ=              7.6672   YZ=             -0.0453

 Normal termination of Gaussian 16 at Thu May  6 09:24:12 2021.
