 Gaussian 16, Revision A.03,
 Gaussian 16:  EM64L-G16RevA.03 25-Dec-2016

 -------------
 #p 6-31g* mp2
 -------------

 ------------------------------------------------------
 Input file generated by CHIRIPA (05-May-2021 14:53:14)
 ------------------------------------------------------
 Symbolic Z-matrix:
 Charge =  0 Multiplicity = 1

                         Standard orientation:
 ---------------------------------------------------------------------
 Center     Atomic      Atomic             Coordinates (Angstroms)
 Number     Number       Type             X           Y           Z
 ---------------------------------------------------------------------
      1          6           0       -2.702064    1.320734   -0.296921
      2          6           0       -1.437228    2.117420   -0.618581
      3          6           0       -1.728042    3.583383   -0.941340
      4          1           0       -3.391910    1.380001   -1.149884
      5          1           0       -3.215853    1.789499    0.553771
      6          1           0       -0.925249    1.646488   -1.467531
      7          1           0       -0.750233    2.056090    0.235171
      8          1           0       -2.217959    4.074475   -0.094339
      9          1           0       -2.393969    3.662546   -1.806716
     10          1           0       -0.809951    4.134281   -1.168233
     11          6           0       -2.427628   -0.146557    0.027842
     12          6           0       -3.692464   -0.943243    0.349502
     13          6           0       -3.401650   -2.409206    0.672261
     14          1           0       -1.913839   -0.615322   -0.822850
     15          1           0       -1.737782   -0.205824    0.880805
     16          1           0       -4.379459   -0.881913   -0.504250
     17          1           0       -4.204443   -0.472311    1.198452
     18          1           0       -2.735723   -2.488369    1.537637
     19          1           0       -2.911733   -2.900298   -0.174740
     20          1           0       -4.319741   -2.960104    0.899154
     21          6           0        1.183239   -2.638570   -0.864752
     22          6           0        0.601732   -2.127868    0.300389
     23          6           0        1.048367   -0.920947    0.846654
     24          6           0        2.083113   -0.247917    0.198872
     25          6           0        2.682720   -0.730903   -0.963232
     26          6           0        2.220050   -1.939690   -1.491739
     27          1           0        0.830054   -3.576860   -1.282206
     28          1           0       -0.203629   -2.668474    0.789452
     29          1           0        0.616040   -0.502779    1.747569
     30          1           0        3.483843   -0.169310   -1.428242
     31          1           0        2.673527   -2.333918   -2.396718
     32          7           0        2.564434    1.030784    0.767778
     33          8           0        3.477484    1.604566    0.178074
     34          8           0        2.019529    1.435035    1.792617
 ---------------------------------------------------------------------

 SCF Done:  E(RHF) =  -669.534148195     A.U. after   15 cycles
 E2 =    -0.2095281595D+01 EUMP2 =    -0.67162942978986D+03

 The electronic state is 1-A.
 Alpha  occ. eigenvalues --  -20.60830 -20.60824 -15.85855 -11.31156 -11.27701
 Alpha  occ. eigenvalues --  -11.27689 -11.27434 -11.26728 -11.26648 -11.22106
 Alpha  occ. eigenvalues --  -11.21950 -11.21688 -11.21459 -11.21390 -11.20785
 Alpha  occ. eigenvalues --   -1.59885  -1.39443  -1.19321  -1.08738  -1.08656
 Alpha  occ. eigenvalues --   -1.04720  -1.03750  -0.96235  -0.95576  -0.87257
 Alpha  occ. eigenvalues --   -0.86119  -0.82431  -0.79861  -0.78485  -0.77417
 Alpha  occ. eigenvalues --   -0.72081  -0.71191  -0.70446  -0.65324  -0.64967
 Alpha  occ. eigenvalues --   -0.64728  -0.62085  -0.61141  -0.59629  -0.57834
 Alpha  occ. eigenvalues --   -0.55549  -0.55223  -0.53210  -0.52925  -0.52832
 Alpha  occ. eigenvalues --   -0.52505  -0.50197  -0.48849  -0.48833  -0.48148
 Alpha  occ. eigenvalues --   -0.46891  -0.45994  -0.45850  -0.44783  -0.43976
 Alpha  occ. eigenvalues --   -0.37292  -0.36173
 Alpha virt. eigenvalues --    0.05046   0.11185   0.16494   0.19961   0.23021
 Alpha virt. eigenvalues --    0.23915   0.25142   0.26348   0.26964   0.28671
 Alpha virt. eigenvalues --    0.29875   0.30300   0.31194   0.31825   0.32100

 Mulliken charges:
               1
     1  C   -0.298110
     2  C   -0.306262
     3  C   -0.475673
     4  H    0.148867
     5  H    0.150903
     6  H    0.149660
     7  H    0.161107
     8  H    0.156343
     9  H    0.152281
    10  H    0.165222
    11  C   -0.298844
    12  C   -0.298966
    13  C   -0.478441
    14  H    0.151397
    15  H    0.143604
    16  H    0.154187
    17  H    0.154843
    18  H    0.148354
    19  H    0.150678
    20  H    0.165111
    21  C   -0.174562
    22  C   -0.216040
    23  C   -0.169985
    24  C    0.159407
    25  C   -0.172293
    26  C   -0.218326
    27  H    0.225374
    28  H    0.230285
    29  H    0.273856
    30  H    0.275112
    31  H    0.223016
    32  N    0.488613
    33  O   -0.459434
    34  O   -0.461282
 Sum of Mulliken charges =  -0.00000

 Dipole moment (field-independent basis, Debye):
    X=             -1.7150    Y=             -4.4028    Z=             -2.0098  Tot=              5.1347
 Quadrupole moment (field-independent basis, Debye-Ang):
   XX=            -99.9204   YY=            -94.1797   ZZ=            -92.4003
   XY=             -8.6239   XZ=             -7.3574   YZ=             -0.0782

 Normal termination of Gaussian 16 at Wed May  5 15:35:08 2021.
