 Gaussian 16, Revision A.03,
 Gaussian 16:  EM64L-G16RevA.03 25-Dec-2016

 -------------
 #p 6-31g* mp2
 -------------

 ------------------------------------------------------
 Input file generated by CHIRIPA (05-May-2021 14:51:09)
 ------------------------------------------------------
 Symbolic Z-matrix:
 Charge =  0 Multiplicity = 1

                         Standard orientation:
 ---------------------------------------------------------------------
 Center     Atomic      Atomic             Coordinates (Angstroms)
 Number     Number       Type             X           Y           Z
 ---------------------------------------------------------------------
      1          6           0        3.944788   -0.472502    0.127463
      2          6           0        4.761895   -1.460168   -0.706106
      3          6           0        5.026621   -2.775368    0.027354
      4          1           0        4.475387   -0.269256    1.067730
      5          1           0        2.988648   -0.938849    0.402618
      6          1           0        5.715629   -0.991591   -0.980773
      7          1           0        4.229381   -1.660938   -1.644582
      8          1           0        4.084081   -3.267749    0.287702
      9          1           0        5.578773   -2.594599    0.955283
     10          1           0        5.612208   -3.466665   -0.586694
     11          6           0        3.671949    0.847081   -0.592251
     12          6           0        2.854843    1.834748    0.241318
     13          6           0        2.590117    3.149948   -0.492142
     14          1           0        4.628090    1.313429   -0.867406
     15          1           0        3.141350    0.643836   -1.532517
     16          1           0        3.387356    2.035518    1.179794
     17          1           0        1.901108    1.366171    0.515985
     18          1           0        2.037964    2.969179   -1.420070
     19          1           0        3.532656    3.642329   -0.752490
     20          1           0        2.004529    3.841245    0.121906
     21          6           0       -4.260010   -0.273321   -0.377566
     22          6           0       -5.747221   -0.332657   -0.027326
     23          6           0       -6.637965   -0.504966   -1.258049
     24          1           0       -4.087183    0.556763   -1.076162
     25          1           0       -3.978659   -1.192935   -0.909118
     26          1           0       -6.025370    0.586187    0.504628
     27          1           0       -5.916497   -1.162576    0.670668
     28          1           0       -6.388909   -1.430400   -1.787334
     29          1           0       -6.498400    0.328300   -1.954318
     30          1           0       -7.697000   -0.544948   -0.984726
     31          6           0       -3.356727   -0.101258    0.842354
     32          6           0       -1.869516   -0.041923    0.492113
     33          6           0       -0.978773    0.130386    1.722836
     34          1           0       -3.638078    0.818355    1.373905
     35          1           0       -3.529554   -0.931342    1.540950
     36          1           0       -1.700240    0.787997   -0.205879
     37          1           0       -1.591367   -0.960767   -0.039839
     38          1           0       -1.118336   -0.702880    2.419106
     39          1           0       -1.227829    1.055821    2.252122
     40          1           0        0.080262    0.170368    1.449514
 ---------------------------------------------------------------------

 SCF Done:  E(RHF) =  -470.733331617     A.U. after   11 cycles
 E2 =    -0.1582540508D+01 EUMP2 =    -0.47231587212519D+03

 The electronic state is 1-A.
 Alpha  occ. eigenvalues --  -11.21642 -11.21617 -11.21603 -11.21581 -11.21429
 Alpha  occ. eigenvalues --  -11.21406 -11.21369 -11.21346 -11.21095 -11.21084
 Alpha  occ. eigenvalues --  -11.21069 -11.21067  -1.08457  -1.08429  -1.03564
 Alpha  occ. eigenvalues --   -1.03519  -0.96008  -0.95974  -0.87033  -0.86982
 Alpha  occ. eigenvalues --   -0.79644  -0.79567  -0.78268  -0.78245  -0.65091
 Alpha  occ. eigenvalues --   -0.65065  -0.60986  -0.60917  -0.59453  -0.59269
 Alpha  occ. eigenvalues --   -0.57643  -0.57561  -0.55299  -0.55250  -0.52765
 Alpha  occ. eigenvalues --   -0.52642  -0.52450  -0.52379  -0.49952  -0.49905
 Alpha  occ. eigenvalues --   -0.48018  -0.47840  -0.46655  -0.46604  -0.45817
 Alpha  occ. eigenvalues --   -0.45776  -0.45733  -0.45697  -0.43804  -0.43743
 Alpha virt. eigenvalues --    0.21060   0.23070   0.23746   0.24646   0.25916
 Alpha virt. eigenvalues --    0.26628   0.27055   0.27512   0.27930   0.28848
 Alpha virt. eigenvalues --    0.30855   0.31390   0.31699   0.31829   0.32041

 Mulliken charges:
               1
     1  C   -0.299284
     2  C   -0.299651
     3  C   -0.475720
     4  H    0.149845
     5  H    0.149672
     6  H    0.152055
     7  H    0.151973
     8  H    0.155216
     9  H    0.155234
    10  H    0.160232
    11  C   -0.297707
    12  C   -0.308499
    13  C   -0.475132
    14  H    0.149593
    15  H    0.149568
    16  H    0.152038
    17  H    0.160298
    18  H    0.154948
    19  H    0.155176
    20  H    0.160241
    21  C   -0.298299
    22  C   -0.299685
    23  C   -0.475725
    24  H    0.149701
    25  H    0.149464
    26  H    0.152005
    27  H    0.151980
    28  H    0.155174
    29  H    0.155213
    30  H    0.160324
    31  C   -0.298324
    32  C   -0.299689
    33  C   -0.483165
    34  H    0.149713
    35  H    0.149801
    36  H    0.152131
    37  H    0.151495
    38  H    0.155541
    39  H    0.155593
    40  H    0.166655
 Sum of Mulliken charges =  -0.00000

 Dipole moment (field-independent basis, Debye):
    X=             -0.0064    Y=              0.0023    Z=              0.0067  Tot=              0.0095
 Quadrupole moment (field-independent basis, Debye-Ang):
   XX=            -84.6813   YY=            -84.6150   ZZ=            -85.4187
   XY=              0.4444   XZ=             -0.3698   YZ=              0.3643

 Normal termination of Gaussian 16 at Thu May  6 02:07:27 2021.
