 Gaussian 16, Revision A.03,
 Gaussian 16:  EM64L-G16RevA.03 25-Dec-2016

 -------------
 #p 6-31g* mp2
 -------------

 ------------------------------------------------------
 Input file generated by CHIRIPA (05-May-2021 14:53:11)
 ------------------------------------------------------
 Symbolic Z-matrix:
 Charge =  0 Multiplicity = 1

                         Standard orientation:
 ---------------------------------------------------------------------
 Center     Atomic      Atomic             Coordinates (Angstroms)
 Number     Number       Type             X           Y           Z
 ---------------------------------------------------------------------
      1          6           0        2.991741    0.138732    0.091871
      2          6           0        3.720022   -0.557759   -1.058126
      3          6           0        4.480164   -1.805385   -0.607118
      4          1           0        3.720655    0.411975    0.867092
      5          1           0        2.292253   -0.570001    0.556425
      6          1           0        4.416926    0.152488   -1.521256
      7          1           0        2.989317   -0.829206   -1.830786
      8          1           0        3.794666   -2.534918   -0.163863
      9          1           0        5.230387   -1.547647    0.147426
     10          1           0        4.993390   -2.287564   -1.444951
     11          6           0        2.227225    1.387703   -0.343229
     12          6           0        1.498945    2.084194    0.806767
     13          6           0        0.738803    3.331820    0.355760
     14          1           0        2.926713    2.096436   -0.807783
     15          1           0        1.498311    1.114460   -1.118451
     16          1           0        2.229650    2.355640    1.579427
     17          1           0        0.802040    1.373947    1.269897
     18          1           0       -0.011420    3.074082   -0.398785
     19          1           0        1.424301    4.061353   -0.087496
     20          1           0        0.225577    3.813999    1.193592
     21          6           0       -0.536440   -1.467224    1.928676
     22          6           0       -1.666846   -0.709503    2.252036
     23          6           0       -2.506275   -0.221803    1.246027
     24          6           0       -2.183887   -0.512062   -0.078778
     25          6           0       -1.064868   -1.264197   -0.432865
     26          6           0       -0.239582   -1.741669    0.589618
     27          1           0        0.110155   -1.842109    2.716568
     28          1           0       -1.899852   -0.494810    3.291103
     29          1           0       -3.387777    0.367273    1.468200
     30          1           0       -0.858538   -1.461818   -1.477754
     31          1           0        0.637637   -2.329866    0.335541
     32          7           0       -3.065066   -0.001170   -1.152515
     33          8           0       -2.759141   -0.270732   -2.311991
     34          8           0       -4.044975    0.659156   -0.814305
 ---------------------------------------------------------------------

 SCF Done:  E(RHF) =  -669.534666462     A.U. after   15 cycles
 E2 =    -0.2095024614D+01 EUMP2 =    -0.67162969107629D+03

 The electronic state is 1-A.
 Alpha  occ. eigenvalues --  -20.60879 -20.60874 -15.85935 -11.31352 -11.27912
 Alpha  occ. eigenvalues --  -11.27908 -11.27655 -11.26941 -11.26925 -11.22130
 Alpha  occ. eigenvalues --  -11.21791 -11.21743 -11.21690 -11.21585 -11.21089
 Alpha  occ. eigenvalues --   -1.59954  -1.39506  -1.19531  -1.08939  -1.08754
 Alpha  occ. eigenvalues --   -1.04936  -1.03863  -0.96317  -0.95736  -0.87334
 Alpha  occ. eigenvalues --   -0.86333  -0.82565  -0.79940  -0.78582  -0.77605
 Alpha  occ. eigenvalues --   -0.72151  -0.71280  -0.70616  -0.65576  -0.65176
 Alpha  occ. eigenvalues --   -0.64849  -0.62281  -0.61258  -0.59700  -0.57921
 Alpha  occ. eigenvalues --   -0.55644  -0.55413  -0.53300  -0.53036  -0.52973
 Alpha  occ. eigenvalues --   -0.52729  -0.50265  -0.48918  -0.48903  -0.48247
 Alpha  occ. eigenvalues --   -0.46989  -0.46093  -0.46010  -0.44901  -0.44104
 Alpha  occ. eigenvalues --   -0.37434  -0.36480
 Alpha virt. eigenvalues --    0.04907   0.10986   0.16345   0.19497   0.23026
 Alpha virt. eigenvalues --    0.23472   0.25768   0.26342   0.27637   0.28413
 Alpha virt. eigenvalues --    0.28778   0.30002   0.31312   0.31577   0.31996

 Mulliken charges:
               1
     1  C   -0.301926
     2  C   -0.300784
     3  C   -0.474778
     4  H    0.149408
     5  H    0.144596
     6  H    0.156206
     7  H    0.149728
     8  H    0.145779
     9  H    0.157440
    10  H    0.163553
    11  C   -0.297214
    12  C   -0.305662
    13  C   -0.475739
    14  H    0.150877
    15  H    0.150890
    16  H    0.148895
    17  H    0.156583
    18  H    0.158703
    19  H    0.155543
    20  H    0.159034
    21  C   -0.171242
    22  C   -0.218152
    23  C   -0.170446
    24  C    0.158806
    25  C   -0.172780
    26  C   -0.217016
    27  H    0.227443
    28  H    0.224696
    29  H    0.276497
    30  H    0.276249
    31  H    0.226639
    32  N    0.487890
    33  O   -0.460071
    34  O   -0.459643
 Sum of Mulliken charges =  -0.00000

 Dipole moment (field-independent basis, Debye):
    X=              3.0040    Y=             -1.7840    Z=              3.7776  Tot=              5.1455
 Quadrupole moment (field-independent basis, Debye-Ang):
   XX=           -106.6300   YY=            -93.2490   ZZ=            -93.2213
   XY=              2.0117   XZ=            -11.0980   YZ=             -0.0499

 Normal termination of Gaussian 16 at Wed May  5 16:56:57 2021.
