 Gaussian 16, Revision A.03,
 Gaussian 16:  EM64L-G16RevA.03 25-Dec-2016

 -------------
 #p 6-31g* mp2
 -------------

 ------------------------------------------------------
 Input file generated by CHIRIPA (05-May-2021 14:57:21)
 ------------------------------------------------------
 Symbolic Z-matrix:
 Charge =  0 Multiplicity = 1

                         Standard orientation:
 ---------------------------------------------------------------------
 Center     Atomic      Atomic             Coordinates (Angstroms)
 Number     Number       Type             X           Y           Z
 ---------------------------------------------------------------------
      1          6           0        5.432026    0.586479   -0.995444
      2          6           0        4.299043    1.403219   -1.071648
      3          6           0        3.090130    0.995528   -0.499926
      4          6           0        3.049678   -0.240568    0.143285
      5          6           0        4.161225   -1.076741    0.235856
      6          6           0        5.359628   -0.648717   -0.343085
      7          1           0        6.367056    0.911080   -1.442376
      8          1           0        4.352338    2.362991   -1.577654
      9          1           0        2.197773    1.608026   -0.544231
     10          1           0        4.077224   -2.028187    0.746847
     11          1           0        6.237920   -1.285083   -0.282365
     12          7           0        1.775419   -0.682935    0.752363
     13          8           0        1.765846   -1.776413    1.313478
     14          8           0        0.810356    0.072193    0.657110
     15          6           0       -2.474020    2.319731    1.014094
     16          6           0       -2.286019    1.103711    1.679280
     17          6           0       -2.717325   -0.094852    1.103112
     18          6           0       -3.335647   -0.040394   -0.145088
     19          6           0       -3.537325    1.155318   -0.832758
     20          6           0       -3.097973    2.341615   -0.237596
     21          1           0       -2.135846    3.246039    1.469052
     22          1           0       -1.801757    1.083696    2.651460
     23          1           0       -2.584458   -1.050230    1.596080
     24          1           0       -4.023313    1.143446   -1.800794
     25          1           0       -3.245306    3.284526   -0.756493
     26          7           0       -3.796510   -1.302766   -0.765105
     27          8           0       -4.338507   -1.227919   -1.865684
     28          8           0       -3.607011   -2.343157   -0.138756
 ---------------------------------------------------------------------

 SCF Done:  E(RHF) =  -868.338089332     A.U. after   16 cycles
 E2 =    -0.2599878315D+01 EUMP2 =    -0.87093796764781D+03

 The electronic state is 1-A.
 Alpha  occ. eigenvalues --  -20.61177 -20.61149 -20.59722 -20.59693 -15.86196
 Alpha  occ. eigenvalues --  -15.84755 -11.31484 -11.29922 -11.28063 -11.28027
 Alpha  occ. eigenvalues --  -11.27770 -11.27052 -11.27023 -11.26566 -11.26375
 Alpha  occ. eigenvalues --  -11.26273 -11.25615 -11.25395  -1.60240  -1.58788
 Alpha  occ. eigenvalues --   -1.39795  -1.38346  -1.19651  -1.18089  -1.09062
 Alpha  occ. eigenvalues --   -1.07553  -1.05042  -1.03463  -0.95911  -0.94414
 Alpha  occ. eigenvalues --   -0.86444  -0.84905  -0.82745  -0.81249  -0.77803
 Alpha  occ. eigenvalues --   -0.76303  -0.72431  -0.71551  -0.70989  -0.70758
 Alpha  occ. eigenvalues --   -0.70100  -0.69275  -0.65306  -0.65046  -0.63771
 Alpha  occ. eigenvalues --   -0.63521  -0.62392  -0.60838  -0.55546  -0.54070
 Alpha  occ. eigenvalues --   -0.53374  -0.53136  -0.51809  -0.51599  -0.49190
 Alpha  occ. eigenvalues --   -0.49162  -0.47749  -0.47726  -0.45217  -0.43794
 Alpha  occ. eigenvalues --   -0.37625  -0.36642  -0.36102  -0.34950
 Alpha virt. eigenvalues --    0.04720   0.06234   0.11014   0.12620   0.16243
 Alpha virt. eigenvalues --    0.17754   0.21162   0.22529   0.27067   0.28049
 Alpha virt. eigenvalues --    0.28481   0.29398   0.30726   0.32013   0.32255

 Mulliken charges:
               1
     1  C   -0.170361
     2  C   -0.218389
     3  C   -0.171040
     4  C    0.158094
     5  C   -0.170260
     6  C   -0.218457
     7  H    0.226554
     8  H    0.223336
     9  H    0.273931
    10  H    0.276840
    11  H    0.224745
    12  N    0.490602
    13  O   -0.458489
    14  O   -0.466013
    15  C   -0.173207
    16  C   -0.201494
    17  C   -0.156377
    18  C    0.155835
    19  C   -0.173573
    20  C   -0.220122
    21  H    0.218672
    22  H    0.222862
    23  H    0.278052
    24  H    0.270152
    25  H    0.216065
    26  N    0.488017
    27  O   -0.466399
    28  O   -0.459577
 Sum of Mulliken charges =  -0.00000

 Dipole moment (field-independent basis, Debye):
    X=              6.4850    Y=              5.8043    Z=              0.2366  Tot=              8.7064
 Quadrupole moment (field-independent basis, Debye-Ang):
   XX=            -88.7329   YY=           -102.2468   ZZ=           -103.5491
   XY=            -13.9681   XZ=            -11.9917   YZ=             -3.9095

 Normal termination of Gaussian 16 at Thu May  6 19:27:20 2021.
