 Gaussian 16, Revision A.03,
 Gaussian 16:  EM64L-G16RevA.03 25-Dec-2016

 -------------
 #p 6-31g* mp2
 -------------

 ------------------------------------------------------
 Input file generated by CHIRIPA (05-May-2021 14:51:07)
 ------------------------------------------------------
 Symbolic Z-matrix:
 Charge =  0 Multiplicity = 1

                         Standard orientation:
 ---------------------------------------------------------------------
 Center     Atomic      Atomic             Coordinates (Angstroms)
 Number     Number       Type             X           Y           Z
 ---------------------------------------------------------------------
      1          6           0       -3.037536    0.506426    0.318296
      2          6           0       -3.698240    0.559477   -1.059616
      3          6           0       -4.607863    1.776218   -1.232600
      4          1           0       -3.817627    0.495755    1.091788
      5          1           0       -2.455670    1.425462    0.473856
      6          1           0       -4.277566   -0.360003   -1.213091
      7          1           0       -2.916489    0.569829   -1.829923
      8          1           0       -4.039421    2.703278   -1.105978
      9          1           0       -5.408231    1.768163   -0.485642
     10          1           0       -5.069814    1.794320   -2.224635
     11          6           0       -2.125144   -0.704304    0.506453
     12          6           0       -1.464440   -0.757355    1.884364
     13          6           0       -0.554817   -1.974095    2.057349
     14          1           0       -2.707010   -1.623340    0.350893
     15          1           0       -1.345053   -0.693633   -0.267039
     16          1           0       -2.246192   -0.767707    2.654672
     17          1           0       -0.885115    0.162125    2.037840
     18          1           0        0.245551   -1.966041    1.310390
     19          1           0       -1.123260   -2.901156    1.930727
     20          1           0       -0.092866   -1.992198    3.049384
     21          6           0        2.207883   -0.561881   -0.327060
     22          6           0        2.380229   -1.513111   -1.511730
     23          6           0        1.627195   -2.830808   -1.326235
     24          1           0        2.556600   -1.059426    0.588249
     25          1           0        1.138025   -0.356750   -0.183120
     26          1           0        3.449540   -1.715292   -1.654256
     27          1           0        2.031240   -1.013174   -2.424356
     28          1           0        0.554452   -2.647894   -1.206381
     29          1           0        1.980811   -3.354001   -0.431905
     30          1           0        1.764140   -3.495754   -2.184694
     31          6           0        2.954797    0.759759   -0.497689
     32          6           0        2.782451    1.710988    0.686982
     33          6           0        3.535485    3.028685    0.501486
     34          1           0        4.024656    0.554628   -0.641627
     35          1           0        2.606081    1.257304   -1.412998
     36          1           0        3.131441    1.211052    1.599606
     37          1           0        1.713140    1.913169    0.829507
     38          1           0        3.181869    3.551880   -0.392843
     39          1           0        4.608229    2.845772    0.381632
     40          1           0        3.398541    3.693632    1.359945
 ---------------------------------------------------------------------

 SCF Done:  E(RHF) =  -470.731763782     A.U. after   11 cycles
 E2 =    -0.1585357150D+01 EUMP2 =    -0.47231712093118D+03

 The electronic state is 1-A.
 Alpha  occ. eigenvalues --  -11.21666 -11.21660 -11.21632 -11.21551 -11.21464
 Alpha  occ. eigenvalues --  -11.21431 -11.21404 -11.21372 -11.21119 -11.21095
 Alpha  occ. eigenvalues --  -11.21087 -11.20829  -1.08538  -1.08411  -1.03618
 Alpha  occ. eigenvalues --   -1.03481  -0.96037  -0.95949  -0.87056  -0.86969
 Alpha  occ. eigenvalues --   -0.79749  -0.79505  -0.78447  -0.78154  -0.65335
 Alpha  occ. eigenvalues --   -0.64901  -0.61053  -0.60876  -0.59472  -0.59263
 Alpha  occ. eigenvalues --   -0.57680  -0.57533  -0.55323  -0.55255  -0.52727
 Alpha  occ. eigenvalues --   -0.52631  -0.52486  -0.52365  -0.50001  -0.49917
 Alpha  occ. eigenvalues --   -0.48213  -0.47743  -0.46819  -0.46595  -0.46176
 Alpha  occ. eigenvalues --   -0.45756  -0.45735  -0.45079  -0.43843  -0.43767
 Alpha virt. eigenvalues --    0.20196   0.22954   0.23560   0.24242   0.25684
 Alpha virt. eigenvalues --    0.26278   0.26918   0.27795   0.28814   0.29529
 Alpha virt. eigenvalues --    0.30395   0.31344   0.31498   0.31738   0.32227

 Mulliken charges:
               1
     1  C   -0.297897
     2  C   -0.299643
     3  C   -0.475707
     4  H    0.150211
     5  H    0.148969
     6  H    0.152175
     7  H    0.151405
     8  H    0.155117
     9  H    0.155364
    10  H    0.160330
    11  C   -0.304794
    12  C   -0.300386
    13  C   -0.485591
    14  H    0.150111
    15  H    0.152908
    16  H    0.152074
    17  H    0.151976
    18  H    0.169904
    19  H    0.153609
    20  H    0.158554
    21  C   -0.309440
    22  C   -0.298338
    23  C   -0.481379
    24  H    0.151494
    25  H    0.157212
    26  H    0.152231
    27  H    0.151547
    28  H    0.159267
    29  H    0.156326
    30  H    0.160842
    31  C   -0.296904
    32  C   -0.300295
    33  C   -0.475783
    34  H    0.149895
    35  H    0.149440
    36  H    0.152475
    37  H    0.151547
    38  H    0.155195
    39  H    0.155475
    40  H    0.160501
 Sum of Mulliken charges =  -0.00000

 Dipole moment (field-independent basis, Debye):
    X=              0.0455    Y=             -0.0065    Z=             -0.0250  Tot=              0.0523
 Quadrupole moment (field-independent basis, Debye-Ang):
   XX=            -84.0968   YY=            -86.0146   ZZ=            -84.6464
   XY=              0.1191   XZ=             -0.0494   YZ=             -0.0882

 Normal termination of Gaussian 16 at Thu May  6 00:28:19 2021.
