 Gaussian 16, Revision A.03,
 Gaussian 16:  EM64L-G16RevA.03 25-Dec-2016

 -------------
 #p 6-31g* mp2
 -------------

 ------------------------------------------------------
 Input file generated by CHIRIPA (05-May-2021 14:51:13)
 ------------------------------------------------------
 Symbolic Z-matrix:
 Charge =  0 Multiplicity = 1

                         Standard orientation:
 ---------------------------------------------------------------------
 Center     Atomic      Atomic             Coordinates (Angstroms)
 Number     Number       Type             X           Y           Z
 ---------------------------------------------------------------------
      1          6           0       -3.216083    0.705049   -0.662218
      2          6           0       -3.259856    1.929309    0.252799
      3          6           0       -3.147887    3.246218   -0.515972
      4          1           0       -2.279523    0.717618   -1.236363
      5          1           0       -4.032516    0.773822   -1.394408
      6          1           0       -2.444426    1.857559    0.983923
      7          1           0       -4.196334    1.913722    0.824972
      8          1           0       -3.968705    3.344247   -1.233780
      9          1           0       -2.206844    3.287765   -1.073925
     10          1           0       -3.181351    4.108316    0.157472
     11          6           0       -3.326930   -0.619001    0.091661
     12          6           0       -3.283158   -1.843261   -0.823356
     13          6           0       -3.395126   -3.160169   -0.054585
     14          1           0       -2.510497   -0.687774    0.823852
     15          1           0       -4.263490   -0.631569    0.665806
     16          1           0       -2.346680   -1.827674   -1.395529
     17          1           0       -4.098587   -1.771511   -1.554480
     18          1           0       -4.336170   -3.201717    0.503369
     19          1           0       -2.574308   -3.258199    0.663223
     20          1           0       -3.361662   -4.022268   -0.728029
     21          6           0        3.977816    0.245176    0.246562
     22          6           0        4.846898   -0.421026   -0.820611
     23          6           0        6.257039    0.166367   -0.885918
     24          1           0        3.918519    1.322898    0.041763
     25          1           0        4.465778    0.139404    1.225388
     26          1           0        4.356767   -0.315236   -1.796928
     27          1           0        4.903977   -1.497318   -0.613355
     28          1           0        6.768827    0.047284    0.074547
     29          1           0        6.218508    1.236083   -1.115750
     30          1           0        6.861136   -0.324411   -1.655374
     31          6           0        2.565196   -0.331225    0.323994
     32          6           0        1.696116    0.334979    1.391167
     33          6           0        0.285975   -0.252415    1.456475
     34          1           0        2.077235   -0.225452   -0.654832
     35          1           0        2.624495   -1.408947    0.528794
     36          1           0        1.639036    1.411269    1.183913
     37          1           0        2.186246    0.229187    2.367485
     38          1           0        0.324505   -1.322131    1.686306
     39          1           0       -0.225814   -0.133333    0.496009
     40          1           0       -0.318123    0.238363    2.225932
 ---------------------------------------------------------------------

 SCF Done:  E(RHF) =  -470.732613270     A.U. after   11 cycles
 E2 =    -0.1583777361D+01 EUMP2 =    -0.47231639063073D+03

 The electronic state is 1-A.
 Alpha  occ. eigenvalues --  -11.21688 -11.21643 -11.21545 -11.21521 -11.21472
 Alpha  occ. eigenvalues --  -11.21408 -11.21334 -11.21197 -11.21185 -11.21102
 Alpha  occ. eigenvalues --  -11.21048 -11.21005  -1.08505  -1.08351  -1.03607
 Alpha  occ. eigenvalues --   -1.03466  -0.96086  -0.95899  -0.87100  -0.86927
 Alpha  occ. eigenvalues --   -0.79701  -0.79523  -0.78324  -0.78141  -0.65227
 Alpha  occ. eigenvalues --   -0.64942  -0.61002  -0.60863  -0.59434  -0.59281
 Alpha  occ. eigenvalues --   -0.57671  -0.57527  -0.55500  -0.55078  -0.52796
 Alpha  occ. eigenvalues --   -0.52604  -0.52509  -0.52308  -0.50005  -0.49853
 Alpha  occ. eigenvalues --   -0.48026  -0.47823  -0.46722  -0.46554  -0.45930
 Alpha  occ. eigenvalues --   -0.45789  -0.45682  -0.45488  -0.43812  -0.43703
 Alpha virt. eigenvalues --    0.20567   0.23018   0.24013   0.24609   0.25697
 Alpha virt. eigenvalues --    0.26116   0.26924   0.27708   0.27767   0.29756
 Alpha virt. eigenvalues --    0.30275   0.31347   0.31813   0.31932   0.32325

 Mulliken charges:
               1
     1  C   -0.298691
     2  C   -0.302190
     3  C   -0.475477
     4  H    0.148023
     5  H    0.149643
     6  H    0.154725
     7  H    0.151829
     8  H    0.155129
     9  H    0.154516
    10  H    0.160008
    11  C   -0.307907
    12  C   -0.299207
    13  C   -0.475746
    14  H    0.162691
    15  H    0.149006
    16  H    0.151090
    17  H    0.151486
    18  H    0.154973
    19  H    0.155393
    20  H    0.159788
    21  C   -0.298380
    22  C   -0.299696
    23  C   -0.475754
    24  H    0.149798
    25  H    0.149740
    26  H    0.151975
    27  H    0.152044
    28  H    0.155261
    29  H    0.155264
    30  H    0.160418
    31  C   -0.298574
    32  C   -0.300720
    33  C   -0.481497
    34  H    0.149309
    35  H    0.149870
    36  H    0.152329
    37  H    0.152343
    38  H    0.155543
    39  H    0.160062
    40  H    0.161581
 Sum of Mulliken charges =  -0.00000

 Dipole moment (field-independent basis, Debye):
    X=              0.0531    Y=             -0.0058    Z=              0.0401  Tot=              0.0668
 Quadrupole moment (field-independent basis, Debye-Ang):
   XX=            -84.8826   YY=            -85.5697   ZZ=            -84.5076
   XY=             -0.6785   XZ=              0.4445   YZ=             -0.0187

 Normal termination of Gaussian 16 at Wed May  5 16:52:08 2021.
