 Gaussian 16, Revision A.03,
 Gaussian 16:  EM64L-G16RevA.03 25-Dec-2016

 -------------
 #p 6-31g* mp2
 -------------

 ------------------------------------------------------
 Input file generated by CHIRIPA (05-May-2021 14:55:21)
 ------------------------------------------------------
 Symbolic Z-matrix:
 Charge =  0 Multiplicity = 1

                         Standard orientation:
 ---------------------------------------------------------------------
 Center     Atomic      Atomic             Coordinates (Angstroms)
 Number     Number       Type             X           Y           Z
 ---------------------------------------------------------------------
      1          6           0       -1.148483    1.588744    1.496668
      2          6           0       -2.001416    2.005075    0.469199
      3          6           0       -2.773784    1.075101   -0.233043
      4          6           0       -2.668007   -0.269299    0.120073
      5          6           0       -1.827455   -0.715230    1.138851
      6          6           0       -1.064373    0.232311    1.827632
      7          1           0       -0.552096    2.317993    2.036958
      8          1           0       -2.068770    3.057847    0.210007
      9          1           0       -3.442255    1.369943   -1.032813
     10          1           0       -1.781731   -1.771554    1.374451
     11          1           0       -0.402829   -0.093897    2.625123
     12          7           0       -3.480763   -1.263120   -0.616234
     13          8           0       -3.369492   -2.441738   -0.285910
     14          8           0       -4.213682   -0.844640   -1.509733
     15          6           0        3.280725    0.876941   -0.486917
     16          6           0        1.915879    1.566126   -0.501188
     17          6           0        2.006605    3.049941   -0.858756
     18          1           0        3.935584    1.389239    0.231173
     19          1           0        3.750713    0.989169   -1.473788
     20          1           0        1.448008    1.451438    0.484997
     21          1           0        1.264131    1.052008   -1.219187
     22          1           0        2.449951    3.180636   -1.851209
     23          1           0        2.634873    3.582336   -0.137342
     24          1           0        1.019626    3.522923   -0.863121
     25          6           0        3.206456   -0.606847   -0.131131
     26          6           0        4.571302   -1.296034   -0.116862
     27          6           0        4.480576   -2.779848    0.240706
     28          1           0        2.736468   -0.719076    0.855738
     29          1           0        2.551596   -1.119147   -0.849222
     30          1           0        5.223049   -0.781916    0.601138
     31          1           0        5.039172   -1.181346   -1.103046
     32          1           0        3.852308   -3.312242   -0.480707
     33          1           0        4.037230   -2.910543    1.233161
     34          1           0        5.467556   -3.252830    0.245072
 ---------------------------------------------------------------------

 SCF Done:  E(RHF) =  -669.534512666     A.U. after   15 cycles
 E2 =    -0.2093249369D+01 EUMP2 =    -0.67162776203486D+03

 The electronic state is 1-A.
 Alpha  occ. eigenvalues --  -20.60780 -20.60775 -15.85836 -11.31202 -11.27804
 Alpha  occ. eigenvalues --  -11.27791 -11.27539 -11.26796 -11.26783 -11.21992
 Alpha  occ. eigenvalues --  -11.21917 -11.21804 -11.21745 -11.21686 -11.21333
 Alpha  occ. eigenvalues --   -1.59857  -1.39410  -1.19395  -1.08873  -1.08754
 Alpha  occ. eigenvalues --   -1.04797  -1.03938  -0.96404  -0.95624  -0.87415
 Alpha  occ. eigenvalues --   -0.86200  -0.82456  -0.79995  -0.78641  -0.77491
 Alpha  occ. eigenvalues --   -0.72055  -0.71181  -0.70528  -0.65479  -0.65049
 Alpha  occ. eigenvalues --   -0.64801  -0.62146  -0.61349  -0.59798  -0.58023
 Alpha  occ. eigenvalues --   -0.55708  -0.55298  -0.53246  -0.53010  -0.52887
 Alpha  occ. eigenvalues --   -0.52813  -0.50339  -0.48814  -0.48808  -0.48296
 Alpha  occ. eigenvalues --   -0.47037  -0.46180  -0.46112  -0.44816  -0.44196
 Alpha  occ. eigenvalues --   -0.37247  -0.36389
 Alpha virt. eigenvalues --    0.05027   0.11104   0.16463   0.20335   0.22816
 Alpha virt. eigenvalues --    0.23891   0.25699   0.26598   0.27061   0.28170
 Alpha virt. eigenvalues --    0.28678   0.29973   0.31106   0.31575   0.31834

 Mulliken charges:
               1
     1  C   -0.168362
     2  C   -0.218470
     3  C   -0.171032
     4  C    0.157960
     5  C   -0.170150
     6  C   -0.217108
     7  H    0.226519
     8  H    0.223576
     9  H    0.275813
    10  H    0.275899
    11  H    0.223254
    12  N    0.488082
    13  O   -0.460410
    14  O   -0.460546
    15  C   -0.298709
    16  C   -0.299575
    17  C   -0.476779
    18  H    0.147711
    19  H    0.151273
    20  H    0.148205
    21  H    0.156368
    22  H    0.159127
    23  H    0.153354
    24  H    0.153339
    25  C   -0.297053
    26  C   -0.299933
    27  C   -0.475848
    28  H    0.143312
    29  H    0.153150
    30  H    0.151146
    31  H    0.153631
    32  H    0.157608
    33  H    0.153136
    34  H    0.161512
 Sum of Mulliken charges =  -0.00000

 Dipole moment (field-independent basis, Debye):
    X=              2.8606    Y=              3.4405    Z=              2.5419  Tot=              5.1460
 Quadrupole moment (field-independent basis, Debye-Ang):
   XX=           -110.0101   YY=            -95.5644   ZZ=            -92.0945
   XY=            -11.8970   XZ=             -5.4984   YZ=             -2.0848

 Normal termination of Gaussian 16 at Thu May  6 06:11:11 2021.
