 Gaussian 16, Revision A.03,
 Gaussian 16:  EM64L-G16RevA.03 25-Dec-2016

 -------------
 #p 6-31g* mp2
 -------------

 ------------------------------------------------------
 Input file generated by CHIRIPA (05-May-2021 14:51:12)
 ------------------------------------------------------
 Symbolic Z-matrix:
 Charge =  0 Multiplicity = 1

                         Standard orientation:
 ---------------------------------------------------------------------
 Center     Atomic      Atomic             Coordinates (Angstroms)
 Number     Number       Type             X           Y           Z
 ---------------------------------------------------------------------
      1          6           0       -3.330115   -0.374723    0.321438
      2          6           0       -3.565209   -1.560540   -0.614806
      3          6           0       -3.487537   -2.906954    0.105563
      4          1           0       -2.345794   -0.481185    0.797592
      5          1           0       -4.073262   -0.402227    1.130370
      6          1           0       -2.822705   -1.530026   -1.422502
      7          1           0       -4.549004   -1.451144   -1.088932
      8          1           0       -4.238876   -2.962776    0.899902
      9          1           0       -2.502768   -3.042107    0.564437
     10          1           0       -3.658574   -3.740805   -0.582404
     11          6           0       -3.404614    0.978221   -0.384056
     12          6           0       -3.169520    2.164039    0.552188
     13          6           0       -3.247192    3.510452   -0.168181
     14          1           0       -2.661467    1.005725   -1.192988
     15          1           0       -4.388935    1.084683   -0.860210
     16          1           0       -2.185725    2.054642    1.026314
     17          1           0       -3.912024    2.133524    1.359884
     18          1           0       -4.231961    3.645605   -0.627055
     19          1           0       -2.495853    3.566275   -0.962520
     20          1           0       -3.076155    4.344303    0.519786
     21          6           0        3.987808   -0.008506    0.366705
     22          6           0        5.096446    0.355464   -0.621442
     23          6           0        6.331096    0.940883    0.064647
     24          1           0        3.703025    0.887628    0.934846
     25          1           0        4.379447   -0.730182    1.096910
     26          1           0        4.702436    1.075186   -1.350395
     27          1           0        5.378488   -0.541600   -1.187431
     28          1           0        6.750817    0.224971    0.778723
     29          1           0        6.070924    1.850943    0.614832
     30          1           0        7.111076    1.193964   -0.660227
     31          6           0        2.746921   -0.594992   -0.304087
     32          6           0        1.638284   -0.958963    0.684059
     33          6           0        0.403634   -1.544382   -0.002029
     34          1           0        2.355282    0.126683   -1.034292
     35          1           0        3.031704   -1.491127   -0.872229
     36          1           0        1.356241   -0.061899    1.250048
     37          1           0        2.032293   -1.678684    1.413013
     38          1           0        0.663806   -2.454442   -0.552214
     39          1           0       -0.016088   -0.828469   -0.716105
     40          1           0       -0.376346   -1.797463    0.722844
 ---------------------------------------------------------------------

 SCF Done:  E(RHF) =  -470.732380661     A.U. after   11 cycles
 E2 =    -0.1583806433D+01 EUMP2 =    -0.47231618709389D+03

 The electronic state is 1-A.
 Alpha  occ. eigenvalues --  -11.21691 -11.21639 -11.21585 -11.21501 -11.21465
 Alpha  occ. eigenvalues --  -11.21402 -11.21344 -11.21231 -11.21166 -11.21100
 Alpha  occ. eigenvalues --  -11.21068 -11.20979  -1.08499  -1.08364  -1.03616
 Alpha  occ. eigenvalues --   -1.03463  -0.96057  -0.95925  -0.87085  -0.86939
 Alpha  occ. eigenvalues --   -0.79681  -0.79531  -0.78304  -0.78184  -0.65190
 Alpha  occ. eigenvalues --   -0.64977  -0.61035  -0.60911  -0.59465  -0.59210
 Alpha  occ. eigenvalues --   -0.57664  -0.57537  -0.55447  -0.55114  -0.52772
 Alpha  occ. eigenvalues --   -0.52619  -0.52481  -0.52356  -0.50090  -0.49768
 Alpha  occ. eigenvalues --   -0.48019  -0.47842  -0.46693  -0.46557  -0.45856
 Alpha  occ. eigenvalues --   -0.45781  -0.45692  -0.45624  -0.43765  -0.43715
 Alpha virt. eigenvalues --    0.20673   0.23054   0.23683   0.24587   0.25887
 Alpha virt. eigenvalues --    0.26511   0.26736   0.27634   0.27878   0.29658
 Alpha virt. eigenvalues --    0.30423   0.31243   0.31657   0.31894   0.32166

 Mulliken charges:
               1
     1  C   -0.303509
     2  C   -0.299911
     3  C   -0.479275
     4  H    0.156256
     5  H    0.148603
     6  H    0.153626
     7  H    0.151505
     8  H    0.154499
     9  H    0.158413
    10  H    0.159980
    11  C   -0.298453
    12  C   -0.299503
    13  C   -0.475616
    14  H    0.148790
    15  H    0.149561
    16  H    0.151361
    17  H    0.152022
    18  H    0.155295
    19  H    0.154779
    20  H    0.160082
    21  C   -0.298311
    22  C   -0.299684
    23  C   -0.475743
    24  H    0.149746
    25  H    0.149708
    26  H    0.151967
    27  H    0.152032
    28  H    0.155258
    29  H    0.155255
    30  H    0.160392
    31  C   -0.298775
    32  C   -0.300422
    33  C   -0.481984
    34  H    0.149468
    35  H    0.149976
    36  H    0.151927
    37  H    0.152488
    38  H    0.156079
    39  H    0.156433
    40  H    0.165683
 Sum of Mulliken charges =  -0.00000

 Dipole moment (field-independent basis, Debye):
    X=              0.0557    Y=             -0.0197    Z=              0.0025  Tot=              0.0591
 Quadrupole moment (field-independent basis, Debye-Ang):
   XX=            -84.7042   YY=            -85.2164   ZZ=            -85.0256
   XY=             -0.8543   XZ=             -0.4908   YZ=              0.1655

 Normal termination of Gaussian 16 at Wed May  5 19:54:48 2021.
