 Gaussian 16, Revision A.03,
 Gaussian 16:  EM64L-G16RevA.03 25-Dec-2016

 -------------
 #p 6-31g* mp2
 -------------

 ------------------------------------------------------
 Input file generated by CHIRIPA (05-May-2021 14:55:20)
 ------------------------------------------------------
 Symbolic Z-matrix:
 Charge =  0 Multiplicity = 1

                         Standard orientation:
 ---------------------------------------------------------------------
 Center     Atomic      Atomic             Coordinates (Angstroms)
 Number     Number       Type             X           Y           Z
 ---------------------------------------------------------------------
      1          6           0        4.138606    1.276359   -1.364470
      2          6           0        4.712365    0.450438   -0.392269
      3          6           0        3.907579   -0.347728    0.426144
      4          6           0        2.526478   -0.295014    0.244292
      5          6           0        1.924931    0.517548   -0.715486
      6          6           0        2.749170    1.307224   -1.522697
      7          1           0        4.771339    1.893096   -1.995882
      8          1           0        5.791121    0.424437   -0.267149
      9          1           0        4.325384   -0.996239    1.186599
     10          1           0        0.846428    0.522062   -0.816622
     11          1           0        2.300817    1.947690   -2.276903
     12          7           0        1.664190   -1.135503    1.104780
     13          8           0        0.450094   -1.070990    0.924652
     14          8           0        2.218753   -1.842876    1.943064
     15          6           0       -3.080691   -0.423869   -0.416710
     16          6           0       -4.063963   -1.554629   -0.720919
     17          6           0       -3.378510   -2.796530   -1.291559
     18          1           0       -2.542361   -0.157275   -1.336533
     19          1           0       -2.324903   -0.785860    0.294024
     20          1           0       -4.818476   -1.190199   -1.429804
     21          1           0       -4.600152   -1.818433    0.199693
     22          1           0       -2.638634   -3.186955   -0.585336
     23          1           0       -2.858199   -2.555152   -2.224090
     24          1           0       -4.099854   -3.592363   -1.501736
     25          6           0       -3.750908    0.824488    0.154378
     26          6           0       -2.767636    1.955247    0.458587
     27          6           0       -3.453088    3.197148    1.029227
     28          1           0       -4.506696    1.186478   -0.556356
     29          1           0       -4.289238    0.557893    1.074200
     30          1           0       -2.231448    2.219050   -0.462025
     31          1           0       -2.013123    1.590817    1.167471
     32          1           0       -3.973400    2.955770    1.961758
     33          1           0       -4.192965    3.587573    0.323004
     34          1           0       -2.731746    3.992981    1.239403
 ---------------------------------------------------------------------

 SCF Done:  E(RHF) =  -669.536304756     A.U. after   15 cycles
 E2 =    -0.2091418266D+01 EUMP2 =    -0.67162772302274D+03

 The electronic state is 1-A.
 Alpha  occ. eigenvalues --  -20.60907 -20.60895 -15.85949 -11.31245 -11.27815
 Alpha  occ. eigenvalues --  -11.27793 -11.27552 -11.26818 -11.26805 -11.21205
 Alpha  occ. eigenvalues --  -11.20890 -11.20810 -11.20779 -11.20490 -11.20324
 Alpha  occ. eigenvalues --   -1.59970  -1.39526  -1.19415  -1.08826  -1.07796
 Alpha  occ. eigenvalues --   -1.04809  -1.02962  -0.95672  -0.95395  -0.86418
 Alpha  occ. eigenvalues --   -0.86210  -0.82508  -0.79043  -0.77701  -0.77432
 Alpha  occ. eigenvalues --   -0.72175  -0.71284  -0.70525  -0.65077  -0.64813
 Alpha  occ. eigenvalues --   -0.64411  -0.62154  -0.60358  -0.58786  -0.57008
 Alpha  occ. eigenvalues --   -0.55318  -0.54671  -0.53144  -0.52901  -0.52136
 Alpha  occ. eigenvalues --   -0.51818  -0.49335  -0.48928  -0.48922  -0.47359
 Alpha  occ. eigenvalues --   -0.46077  -0.45172  -0.44959  -0.44910  -0.43187
 Alpha  occ. eigenvalues --   -0.37398  -0.36410
 Alpha virt. eigenvalues --    0.04965   0.11242   0.16463   0.20892   0.23275
 Alpha virt. eigenvalues --    0.24863   0.25548   0.27323   0.27665   0.28474
 Alpha virt. eigenvalues --    0.29365   0.31280   0.31925   0.32255   0.32286

 Mulliken charges:
               1
     1  C   -0.170498
     2  C   -0.218741
     3  C   -0.170666
     4  C    0.157207
     5  C   -0.171919
     6  C   -0.218909
     7  H    0.225812
     8  H    0.223595
     9  H    0.275600
    10  H    0.278527
    11  H    0.223814
    12  N    0.496019
    13  O   -0.468761
    14  O   -0.459454
    15  C   -0.309436
    16  C   -0.298660
    17  C   -0.476480
    18  H    0.138696
    19  H    0.180332
    20  H    0.147007
    21  H    0.152056
    22  H    0.164707
    23  H    0.150476
    24  H    0.156762
    25  C   -0.297113
    26  C   -0.301212
    27  C   -0.475086
    28  H    0.145387
    29  H    0.150682
    30  H    0.141831
    31  H    0.161184
    32  H    0.156736
    33  H    0.153349
    34  H    0.157158
 Sum of Mulliken charges =  -0.00000

 Dipole moment (field-independent basis, Debye):
    X=              3.2152    Y=              2.8335    Z=             -2.8593  Tot=              5.1518
 Quadrupole moment (field-independent basis, Debye-Ang):
   XX=            -77.0233   YY=            -97.7110   ZZ=            -95.1944
   XY=              5.6277   XZ=             -5.2041   YZ=             -0.3533

 Normal termination of Gaussian 16 at Wed May  5 23:47:10 2021.
