 Gaussian 16, Revision A.03,
 Gaussian 16:  EM64L-G16RevA.03 25-Dec-2016

 -------------
 #p 6-31g* mp2
 -------------

 ------------------------------------------------------
 Input file generated by CHIRIPA (05-May-2021 14:57:27)
 ------------------------------------------------------
 Symbolic Z-matrix:
 Charge =  0 Multiplicity = 1

                         Standard orientation:
 ---------------------------------------------------------------------
 Center     Atomic      Atomic             Coordinates (Angstroms)
 Number     Number       Type             X           Y           Z
 ---------------------------------------------------------------------
      1          6           0       -1.815580    0.345852    1.541042
      2          6           0       -2.801944    1.337022    1.506561
      3          6           0       -3.971571    1.149217    0.764099
      4          6           0       -4.122674   -0.047253    0.064872
      5          6           0       -3.158167   -1.053634    0.079457
      6          6           0       -1.996521   -0.844215    0.828636
      7          1           0       -0.910086    0.500139    2.120414
      8          1           0       -2.664121    2.262240    2.058848
      9          1           0       -4.751268    1.899912    0.719960
     10          1           0       -3.323986   -1.965435   -0.481383
     11          1           0       -1.232184   -1.615714    0.853586
     12          7           0       -5.356681   -0.257514   -0.724695
     13          8           0       -5.465799   -1.320473   -1.332025
     14          8           0       -6.191411    0.644622   -0.721277
     15          6           0        1.410216    0.200933   -0.382025
     16          6           0        1.981774   -0.865849    0.319272
     17          6           0        3.370783   -0.980256    0.429333
     18          6           0        4.161863   -0.005608   -0.176922
     19          6           0        3.622366    1.068913   -0.882356
     20          6           0        2.230889    1.163212   -0.979547
     21          1           0        0.330241    0.281997   -0.462524
     22          1           0        1.346886   -1.614639    0.784326
     23          1           0        3.839701   -1.795835    0.966329
     24          1           0        4.281156    1.799845   -1.335295
     25          1           0        1.789780    1.992769   -1.524805
     26          7           0        5.633651   -0.116082   -0.067217
     27          8           0        6.308726    0.755668   -0.610321
     28          8           0        6.084296   -1.072331    0.559796
 ---------------------------------------------------------------------

 SCF Done:  E(RHF) =  -868.336249405     A.U. after   16 cycles
 E2 =    -0.2601768254D+01 EUMP2 =    -0.87093801765933D+03

 The electronic state is 1-A.
 Alpha  occ. eigenvalues --  -20.61585 -20.61579 -20.61260 -20.61253 -15.86648
 Alpha  occ. eigenvalues --  -15.86321 -11.32234 -11.31798 -11.28886 -11.28811
 Alpha  occ. eigenvalues --  -11.28639 -11.28451 -11.28367 -11.28060 -11.28000
 Alpha  occ. eigenvalues --  -11.27833 -11.27550 -11.27356  -1.60656  -1.60334
 Alpha  occ. eigenvalues --   -1.40203  -1.39884  -1.20465  -1.19998  -1.09837
 Alpha  occ. eigenvalues --   -1.09360  -1.05896  -1.05430  -0.96616  -0.96165
 Alpha  occ. eigenvalues --   -0.87313  -0.86813  -0.83424  -0.83012  -0.78436
 Alpha  occ. eigenvalues --   -0.78043  -0.72863  -0.72535  -0.71986  -0.71661
 Alpha  occ. eigenvalues --   -0.71618  -0.71022  -0.66148  -0.66044  -0.65628
 Alpha  occ. eigenvalues --   -0.65331  -0.63233  -0.62736  -0.56396  -0.56031
 Alpha  occ. eigenvalues --   -0.54075  -0.54008  -0.53731  -0.53494  -0.49638
 Alpha  occ. eigenvalues --   -0.49600  -0.49304  -0.49281  -0.45559  -0.45264
 Alpha  occ. eigenvalues --   -0.38506  -0.37926  -0.37502  -0.37046
 Alpha virt. eigenvalues --    0.04026   0.04578   0.09992   0.10544   0.15359
 Alpha virt. eigenvalues --    0.16114   0.18449   0.21866   0.24418   0.27218
 Alpha virt. eigenvalues --    0.27768   0.28797   0.29694   0.31021   0.31482

 Mulliken charges:
               1
     1  C   -0.178088
     2  C   -0.218756
     3  C   -0.169403
     4  C    0.158835
     5  C   -0.169761
     6  C   -0.230872
     7  H    0.231291
     8  H    0.228036
     9  H    0.279456
    10  H    0.279451
    11  H    0.222975
    12  N    0.487931
    13  O   -0.457872
    14  O   -0.457427
    15  C   -0.180057
    16  C   -0.227462
    17  C   -0.169343
    18  C    0.158366
    19  C   -0.169492
    20  C   -0.220378
    21  H    0.236123
    22  H    0.215398
    23  H    0.277049
    24  H    0.277709
    25  H    0.226363
    26  N    0.487976
    27  O   -0.458558
    28  O   -0.459491
 Sum of Mulliken charges =  -0.00000

 Dipole moment (field-independent basis, Debye):
    X=             -1.0494    Y=              1.2844    Z=              2.3484  Tot=              2.8750
 Quadrupole moment (field-independent basis, Debye-Ang):
   XX=           -182.5641   YY=            -97.5120   ZZ=           -103.6294
   XY=             -2.8790   XZ=            -12.9933   YZ=             -1.1837

 Normal termination of Gaussian 16 at Fri May  7 05:07:53 2021.
