 Gaussian 16, Revision A.03,
 Gaussian 16:  EM64L-G16RevA.03 25-Dec-2016

 -------------
 #p 6-31g* mp2
 -------------

 ------------------------------------------------------
 Input file generated by CHIRIPA (05-May-2021 14:53:16)
 ------------------------------------------------------
 Symbolic Z-matrix:
 Charge =  0 Multiplicity = 1

                         Standard orientation:
 ---------------------------------------------------------------------
 Center     Atomic      Atomic             Coordinates (Angstroms)
 Number     Number       Type             X           Y           Z
 ---------------------------------------------------------------------
      1          6           0        4.117260   -0.273653    0.293329
      2          6           0        4.180430   -1.662931   -0.342203
      3          6           0        4.905934   -2.682488    0.536398
      4          1           0        5.138581    0.076340    0.496684
      5          1           0        3.612029   -0.345862    1.266428
      6          1           0        4.684162   -1.587893   -1.314437
      7          1           0        3.158847   -2.009577   -0.544245
      8          1           0        4.401375   -2.786807    1.502389
      9          1           0        5.935357   -2.362727    0.727821
     10          1           0        4.939499   -3.668674    0.062930
     11          6           0        3.394971    0.756595   -0.573051
     12          6           0        3.331801    2.145873    0.062481
     13          6           0        2.606296    3.165431   -0.816120
     14          1           0        3.900202    0.828804   -1.546150
     15          1           0        2.373650    0.406602   -0.776406
     16          1           0        4.353384    2.492519    0.264523
     17          1           0        2.828069    2.070835    1.034715
     18          1           0        1.576874    2.845669   -1.007543
     19          1           0        3.110856    3.269749   -1.782111
     20          1           0        2.572732    4.151616   -0.342652
     21          6           0       -0.454678   -0.133590    0.571379
     22          6           0       -1.316110    0.718209    1.270588
     23          6           0       -2.691842    0.696294    1.022738
     24          6           0       -3.174202   -0.193973    0.064591
     25          6           0       -2.341520   -1.055039   -0.648496
     26          6           0       -0.969224   -1.015940   -0.384248
     27          1           0        0.612689   -0.109890    0.770284
     28          1           0       -0.919309    1.404486    2.013298
     29          1           0       -3.381308    1.344787    1.549531
     30          1           0       -2.766596   -1.728280   -1.382986
     31          1           0       -0.302591   -1.678604   -0.928784
     32          7           0       -4.628808   -0.226269   -0.206477
     33          8           0       -5.028840   -1.019776   -1.055570
     34          8           0       -5.341353    0.542533    0.435286
 ---------------------------------------------------------------------

 SCF Done:  E(RHF) =  -669.535444149     A.U. after   15 cycles
 E2 =    -0.2092081578D+01 EUMP2 =    -0.67162752572698D+03

 The electronic state is 1-A.
 Alpha  occ. eigenvalues --  -20.60775 -20.60770 -15.85829 -11.31210 -11.27776
 Alpha  occ. eigenvalues --  -11.27772 -11.27497 -11.26800 -11.26789 -11.22641
 Alpha  occ. eigenvalues --  -11.22623 -11.22511 -11.22452 -11.21902 -11.21857
 Alpha  occ. eigenvalues --   -1.59850  -1.39403  -1.19381  -1.09504  -1.08772
 Alpha  occ. eigenvalues --   -1.04785  -1.04489  -0.96919  -0.95607  -0.87925
 Alpha  occ. eigenvalues --   -0.86182  -0.82440  -0.80554  -0.79315  -0.77482
 Alpha  occ. eigenvalues --   -0.72046  -0.71173  -0.70543  -0.66158  -0.65032
 Alpha  occ. eigenvalues --   -0.64770  -0.62133  -0.61895  -0.60280  -0.58528
 Alpha  occ. eigenvalues --   -0.56282  -0.55212  -0.53571  -0.53318  -0.53112
 Alpha  occ. eigenvalues --   -0.52875  -0.50854  -0.48856  -0.48805  -0.48801
 Alpha  occ. eigenvalues --   -0.47613  -0.46823  -0.46804  -0.44805  -0.44769
 Alpha  occ. eigenvalues --   -0.37350  -0.36388
 Alpha virt. eigenvalues --    0.05020   0.11230   0.16388   0.17991   0.22928
 Alpha virt. eigenvalues --    0.23184   0.24974   0.25369   0.26787   0.28006
 Alpha virt. eigenvalues --    0.29897   0.30506   0.30956   0.31225   0.32142

 Mulliken charges:
               1
     1  C   -0.300738
     2  C   -0.298479
     3  C   -0.476216
     4  H    0.155304
     5  H    0.144907
     6  H    0.156084
     7  H    0.143732
     8  H    0.155367
     9  H    0.158183
    10  H    0.163077
    11  C   -0.303682
    12  C   -0.299751
    13  C   -0.477515
    14  H    0.155959
    15  H    0.142834
    16  H    0.156676
    17  H    0.144992
    18  H    0.156858
    19  H    0.158470
    20  H    0.162787
    21  C   -0.175466
    22  C   -0.220159
    23  C   -0.170713
    24  C    0.158559
    25  C   -0.170633
    26  C   -0.220963
    27  H    0.233666
    28  H    0.223831
    29  H    0.275740
    30  H    0.275797
    31  H    0.224057
    32  N    0.488036
    33  O   -0.460304
    34  O   -0.460298
 Sum of Mulliken charges =  -0.00000

 Dipole moment (field-independent basis, Debye):
    X=              5.3302    Y=              0.1578    Z=              0.8981  Tot=              5.4076
 Quadrupole moment (field-independent basis, Debye-Ang):
   XX=           -126.1167   YY=            -92.9247   ZZ=            -92.7924
   XY=             -1.2841   XZ=             -4.1438   YZ=              2.9150

 Normal termination of Gaussian 16 at Thu May  6 02:44:04 2021.
