 Gaussian 16, Revision A.03,
 Gaussian 16:  EM64L-G16RevA.03 25-Dec-2016

 -------------
 #p 6-31g* mp2
 -------------

 ------------------------------------------------------
 Input file generated by CHIRIPA (05-May-2021 14:57:21)
 ------------------------------------------------------
 Symbolic Z-matrix:
 Charge =  0 Multiplicity = 1

                         Standard orientation:
 ---------------------------------------------------------------------
 Center     Atomic      Atomic             Coordinates (Angstroms)
 Number     Number       Type             X           Y           Z
 ---------------------------------------------------------------------
      1          6           0       -1.825338    2.610910    0.641854
      2          6           0       -2.184011    2.335246   -0.681734
      3          6           0       -2.764333    1.108972   -1.019412
      4          6           0       -2.972602    0.177131   -0.003742
      5          6           0       -2.626104    0.422158    1.324110
      6          6           0       -2.047138    1.655171    1.638794
      7          1           0       -1.375057    3.566127    0.895239
      8          1           0       -2.012935    3.075600   -1.458042
      9          1           0       -3.051586    0.869424   -2.036034
     10          1           0       -2.809034   -0.335730    2.076147
     11          1           0       -1.769592    1.866516    2.667553
     12          7           0       -3.586244   -1.124638   -0.349055
     13          8           0       -3.759266   -1.928819    0.564177
     14          8           0       -3.882576   -1.316134   -1.526405
     15          6           0        1.111141   -2.179179    0.215190
     16          6           0        0.736937   -0.871733   -0.112035
     17          6           0        1.703758    0.126737   -0.263235
     18          6           0        3.041648   -0.218869   -0.079114
     19          6           0        3.446028   -1.512394    0.247319
     20          6           0        2.462110   -2.494781    0.393509
     21          1           0        0.353450   -2.948568    0.330700
     22          1           0       -0.311494   -0.623751   -0.251117
     23          1           0        1.441902    1.146960   -0.516199
     24          1           0        4.499065   -1.729223    0.379670
     25          1           0        2.755641   -3.509318    0.647675
     26          7           0        4.074228    0.829653   -0.236530
     27          8           0        5.246232    0.499533   -0.069006
     28          8           0        3.692008    1.961750   -0.524455
 ---------------------------------------------------------------------

 SCF Done:  E(RHF) =  -868.338179118     A.U. after   16 cycles
 E2 =    -0.2602087438D+01 EUMP2 =    -0.87094026655573D+03

 The electronic state is 1-A.
 Alpha  occ. eigenvalues --  -20.61801 -20.61781 -20.60890 -20.60868 -15.86845
 Alpha  occ. eigenvalues --  -15.85929 -11.32200 -11.31157 -11.28764 -11.28745
 Alpha  occ. eigenvalues --  -11.28427 -11.27733 -11.27699 -11.27699 -11.27694
 Alpha  occ. eigenvalues --  -11.27326 -11.26665 -11.26552  -1.60884  -1.59959
 Alpha  occ. eigenvalues --   -1.40427  -1.39517  -1.20421  -1.19299  -1.09769
 Alpha  occ. eigenvalues --   -1.08707  -1.05756  -1.04679  -0.96592  -0.95570
 Alpha  occ. eigenvalues --   -0.87132  -0.86087  -0.83392  -0.82409  -0.78464
 Alpha  occ. eigenvalues --   -0.77502  -0.73038  -0.72268  -0.72144  -0.71394
 Alpha  occ. eigenvalues --   -0.71281  -0.70372  -0.65995  -0.65682  -0.64939
 Alpha  occ. eigenvalues --   -0.64713  -0.63060  -0.62094  -0.56171  -0.55215
 Alpha  occ. eigenvalues --   -0.54207  -0.53782  -0.53020  -0.52542  -0.49810
 Alpha  occ. eigenvalues --   -0.49801  -0.48916  -0.48887  -0.45818  -0.44954
 Alpha  occ. eigenvalues --   -0.38365  -0.37515  -0.37195  -0.36214
 Alpha virt. eigenvalues --    0.04001   0.05032   0.10167   0.11440   0.15494
 Alpha virt. eigenvalues --    0.16572   0.20675   0.21581   0.26599   0.27193
 Alpha virt. eigenvalues --    0.27562   0.28431   0.30370   0.31183   0.31803

 Mulliken charges:
               1
     1  C   -0.173825
     2  C   -0.219350
     3  C   -0.177277
     4  C    0.145476
     5  C   -0.176183
     6  C   -0.214226
     7  H    0.234126
     8  H    0.230589
     9  H    0.279458
    10  H    0.277571
    11  H    0.229579
    12  N    0.488126
    13  O   -0.460784
    14  O   -0.456871
    15  C   -0.175804
    16  C   -0.222283
    17  C   -0.177002
    18  C    0.158672
    19  C   -0.172030
    20  C   -0.218638
    21  H    0.233042
    22  H    0.234181
    23  H    0.270373
    24  H    0.274882
    25  H    0.224264
    26  N    0.488324
    27  O   -0.459970
    28  O   -0.464420
 Sum of Mulliken charges =  -0.00000

 Dipole moment (field-independent basis, Debye):
    X=             -1.7424    Y=              1.0135    Z=              1.8433  Tot=              2.7315
 Quadrupole moment (field-independent basis, Debye-Ang):
   XX=           -138.4543   YY=            -99.0104   ZZ=           -100.6583
   XY=            -27.2150   XZ=             -0.4631   YZ=             -1.8448

 Normal termination of Gaussian 16 at Thu May  6 00:08:24 2021.
