 Gaussian 16, Revision A.03,
 Gaussian 16:  EM64L-G16RevA.03 25-Dec-2016

 -------------
 #p 6-31g* mp2
 -------------

 ------------------------------------------------------
 Input file generated by CHIRIPA (05-May-2021 14:51:11)
 ------------------------------------------------------
 Symbolic Z-matrix:
 Charge =  0 Multiplicity = 1

                         Standard orientation:
 ---------------------------------------------------------------------
 Center     Atomic      Atomic             Coordinates (Angstroms)
 Number     Number       Type             X           Y           Z
 ---------------------------------------------------------------------
      1          6           0        2.288328   -0.561383    0.384538
      2          6           0        2.370875   -2.025809    0.816540
      3          6           0        1.018586   -2.590673    1.252475
      4          1           0        1.889747    0.037351    1.214958
      5          1           0        1.568453   -0.469765   -0.440556
      6          1           0        3.091411   -2.114850    1.639653
      7          1           0        2.769486   -2.621097   -0.014940
      8          1           0        0.294166   -2.530998    0.433784
      9          1           0        0.617921   -2.021875    2.097778
     10          1           0        1.100642   -3.638668    1.557159
     11          6           0        3.632281    0.017529   -0.054073
     12          6           0        3.549734    1.481956   -0.486075
     13          6           0        4.902022    2.046819   -0.922010
     14          1           0        4.352156   -0.074089    0.771021
     15          1           0        4.030862   -0.581204   -0.884493
     16          1           0        3.151123    2.077243    0.345405
     17          1           0        2.829198    1.570997   -1.309188
     18          1           0        5.302688    1.478022   -1.767313
     19          1           0        5.626442    1.987145   -0.103319
     20          1           0        4.819967    3.094815   -1.226694
     21          6           0       -3.283144    0.961638   -0.224439
     22          6           0       -2.723887    1.980250    0.769363
     23          6           0       -3.379683    3.355253    0.638614
     24          1           0       -3.143097    1.340596   -1.246066
     25          1           0       -4.367246    0.867863   -0.071714
     26          1           0       -1.640942    2.071051    0.615733
     27          1           0       -2.865110    1.598736    1.788735
     28          1           0       -4.458300    3.285760    0.812841
     29          1           0       -3.227177    3.760760   -0.366825
     30          1           0       -2.964987    4.067902    1.358350
     31          6           0       -2.637464   -0.417784   -0.106026
     32          6           0       -3.196722   -1.436398   -1.099828
     33          6           0       -2.540926   -2.811399   -0.969079
     34          1           0       -1.553363   -0.324010   -0.258751
     35          1           0       -2.777512   -0.796743    0.915602
     36          1           0       -3.055498   -1.054883   -2.119200
     37          1           0       -4.279666   -1.527197   -0.946198
     38          1           0       -2.693431   -3.216906    0.036360
     39          1           0       -1.462309   -2.741907   -1.143306
     40          1           0       -2.955622   -3.524048   -1.688815
 ---------------------------------------------------------------------

 SCF Done:  E(RHF) =  -470.733105408     A.U. after   11 cycles
 E2 =    -0.1583264939D+01 EUMP2 =    -0.47231637034668D+03

 The electronic state is 1-A.
 Alpha  occ. eigenvalues --  -11.21625 -11.21598 -11.21578 -11.21577 -11.21425
 Alpha  occ. eigenvalues --  -11.21379 -11.21366 -11.21318 -11.21088 -11.21072
 Alpha  occ. eigenvalues --  -11.21055 -11.20959  -1.08444  -1.08407  -1.03546
 Alpha  occ. eigenvalues --   -1.03496  -0.96000  -0.95938  -0.87029  -0.86943
 Alpha  occ. eigenvalues --   -0.79664  -0.79511  -0.78315  -0.78156  -0.65115
 Alpha  occ. eigenvalues --   -0.65004  -0.61023  -0.60834  -0.59375  -0.59304
 Alpha  occ. eigenvalues --   -0.57665  -0.57510  -0.55384  -0.55143  -0.52670
 Alpha  occ. eigenvalues --   -0.52663  -0.52510  -0.52276  -0.50048  -0.49779
 Alpha  occ. eigenvalues --   -0.48105  -0.47727  -0.46747  -0.46493  -0.46009
 Alpha  occ. eigenvalues --   -0.45747  -0.45712  -0.45370  -0.43781  -0.43769
 Alpha virt. eigenvalues --    0.20798   0.23271   0.23394   0.24747   0.25676
 Alpha virt. eigenvalues --    0.26720   0.26798   0.27251   0.28476   0.29489
 Alpha virt. eigenvalues --    0.30535   0.31614   0.31713   0.31856   0.31971

 Mulliken charges:
               1
     1  C   -0.299450
     2  C   -0.299644
     3  C   -0.482743
     4  H    0.150220
     5  H    0.149054
     6  H    0.151816
     7  H    0.151508
     8  H    0.163646
     9  H    0.155124
    10  H    0.159751
    11  C   -0.298270
    12  C   -0.299656
    13  C   -0.475703
    14  H    0.149858
    15  H    0.149667
    16  H    0.151996
    17  H    0.151480
    18  H    0.155215
    19  H    0.155311
    20  H    0.160281
    21  C   -0.298241
    22  C   -0.299850
    23  C   -0.475661
    24  H    0.149366
    25  H    0.149455
    26  H    0.152591
    27  H    0.151768
    28  H    0.155093
    29  H    0.155132
    30  H    0.160125
    31  C   -0.301093
    32  C   -0.299901
    33  C   -0.478675
    34  H    0.152473
    35  H    0.150183
    36  H    0.151476
    37  H    0.152007
    38  H    0.156645
    39  H    0.157268
    40  H    0.160376
 Sum of Mulliken charges =  -0.00000

 Dipole moment (field-independent basis, Debye):
    X=             -0.0124    Y=             -0.0115    Z=              0.0072  Tot=              0.0184
 Quadrupole moment (field-independent basis, Debye-Ang):
   XX=            -85.2212   YY=            -86.0343   ZZ=            -83.5183
   XY=              0.2317   XZ=             -0.0192   YZ=              0.2682

 Normal termination of Gaussian 16 at Thu May  6 03:51:30 2021.
