 Gaussian 16, Revision A.03,
 Gaussian 16:  EM64L-G16RevA.03 25-Dec-2016

 -------------
 #p 6-31g* mp2
 -------------

 ------------------------------------------------------
 Input file generated by CHIRIPA (05-May-2021 14:51:10)
 ------------------------------------------------------
 Symbolic Z-matrix:
 Charge =  0 Multiplicity = 1

                         Standard orientation:
 ---------------------------------------------------------------------
 Center     Atomic      Atomic             Coordinates (Angstroms)
 Number     Number       Type             X           Y           Z
 ---------------------------------------------------------------------
      1          6           0        5.561644   -0.527097   -0.164216
      2          6           0        6.896051    0.101243    0.238937
      3          6           0        8.089648   -0.809535   -0.050204
      4          1           0        5.435895   -1.479202    0.369292
      5          1           0        5.587554   -0.770144   -1.235501
      6          1           0        6.867124    0.344299    1.308845
      7          1           0        7.018549    1.052055   -0.295446
      8          1           0        8.146682   -1.042383   -1.118441
      9          1           0        7.994396   -1.754161    0.494966
     10          1           0        9.033325   -0.340726    0.245689
     11          6           0        4.358945    0.371368    0.118635
     12          6           0        3.024538   -0.256972   -0.284518
     13          6           0        1.830941    0.653805    0.004624
     14          1           0        4.333035    0.614414    1.189920
     15          1           0        4.484694    1.323472   -0.414872
     16          1           0        2.902040   -1.207784    0.249866
     17          1           0        3.053465   -0.500028   -1.354426
     18          1           0        1.926192    1.598431   -0.540546
     19          1           0        1.773907    0.886654    1.072861
     20          1           0        0.887264    0.184996   -0.291270
     21          6           0       -5.673528    0.106061   -0.249119
     22          6           0       -6.600510   -0.940215    0.370554
     23          6           0       -8.023893   -0.871210   -0.183533
     24          1           0       -6.089784    1.107013   -0.070880
     25          1           0       -5.650978   -0.033588   -1.338792
     26          1           0       -6.620224   -0.799510    1.458869
     27          1           0       -6.181899   -1.938782    0.190985
     28          1           0       -8.024112   -1.033553   -1.266235
     29          1           0       -8.464926    0.112192    0.008853
     30          1           0       -8.669577   -1.627808    0.273098
     31          6           0       -4.247061    0.049668    0.294700
     32          6           0       -3.320079    1.095945   -0.324974
     33          6           0       -1.896696    1.026939    0.229113
     34          1           0       -4.269610    0.189317    1.384372
     35          1           0       -3.830805   -0.951284    0.116461
     36          1           0       -3.738689    2.094512   -0.145405
     37          1           0       -3.300365    0.955239   -1.413288
     38          1           0       -1.455663    0.043537    0.036727
     39          1           0       -1.896477    1.189282    1.311816
     40          1           0       -1.251012    1.783538   -0.227517
 ---------------------------------------------------------------------

 SCF Done:  E(RHF) =  -470.732568597     A.U. after   11 cycles
 E2 =    -0.1582511961D+01 EUMP2 =    -0.47231508055735D+03

 The electronic state is 1-A.
 Alpha  occ. eigenvalues --  -11.21593 -11.21569 -11.21560 -11.21514 -11.21390
 Alpha  occ. eigenvalues --  -11.21353 -11.21330 -11.21291 -11.21065 -11.21047
 Alpha  occ. eigenvalues --  -11.21003 -11.20889  -1.08414  -1.08372  -1.03527
 Alpha  occ. eigenvalues --   -1.03448  -0.96024  -0.95852  -0.87103  -0.86810
 Alpha  occ. eigenvalues --   -0.79668  -0.79439  -0.78230  -0.78184  -0.65047
 Alpha  occ. eigenvalues --   -0.65005  -0.60936  -0.60863  -0.59462  -0.59168
 Alpha  occ. eigenvalues --   -0.57601  -0.57509  -0.55263  -0.55198  -0.53007
 Alpha  occ. eigenvalues --   -0.52458  -0.52325  -0.52176  -0.49878  -0.49854
 Alpha  occ. eigenvalues --   -0.47937  -0.47793  -0.46599  -0.46566  -0.45769
 Alpha  occ. eigenvalues --   -0.45731  -0.45693  -0.45657  -0.43918  -0.43493
 Alpha virt. eigenvalues --    0.22555   0.22996   0.23676   0.24793   0.26552
 Alpha virt. eigenvalues --    0.26675   0.26899   0.27382   0.27632   0.29050
 Alpha virt. eigenvalues --    0.29919   0.30939   0.31424   0.31909   0.32299

 Mulliken charges:
               1
     1  C   -0.298137
     2  C   -0.299554
     3  C   -0.475656
     4  H    0.149484
     5  H    0.149329
     6  H    0.151859
     7  H    0.151845
     8  H    0.155101
     9  H    0.155111
    10  H    0.160132
    11  C   -0.298415
    12  C   -0.300123
    13  C   -0.478973
    14  H    0.149354
    15  H    0.149382
    16  H    0.151333
    17  H    0.151188
    18  H    0.153324
    19  H    0.154821
    20  H    0.167773
    21  C   -0.298208
    22  C   -0.299613
    23  C   -0.475691
    24  H    0.149652
    25  H    0.149456
    26  H    0.151901
    27  H    0.151873
    28  H    0.155158
    29  H    0.155173
    30  H    0.160212
    31  C   -0.298507
    32  C   -0.300280
    33  C   -0.476659
    34  H    0.149468
    35  H    0.149521
    36  H    0.151731
    37  H    0.151625
    38  H    0.155209
    39  H    0.155152
    40  H    0.163649
 Sum of Mulliken charges =  -0.00000

 Dipole moment (field-independent basis, Debye):
    X=             -0.0353    Y=              0.0126    Z=              0.0065  Tot=              0.0380
 Quadrupole moment (field-independent basis, Debye-Ang):
   XX=            -87.1412   YY=            -84.4801   ZZ=            -83.4768
   XY=              0.2916   XZ=             -0.4553   YZ=              0.0084

 Normal termination of Gaussian 16 at Thu May  6 00:38:32 2021.
