 Gaussian 16, Revision A.03,
 Gaussian 16:  EM64L-G16RevA.03 25-Dec-2016

 -------------
 #p 6-31g* mp2
 -------------

 ------------------------------------------------------
 Input file generated by CHIRIPA (05-May-2021 14:51:13)
 ------------------------------------------------------
 Symbolic Z-matrix:
 Charge =  0 Multiplicity = 1

                         Standard orientation:
 ---------------------------------------------------------------------
 Center     Atomic      Atomic             Coordinates (Angstroms)
 Number     Number       Type             X           Y           Z
 ---------------------------------------------------------------------
      1          6           0        3.021065   -0.753641   -0.230626
      2          6           0        1.883349   -1.731708    0.064284
      3          6           0        2.204333   -3.161170   -0.373210
      4          1           0        3.239336   -0.768845   -1.307228
      5          1           0        3.932261   -1.097862    0.277930
      6          1           0        0.974221   -1.384997   -0.443549
      7          1           0        1.667633   -1.714031    1.140281
      8          1           0        3.096228   -3.530922    0.142936
      9          1           0        2.398877   -3.200018   -1.449893
     10          1           0        1.377527   -3.843638   -0.153009
     11          6           0        2.715136    0.679469    0.201035
     12          6           0        3.852853    1.657536   -0.093875
     13          6           0        3.531869    3.086998    0.343619
     14          1           0        1.803941    1.023690   -0.307521
     15          1           0        2.496866    0.694674    1.277637
     16          1           0        4.068569    1.639860   -1.169873
     17          1           0        4.761981    1.310825    0.413957
     18          1           0        3.337325    3.125846    1.420301
     19          1           0        2.639973    3.456750   -0.172528
     20          1           0        4.358675    3.769466    0.123418
     21          6           0       -2.918827    0.672146   -0.406581
     22          6           0       -3.396167    1.889364    0.386207
     23          6           0       -3.492560    3.152130   -0.470486
     24          1           0       -1.937735    0.892489   -0.849133
     25          1           0       -3.607338    0.496107   -1.244648
     26          1           0       -2.707734    2.062220    1.223344
     27          1           0       -4.376150    1.666028    0.827083
     28          1           0       -4.194549    3.003966   -1.297445
     29          1           0       -2.516653    3.402409   -0.898933
     30          1           0       -3.835619    4.010043    0.116163
     31          6           0       -2.817376   -0.597974    0.436172
     32          6           0       -2.340034   -1.815192   -0.356616
     33          6           0       -2.243641   -3.077958    0.500077
     34          1           0       -2.128865   -0.421935    1.274240
     35          1           0       -3.798467   -0.818317    0.878725
     36          1           0       -1.360053   -1.591856   -0.797492
     37          1           0       -3.028468   -1.988048   -1.193751
     38          1           0       -3.219548   -3.328238    0.928525
     39          1           0       -1.541654   -2.929794    1.327037
     40          1           0       -1.900583   -3.935871   -0.086572
 ---------------------------------------------------------------------

 SCF Done:  E(RHF) =  -470.733327228     A.U. after   11 cycles
 E2 =    -0.1583303453D+01 EUMP2 =    -0.47231663068096D+03

 The electronic state is 1-A.
 Alpha  occ. eigenvalues --  -11.21643 -11.21636 -11.21597 -11.21571 -11.21456
 Alpha  occ. eigenvalues --  -11.21401 -11.21394 -11.21337 -11.21108 -11.21083
 Alpha  occ. eigenvalues --  -11.21072 -11.21065  -1.08483  -1.08416  -1.03588
 Alpha  occ. eigenvalues --   -1.03501  -0.96024  -0.95961  -0.87038  -0.86981
 Alpha  occ. eigenvalues --   -0.79678  -0.79549  -0.78322  -0.78210  -0.65194
 Alpha  occ. eigenvalues --   -0.64982  -0.61102  -0.60821  -0.59428  -0.59278
 Alpha  occ. eigenvalues --   -0.57660  -0.57539  -0.55316  -0.55232  -0.52739
 Alpha  occ. eigenvalues --   -0.52635  -0.52447  -0.52384  -0.50007  -0.49877
 Alpha  occ. eigenvalues --   -0.48086  -0.47811  -0.46900  -0.46443  -0.45999
 Alpha  occ. eigenvalues --   -0.45812  -0.45725  -0.45399  -0.43840  -0.43755
 Alpha virt. eigenvalues --    0.20281   0.22919   0.23446   0.25083   0.25313
 Alpha virt. eigenvalues --    0.26434   0.26954   0.27600   0.28895   0.29388
 Alpha virt. eigenvalues --    0.30288   0.30820   0.31302   0.31925   0.32770

 Mulliken charges:
               1
     1  C   -0.297739
     2  C   -0.306096
     3  C   -0.477127
     4  H    0.149764
     5  H    0.149801
     6  H    0.157707
     7  H    0.151498
     8  H    0.155304
     9  H    0.155016
    10  H    0.162469
    11  C   -0.298291
    12  C   -0.299684
    13  C   -0.475722
    14  H    0.148619
    15  H    0.149582
    16  H    0.152119
    17  H    0.152173
    18  H    0.155201
    19  H    0.155041
    20  H    0.160500
    21  C   -0.298176
    22  C   -0.299727
    23  C   -0.475628
    24  H    0.148671
    25  H    0.149510
    26  H    0.152320
    27  H    0.151974
    28  H    0.155115
    29  H    0.154924
    30  H    0.160355
    31  C   -0.298388
    32  C   -0.305295
    33  C   -0.476543
    34  H    0.150271
    35  H    0.149581
    36  H    0.157575
    37  H    0.151799
    38  H    0.155087
    39  H    0.156379
    40  H    0.160058
 Sum of Mulliken charges =  -0.00000

 Dipole moment (field-independent basis, Debye):
    X=              0.0126    Y=             -0.0076    Z=              0.0082  Tot=              0.0169
 Quadrupole moment (field-independent basis, Debye-Ang):
   XX=            -83.6765   YY=            -86.8461   ZZ=            -84.1798
   XY=              0.3503   XZ=              0.5416   YZ=              0.0796

 Normal termination of Gaussian 16 at Wed May  5 15:20:53 2021.
