 Gaussian 16, Revision A.03,
 Gaussian 16:  EM64L-G16RevA.03 25-Dec-2016

 -------------
 #p 6-31g* mp2
 -------------

 ------------------------------------------------------
 Input file generated by CHIRIPA (05-May-2021 14:57:23)
 ------------------------------------------------------
 Symbolic Z-matrix:
 Charge =  0 Multiplicity = 1

                         Standard orientation:
 ---------------------------------------------------------------------
 Center     Atomic      Atomic             Coordinates (Angstroms)
 Number     Number       Type             X           Y           Z
 ---------------------------------------------------------------------
      1          6           0       -2.054317   -0.735772    0.217371
      2          6           0       -2.639978   -0.596475   -1.045213
      3          6           0       -3.969311   -0.181754   -1.169422
      4          6           0       -4.686983    0.086415   -0.004810
      5          6           0       -4.131613   -0.042990    1.267239
      6          6           0       -2.800688   -0.459073    1.367539
      7          1           0       -1.021040   -1.058467    0.304573
      8          1           0       -2.062737   -0.810669   -1.940177
      9          1           0       -4.447539   -0.065638   -2.134426
     10          1           0       -4.732331    0.177852    2.141187
     11          1           0       -2.348458   -0.566385    2.349383
     12          7           0       -6.095131    0.526183   -0.123649
     13          8           0       -6.706045    0.756258    0.917738
     14          8           0       -6.561260    0.632471   -1.255931
     15          6           0        6.095689    1.902715   -0.028625
     16          6           0        6.559662    0.583755   -0.068568
     17          6           0        5.659634   -0.486033   -0.061329
     18          6           0        4.296278   -0.199231   -0.013437
     19          6           0        3.803038    1.103980    0.027110
     20          6           0        4.721281    2.158168    0.019003
     21          1           0        6.801927    2.727693   -0.034586
     22          1           0        7.626489    0.382380   -0.105597
     23          1           0        5.991495   -1.516747   -0.091588
     24          1           0        2.733724    1.273253    0.063594
     25          1           0        4.358090    3.181482    0.050092
     26          7           0        3.333817   -1.323510   -0.005314
     27          8           0        2.137635   -1.044270    0.037240
     28          8           0        3.793847   -2.462671   -0.041654
 ---------------------------------------------------------------------

 SCF Done:  E(RHF) =  -868.340234677     A.U. after   16 cycles
 E2 =    -0.2597977121D+01 EUMP2 =    -0.87093821179769D+03

 The electronic state is 1-A.
 Alpha  occ. eigenvalues --  -20.61816 -20.61757 -20.60241 -20.60235 -15.86833
 Alpha  occ. eigenvalues --  -15.85291 -11.31926 -11.30484 -11.28477 -11.28443
 Alpha  occ. eigenvalues --  -11.28140 -11.27413 -11.27397 -11.27066 -11.27053
 Alpha  occ. eigenvalues --  -11.26532 -11.25962 -11.25933  -1.60849  -1.59322
 Alpha  occ. eigenvalues --   -1.40414  -1.38880  -1.20069  -1.18630  -1.09511
 Alpha  occ. eigenvalues --   -1.08011  -1.05432  -1.04022  -0.96393  -0.94878
 Alpha  occ. eigenvalues --   -0.86842  -0.85400  -0.83241  -0.81733  -0.78317
 Alpha  occ. eigenvalues --   -0.76846  -0.73075  -0.72153  -0.71509  -0.71172
 Alpha  occ. eigenvalues --   -0.70646  -0.69597  -0.65726  -0.65428  -0.64260
 Alpha  occ. eigenvalues --   -0.64001  -0.62784  -0.61384  -0.55934  -0.54333
 Alpha  occ. eigenvalues --   -0.53775  -0.53518  -0.52354  -0.52093  -0.49829
 Alpha  occ. eigenvalues --   -0.49773  -0.48276  -0.48250  -0.45879  -0.44325
 Alpha  occ. eigenvalues --   -0.38029  -0.37024  -0.36541  -0.35656
 Alpha virt. eigenvalues --    0.04206   0.05703   0.10635   0.12017   0.15759
 Alpha virt. eigenvalues --    0.17256   0.20774   0.22347   0.26733   0.27526
 Alpha virt. eigenvalues --    0.28068   0.29272   0.30437   0.31574   0.32339

 Mulliken charges:
               1
     1  C   -0.179835
     2  C   -0.221542
     3  C   -0.172029
     4  C    0.156917
     5  C   -0.171872
     6  C   -0.221277
     7  H    0.251151
     8  H    0.224893
     9  H    0.272930
    10  H    0.272782
    11  H    0.222802
    12  N    0.488278
    13  O   -0.462679
    14  O   -0.462542
    15  C   -0.169833
    16  C   -0.218466
    17  C   -0.170290
    18  C    0.157555
    19  C   -0.170807
    20  C   -0.218402
    21  H    0.228216
    22  H    0.225783
    23  H    0.276727
    24  H    0.273367
    25  H    0.225665
    26  N    0.493810
    27  O   -0.475766
    28  O   -0.455536
 Sum of Mulliken charges =  -0.00000

 Dipole moment (field-independent basis, Debye):
    X=              8.9444    Y=              2.3797    Z=              0.3849  Tot=              9.2635
 Quadrupole moment (field-independent basis, Debye-Ang):
   XX=           -120.2101   YY=           -105.3909   ZZ=           -100.8572
   XY=             21.7859   XZ=             -2.7143   YZ=              0.4575

 Normal termination of Gaussian 16 at Fri May  7 01:48:04 2021.
