 Gaussian 16, Revision A.03,
 Gaussian 16:  EM64L-G16RevA.03 25-Dec-2016

 -------------
 #p 6-31g* mp2
 -------------

 ------------------------------------------------------
 Input file generated by CHIRIPA (05-May-2021 14:57:26)
 ------------------------------------------------------
 Symbolic Z-matrix:
 Charge =  0 Multiplicity = 1

                         Standard orientation:
 ---------------------------------------------------------------------
 Center     Atomic      Atomic             Coordinates (Angstroms)
 Number     Number       Type             X           Y           Z
 ---------------------------------------------------------------------
      1          6           0        5.876913   -0.007382    0.231348
      2          6           0        5.202672    1.079551   -0.334777
      3          6           0        3.832291    1.004438   -0.601162
      4          6           0        3.164342   -0.178215   -0.287367
      5          6           0        3.808074   -1.278260    0.277256
      6          6           0        5.178693   -1.180750    0.535022
      7          1           0        6.941550    0.059667    0.434935
      8          1           0        5.742356    1.992062   -0.571653
      9          1           0        3.285582    1.830810   -1.038926
     10          1           0        3.243089   -2.174644    0.502435
     11          1           0        5.699725   -2.026458    0.974736
     12          7           0        1.713455   -0.269589   -0.564815
     13          8           0        1.147787   -1.322695   -0.279116
     14          8           0        1.169390    0.713628   -1.062725
     15          6           0       -5.401876   -1.102352   -0.636295
     16          6           0       -4.354726   -1.791124   -0.015333
     17          6           0       -3.242555   -1.100228    0.474857
     18          6           0       -3.210267    0.285499    0.326516
     19          6           0       -4.237746    1.000123   -0.287398
     20          6           0       -5.340152    0.288619   -0.770110
     21          1           0       -6.262044   -1.647061   -1.014183
     22          1           0       -4.399959   -2.871358    0.089978
     23          1           0       -2.417925   -1.608406    0.959790
     24          1           0       -4.164188    2.077084   -0.377743
     25          1           0       -6.151919    0.826153   -1.251917
     26          7           0       -2.038029    1.027828    0.841500
     27          8           0       -2.033617    2.248546    0.698454
     28          8           0       -1.145839    0.374889    1.378439
 ---------------------------------------------------------------------

 SCF Done:  E(RHF) =  -868.337781527     A.U. after   16 cycles
 E2 =    -0.2600609412D+01 EUMP2 =    -0.87093839093910D+03

 The electronic state is 1-A.
 Alpha  occ. eigenvalues --  -20.59885 -20.59855 -20.59413 -20.59339 -15.84918
 Alpha  occ. eigenvalues --  -15.84435 -11.30478 -11.29998 -11.27094 -11.27050
 Alpha  occ. eigenvalues --  -11.26878 -11.26654 -11.26553 -11.26464 -11.26162
 Alpha  occ. eigenvalues --  -11.26133 -11.25735 -11.25684  -1.58902  -1.58417
 Alpha  occ. eigenvalues --   -1.38466  -1.37978  -1.18670  -1.18208  -1.08033
 Alpha  occ. eigenvalues --   -1.07578  -1.04111  -1.03655  -0.94843  -0.94378
 Alpha  occ. eigenvalues --   -0.85501  -0.85045  -0.81684  -0.81223  -0.76687
 Alpha  occ. eigenvalues --   -0.76210  -0.71181  -0.70780  -0.70201  -0.69799
 Alpha  occ. eigenvalues --   -0.69596  -0.69346  -0.64333  -0.64130  -0.63875
 Alpha  occ. eigenvalues --   -0.63686  -0.61461  -0.60998  -0.54624  -0.54192
 Alpha  occ. eigenvalues --   -0.52420  -0.52216  -0.51963  -0.51766  -0.47980
 Alpha  occ. eigenvalues --   -0.47917  -0.47447  -0.47388  -0.43816  -0.43296
 Alpha  occ. eigenvalues --   -0.36662  -0.36214  -0.35720  -0.35263
 Alpha virt. eigenvalues --    0.05847   0.06389   0.11933   0.12392   0.17318
 Alpha virt. eigenvalues --    0.17784   0.21994   0.22405   0.27885   0.28288
 Alpha virt. eigenvalues --    0.28906   0.29349   0.31514   0.31909   0.33165

 Mulliken charges:
               1
     1  C   -0.171552
     2  C   -0.218679
     3  C   -0.169694
     4  C    0.161821
     5  C   -0.170451
     6  C   -0.218659
     7  H    0.223090
     8  H    0.221781
     9  H    0.277055
    10  H    0.273243
    11  H    0.220677
    12  N    0.494094
    13  O   -0.464337
    14  O   -0.458048
    15  C   -0.171737
    16  C   -0.219521
    17  C   -0.166043
    18  C    0.161338
    19  C   -0.170975
    20  C   -0.219246
    21  H    0.221164
    22  H    0.220093
    23  H    0.281002
    24  H    0.273047
    25  H    0.219115
    26  N    0.493176
    27  O   -0.466005
    28  O   -0.455749
 Sum of Mulliken charges =  -0.00000

 Dipole moment (field-independent basis, Debye):
    X=              1.1222    Y=             -2.2533    Z=             -0.7975  Tot=              2.6406
 Quadrupole moment (field-independent basis, Debye-Ang):
   XX=            -48.9183   YY=            -98.9680   ZZ=           -107.1683
   XY=              5.7589   XZ=              6.9494   YZ=             -5.3034

 Normal termination of Gaussian 16 at Wed May  5 16:32:33 2021.
