 Gaussian 16, Revision A.03,
 Gaussian 16:  EM64L-G16RevA.03 25-Dec-2016

 -------------
 #p 6-31g* mp2
 -------------

 ------------------------------------------------------
 Input file generated by CHIRIPA (05-May-2021 14:53:15)
 ------------------------------------------------------
 Symbolic Z-matrix:
 Charge =  0 Multiplicity = 1

                         Standard orientation:
 ---------------------------------------------------------------------
 Center     Atomic      Atomic             Coordinates (Angstroms)
 Number     Number       Type             X           Y           Z
 ---------------------------------------------------------------------
      1          6           0       -5.081164    0.222723   -0.414204
      2          6           0       -6.096923    1.063755    0.359673
      3          6           0       -7.114013    1.749772   -0.552851
      4          1           0       -4.555498    0.864898   -1.134085
      5          1           0       -5.615992   -0.534902   -1.003575
      6          1           0       -5.560257    1.818677    0.948484
      7          1           0       -6.620098    0.419541    1.077930
      8          1           0       -7.675114    1.008101   -1.130511
      9          1           0       -6.609251    2.415186   -1.260693
     10          1           0       -7.830543    2.345640    0.021071
     11          6           0       -4.057738   -0.469392    0.484297
     12          6           0       -3.041979   -1.310424   -0.289580
     13          6           0       -2.024889   -1.996441    0.622944
     14          1           0       -3.522910    0.288233    1.073669
     15          1           0       -4.583404   -1.111568    1.204179
     16          1           0       -2.518804   -0.666210   -1.007837
     17          1           0       -3.578645   -2.065346   -0.878391
     18          1           0       -2.529651   -2.661856    1.330786
     19          1           0       -1.463788   -1.254770    1.200604
     20          1           0       -1.308359   -2.592309    0.049023
     21          6           0        5.510620    1.707977    0.018871
     22          6           0        5.722133    0.367063   -0.318371
     23          6           0        4.654231   -0.534769   -0.347212
     24          6           0        3.382260   -0.059451   -0.031852
     25          6           0        3.139471    1.270519    0.308037
     26          6           0        4.222236    2.154638    0.330449
     27          1           0        6.345964    2.401663    0.038779
     28          1           0        6.721629    0.017378   -0.560802
     29          1           0        4.789693   -1.578169   -0.604866
     30          1           0        2.131743    1.589574    0.544902
     31          1           0        4.055007    3.195453    0.592716
     32          7           0        2.243853   -1.004804   -0.058982
     33          8           0        1.132855   -0.561117    0.222906
     34          8           0        2.484125   -2.171559   -0.361621
 ---------------------------------------------------------------------

 SCF Done:  E(RHF) =  -669.535700193     A.U. after   15 cycles
 E2 =    -0.2091072812D+01 EUMP2 =    -0.67162677300503D+03

 The electronic state is 1-A.
 Alpha  occ. eigenvalues --  -20.60931 -20.60923 -15.85966 -11.31299 -11.27866
 Alpha  occ. eigenvalues --  -11.27859 -11.27601 -11.26873 -11.26863 -11.21012
 Alpha  occ. eigenvalues --  -11.20612 -11.20603 -11.20358 -11.20196 -11.19094
 Alpha  occ. eigenvalues --   -1.59992  -1.39549  -1.19468  -1.08870  -1.07493
 Alpha  occ. eigenvalues --   -1.04866  -1.02463  -0.95715  -0.94881  -0.86267
 Alpha  occ. eigenvalues --   -0.85901  -0.82545  -0.78591  -0.77597  -0.77246
 Alpha  occ. eigenvalues --   -0.72192  -0.71308  -0.70577  -0.65125  -0.64870
 Alpha  occ. eigenvalues --   -0.64134  -0.62214  -0.59858  -0.58356  -0.56477
 Alpha  occ. eigenvalues --   -0.55371  -0.54181  -0.53197  -0.52958  -0.51551
 Alpha  occ. eigenvalues --   -0.51324  -0.49171  -0.48942  -0.48570  -0.46877
 Alpha  occ. eigenvalues --   -0.45644  -0.44973  -0.44782  -0.44651  -0.42702
 Alpha  occ. eigenvalues --   -0.37447  -0.36468
 Alpha virt. eigenvalues --    0.04931   0.11187   0.16425   0.21316   0.23708
 Alpha virt. eigenvalues --    0.25449   0.27237   0.27511   0.28189   0.28359
 Alpha virt. eigenvalues --    0.29223   0.30899   0.32317   0.32531   0.32612

 Mulliken charges:
               1
     1  C   -0.297243
     2  C   -0.298707
     3  C   -0.475070
     4  H    0.147947
     5  H    0.148170
     6  H    0.150153
     7  H    0.151073
     8  H    0.154644
     9  H    0.153881
    10  H    0.158038
    11  C   -0.297241
    12  C   -0.300289
    13  C   -0.471452
    14  H    0.147681
    15  H    0.146925
    16  H    0.153029
    17  H    0.145957
    18  H    0.141900
    19  H    0.165789
    20  H    0.171123
    21  C   -0.170634
    22  C   -0.218562
    23  C   -0.170566
    24  C    0.157811
    25  C   -0.170840
    26  C   -0.218504
    27  H    0.225997
    28  H    0.223837
    29  H    0.275903
    30  H    0.275299
    31  H    0.223777
    32  N    0.491144
    33  O   -0.461463
    34  O   -0.459507
 Sum of Mulliken charges =  -0.00000

 Dipole moment (field-independent basis, Debye):
    X=              4.4097    Y=              3.3127    Z=              0.0849  Tot=              5.5160
 Quadrupole moment (field-independent basis, Debye-Ang):
   XX=            -67.8080   YY=            -92.5237   ZZ=            -95.6900
   XY=              9.5294   XZ=             -1.2004   YZ=              1.4015

 Normal termination of Gaussian 16 at Thu May  6 10:36:44 2021.
