 Gaussian 16, Revision A.03,
 Gaussian 16:  EM64L-G16RevA.03 25-Dec-2016

 -------------
 #p 6-31g* mp2
 -------------

 ------------------------------------------------------
 Input file generated by CHIRIPA (05-May-2021 14:53:12)
 ------------------------------------------------------
 Symbolic Z-matrix:
 Charge =  0 Multiplicity = 1

                         Standard orientation:
 ---------------------------------------------------------------------
 Center     Atomic      Atomic             Coordinates (Angstroms)
 Number     Number       Type             X           Y           Z
 ---------------------------------------------------------------------
      1          6           0        2.815296    0.756539   -0.516789
      2          6           0        2.717486    2.244874   -0.180221
      3          6           0        1.429840    2.885063   -0.699759
      4          1           0        2.754224    0.628703   -1.606226
      5          1           0        1.947350    0.233785   -0.091592
      6          1           0        3.586072    2.764445   -0.604745
      7          1           0        2.778990    2.369198    0.908529
      8          1           0        0.552993    2.392970   -0.266649
      9          1           0        1.364660    2.790462   -1.788521
     10          1           0        1.380598    3.949070   -0.448117
     11          6           0        4.097068    0.102433   -0.004019
     12          6           0        4.194877   -1.385902   -0.340587
     13          6           0        5.482524   -2.026090    0.178952
     14          1           0        4.965014    0.625188   -0.429215
     15          1           0        4.158140    0.230270    1.085418
     16          1           0        4.133373   -1.510225   -1.429337
     17          1           0        3.326291   -1.905472    0.083937
     18          1           0        5.547703   -1.931490    1.267714
     19          1           0        6.359371   -1.533997   -0.254158
     20          1           0        5.531766   -3.090097   -0.072690
     21          6           0       -0.425098   -0.367666    1.293884
     22          6           0       -1.494422    0.277141    1.924195
     23          6           0       -2.759331    0.301245    1.329241
     24          6           0       -2.920085   -0.332430    0.098021
     25          6           0       -1.874373   -0.983143   -0.554933
     26          6           0       -0.618147   -0.994644    0.058509
     27          1           0        0.554141   -0.381495    1.763239
     28          1           0       -1.347419    0.764893    2.883640
     29          1           0       -3.604531    0.793130    1.795185
     30          1           0       -2.051693   -1.460588   -1.510978
     31          1           0        0.210483   -1.496175   -0.433308
     32          7           0       -4.254592   -0.313583   -0.541618
     33          8           0       -4.370228   -0.879257   -1.626642
     34          8           0       -5.159672    0.266505    0.054171
 ---------------------------------------------------------------------

 SCF Done:  E(RHF) =  -669.534169802     A.U. after   15 cycles
 E2 =    -0.2093999091D+01 EUMP2 =    -0.67162816889260D+03

 The electronic state is 1-A.
 Alpha  occ. eigenvalues --  -20.60794 -20.60788 -15.85848 -11.31242 -11.27813
 Alpha  occ. eigenvalues --  -11.27792 -11.27565 -11.26850 -11.26806 -11.22568
 Alpha  occ. eigenvalues --  -11.22309 -11.22270 -11.22204 -11.21833 -11.21501
 Alpha  occ. eigenvalues --   -1.59868  -1.39421  -1.19425  -1.09301  -1.08815
 Alpha  occ. eigenvalues --   -1.04825  -1.04281  -0.96708  -0.95653  -0.87721
 Alpha  occ. eigenvalues --   -0.86235  -0.82473  -0.80360  -0.79140  -0.77502
 Alpha  occ. eigenvalues --   -0.72068  -0.71191  -0.70583  -0.66003  -0.65067
 Alpha  occ. eigenvalues --   -0.64787  -0.62170  -0.61691  -0.60082  -0.58320
 Alpha  occ. eigenvalues --   -0.56020  -0.55322  -0.53380  -0.53186  -0.53129
 Alpha  occ. eigenvalues --   -0.52899  -0.50650  -0.48829  -0.48820  -0.48654
 Alpha  occ. eigenvalues --   -0.47412  -0.46615  -0.46584  -0.44820  -0.44556
 Alpha  occ. eigenvalues --   -0.37334  -0.36403
 Alpha virt. eigenvalues --    0.04991   0.11123   0.16409   0.19191   0.22838
 Alpha virt. eigenvalues --    0.23513   0.25160   0.25762   0.27071   0.28042
 Alpha virt. eigenvalues --    0.30138   0.30788   0.30881   0.31242   0.31860

 Mulliken charges:
               1
     1  C   -0.305631
     2  C   -0.299133
     3  C   -0.480063
     4  H    0.152259
     5  H    0.145669
     6  H    0.154962
     7  H    0.148083
     8  H    0.159800
     9  H    0.156987
    10  H    0.161618
    11  C   -0.298454
    12  C   -0.299998
    13  C   -0.475798
    14  H    0.154077
    15  H    0.147219
    16  H    0.154612
    17  H    0.142645
    18  H    0.155506
    19  H    0.158401
    20  H    0.162439
    21  C   -0.171662
    22  C   -0.219996
    23  C   -0.170943
    24  C    0.158659
    25  C   -0.172053
    26  C   -0.217397
    27  H    0.226910
    28  H    0.223998
    29  H    0.275990
    30  H    0.276146
    31  H    0.227366
    32  N    0.488092
    33  O   -0.460087
    34  O   -0.460223
 Sum of Mulliken charges =  -0.00000

 Dipole moment (field-independent basis, Debye):
    X=              4.7525    Y=             -0.0389    Z=              2.1952  Tot=              5.2351
 Quadrupole moment (field-independent basis, Debye-Ang):
   XX=           -122.1074   YY=            -94.1472   ZZ=            -90.8744
   XY=             -1.8748   XZ=             -8.6630   YZ=              1.5486

 Normal termination of Gaussian 16 at Thu May  6 08:52:06 2021.
