 Gaussian 16, Revision A.03,
 Gaussian 16:  EM64L-G16RevA.03 25-Dec-2016

 -------------
 #p 6-31g* mp2
 -------------

 ------------------------------------------------------
 Input file generated by CHIRIPA (05-May-2021 14:57:25)
 ------------------------------------------------------
 Symbolic Z-matrix:
 Charge =  0 Multiplicity = 1

                         Standard orientation:
 ---------------------------------------------------------------------
 Center     Atomic      Atomic             Coordinates (Angstroms)
 Number     Number       Type             X           Y           Z
 ---------------------------------------------------------------------
      1          6           0       -2.036923    2.248747   -1.250814
      2          6           0       -3.188004    2.229796   -0.456350
      3          6           0       -3.684944    1.023014    0.044924
      4          6           0       -3.002710   -0.151321   -0.269379
      5          6           0       -1.853464   -0.165088   -1.058260
      6          6           0       -1.374495    1.053352   -1.548709
      7          1           0       -1.657868    3.190733   -1.636011
      8          1           0       -3.704511    3.156614   -0.223382
      9          1           0       -4.573958    0.979535    0.662322
     10          1           0       -1.360259   -1.105229   -1.273437
     11          1           0       -0.480329    1.065051   -2.165455
     12          7           0       -3.519286   -1.435058    0.255567
     13          8           0       -2.899939   -2.455935   -0.035735
     14          8           0       -4.533744   -1.396067    0.948381
     15          6           0        0.993287    0.646977    1.826567
     16          6           0        2.152596    1.427366    1.767253
     17          6           0        3.225011    1.045177    0.955832
     18          6           0        3.103605   -0.128628    0.213717
     19          6           0        1.961742   -0.927383    0.251506
     20          6           0        0.901722   -0.525839    1.069838
     21          1           0        0.165024    0.951388    2.459583
     22          1           0        2.226497    2.338680    2.353845
     23          1           0        4.134142    1.630591    0.891112
     24          1           0        1.917483   -1.830663   -0.344769
     25          1           0        0.002608   -1.133864    1.113932
     26          7           0        4.232362   -0.543478   -0.648957
     27          8           0        4.100575   -1.581961   -1.293025
     28          8           0        5.227496    0.177698   -0.664717
 ---------------------------------------------------------------------

 SCF Done:  E(RHF) =  -868.337621548     A.U. after   16 cycles
 E2 =    -0.2602223249D+01 EUMP2 =    -0.87093984479657D+03

 The electronic state is 1-A.
 Alpha  occ. eigenvalues --  -20.61647 -20.61632 -20.61059 -20.61053 -15.86671
 Alpha  occ. eigenvalues --  -15.86110 -11.31949 -11.31488 -11.28488 -11.28475
 Alpha  occ. eigenvalues --  -11.28145 -11.28030 -11.27995 -11.27705 -11.27461
 Alpha  occ. eigenvalues --  -11.27395 -11.27057 -11.26950  -1.60711  -1.60137
 Alpha  occ. eigenvalues --   -1.40266  -1.39689  -1.20108  -1.19637  -1.09500
 Alpha  occ. eigenvalues --   -1.09020  -1.05489  -1.05020  -0.96353  -0.95858
 Alpha  occ. eigenvalues --   -0.86886  -0.86411  -0.83172  -0.82687  -0.78261
 Alpha  occ. eigenvalues --   -0.77739  -0.72874  -0.72322  -0.72048  -0.71468
 Alpha  occ. eigenvalues --   -0.71186  -0.70708  -0.65733  -0.65473  -0.65269
 Alpha  occ. eigenvalues --   -0.64993  -0.62855  -0.62326  -0.55945  -0.55492
 Alpha  occ. eigenvalues --   -0.54058  -0.53549  -0.53228  -0.53009  -0.49654
 Alpha  occ. eigenvalues --   -0.49624  -0.49082  -0.49080  -0.45673  -0.45092
 Alpha  occ. eigenvalues --   -0.38084  -0.37883  -0.37214  -0.36159
 Alpha virt. eigenvalues --    0.04200   0.04790   0.10330   0.11189   0.15684
 Alpha virt. eigenvalues --    0.16362   0.20400   0.21431   0.25765   0.27122
 Alpha virt. eigenvalues --    0.27713   0.28511   0.30252   0.30927   0.32161

 Mulliken charges:
               1
     1  C   -0.172243
     2  C   -0.219695
     3  C   -0.173334
     4  C    0.154633
     5  C   -0.175681
     6  C   -0.212762
     7  H    0.228575
     8  H    0.225181
     9  H    0.276552
    10  H    0.273611
    11  H    0.229428
    12  N    0.487367
    13  O   -0.462841
    14  O   -0.456609
    15  C   -0.170143
    16  C   -0.219710
    17  C   -0.172916
    18  C    0.158121
    19  C   -0.180068
    20  C   -0.219846
    21  H    0.227501
    22  H    0.223079
    23  H    0.275384
    24  H    0.276645
    25  H    0.232106
    26  N    0.487673
    27  O   -0.459781
    28  O   -0.460226
 Sum of Mulliken charges =  -0.00000

 Dipole moment (field-independent basis, Debye):
    X=             -2.2612    Y=              6.0869    Z=              1.1610  Tot=              6.5963
 Quadrupole moment (field-independent basis, Debye-Ang):
   XX=           -137.2440   YY=           -102.7098   ZZ=           -102.1565
   XY=             -8.7512   XZ=             12.6957   YZ=              1.4132

 Normal termination of Gaussian 16 at Thu May  6 18:05:20 2021.
