 Gaussian 16, Revision A.03,
 Gaussian 16:  EM64L-G16RevA.03 25-Dec-2016

 -------------
 #p 6-31g* mp2
 -------------

 ------------------------------------------------------
 Input file generated by CHIRIPA (05-May-2021 14:51:12)
 ------------------------------------------------------
 Symbolic Z-matrix:
 Charge =  0 Multiplicity = 1

                         Standard orientation:
 ---------------------------------------------------------------------
 Center     Atomic      Atomic             Coordinates (Angstroms)
 Number     Number       Type             X           Y           Z
 ---------------------------------------------------------------------
      1          6           0       -2.906088   -0.380691   -0.268037
      2          6           0       -4.349383    0.078550   -0.477755
      3          6           0       -4.826475   -0.110335   -1.918068
      4          1           0       -2.248261    0.175728   -0.949657
      5          1           0       -2.821479   -1.440038   -0.547359
      6          1           0       -4.431552    1.136347   -0.196808
      7          1           0       -5.003827   -0.478890    0.204579
      8          1           0       -4.773195   -1.165164   -2.206337
      9          1           0       -4.197668    0.459250   -2.610004
     10          1           0       -5.860669    0.224391   -2.045578
     11          6           0       -2.414718   -0.198205    1.166879
     12          6           0       -0.971423   -0.657447    1.376597
     13          6           0       -0.494332   -0.468561    2.816909
     14          1           0       -2.499327    0.861141    1.446200
     15          1           0       -3.072545   -0.754625    1.848499
     16          1           0       -0.316979   -0.100006    0.694263
     17          1           0       -0.889254   -1.715243    1.095650
     18          1           0       -1.123138   -1.038147    3.508846
     19          1           0       -0.547611    0.586268    3.105178
     20          1           0        0.539863   -0.803288    2.944419
     21          6           0        2.999933   -0.342081   -0.186130
     22          6           0        2.861995   -1.541048   -1.124978
     23          6           0        3.546399   -2.796929   -0.584472
     24          1           0        4.066030   -0.136870   -0.017986
     25          1           0        2.573233   -0.600813    0.792838
     26          1           0        3.287583   -1.279658   -2.102305
     27          1           0        1.796104   -1.743309   -1.291060
     28          1           0        3.116365   -3.085106    0.380218
     29          1           0        4.616318   -2.618819   -0.435636
     30          1           0        3.435438   -3.641778   -1.271331
     31          6           0        2.320873    0.920977   -0.712711
     32          6           0        2.458811    2.119944    0.226137
     33          6           0        1.774407    3.375825   -0.314371
     34          1           0        2.747574    1.179709   -1.691680
     35          1           0        1.254777    0.715765   -0.880856
     36          1           0        3.524702    2.322206    0.392218
     37          1           0        2.033224    1.858554    1.203463
     38          1           0        0.704488    3.197716   -0.463206
     39          1           0        2.204442    3.664002   -1.279060
     40          1           0        1.885368    4.220674    0.372490
 ---------------------------------------------------------------------

 SCF Done:  E(RHF) =  -470.733217392     A.U. after   11 cycles
 E2 =    -0.1584057575D+01 EUMP2 =    -0.47231727496763D+03

 The electronic state is 1-A.
 Alpha  occ. eigenvalues --  -11.21664 -11.21643 -11.21619 -11.21576 -11.21469
 Alpha  occ. eigenvalues --  -11.21410 -11.21404 -11.21343 -11.21166 -11.21111
 Alpha  occ. eigenvalues --  -11.21098 -11.21058  -1.08516  -1.08417  -1.03594
 Alpha  occ. eigenvalues --   -1.03532  -0.96048  -0.95982  -0.87059  -0.87002
 Alpha  occ. eigenvalues --   -0.79672  -0.79585  -0.78339  -0.78222  -0.65354
 Alpha  occ. eigenvalues --   -0.64895  -0.61084  -0.60824  -0.59408  -0.59354
 Alpha  occ. eigenvalues --   -0.57664  -0.57588  -0.55363  -0.55239  -0.52738
 Alpha  occ. eigenvalues --   -0.52680  -0.52469  -0.52410  -0.50012  -0.49912
 Alpha  occ. eigenvalues --   -0.48001  -0.47906  -0.46818  -0.46552  -0.46079
 Alpha  occ. eigenvalues --   -0.45795  -0.45732  -0.45385  -0.43844  -0.43788
 Alpha virt. eigenvalues --    0.19314   0.22792   0.23917   0.24133   0.25347
 Alpha virt. eigenvalues --    0.26233   0.26928   0.27774   0.29261   0.29679
 Alpha virt. eigenvalues --    0.30372   0.31352   0.31740   0.31918   0.32138

 Mulliken charges:
               1
     1  C   -0.298688
     2  C   -0.299695
     3  C   -0.475797
     4  H    0.149038
     5  H    0.149718
     6  H    0.152091
     7  H    0.152169
     8  H    0.155254
     9  H    0.155368
    10  H    0.160439
    11  C   -0.297871
    12  C   -0.309043
    13  C   -0.477246
    14  H    0.149590
    15  H    0.150012
    16  H    0.161174
    17  H    0.151963
    18  H    0.155779
    19  H    0.155547
    20  H    0.160939
    21  C   -0.301151
    22  C   -0.300177
    23  C   -0.475715
    24  H    0.149748
    25  H    0.152606
    26  H    0.151729
    27  H    0.153216
    28  H    0.155029
    29  H    0.155050
    30  H    0.160193
    31  C   -0.302156
    32  C   -0.301804
    33  C   -0.475482
    34  H    0.150362
    35  H    0.151759
    36  H    0.152364
    37  H    0.153764
    38  H    0.154037
    39  H    0.155453
    40  H    0.160430
 Sum of Mulliken charges =  -0.00000

 Dipole moment (field-independent basis, Debye):
    X=             -0.0129    Y=             -0.0032    Z=              0.0067  Tot=              0.0149
 Quadrupole moment (field-independent basis, Debye-Ang):
   XX=            -84.3006   YY=            -84.8206   ZZ=            -85.5621
   XY=              0.9903   XZ=             -1.0910   YZ=             -0.1649

 Normal termination of Gaussian 16 at Thu May  6 00:43:31 2021.
