 Gaussian 16, Revision A.03,
 Gaussian 16:  EM64L-G16RevA.03 25-Dec-2016

 -------------
 #p 6-31g* mp2
 -------------

 ------------------------------------------------------
 Input file generated by CHIRIPA (05-May-2021 14:55:23)
 ------------------------------------------------------
 Symbolic Z-matrix:
 Charge =  0 Multiplicity = 1

                         Standard orientation:
 ---------------------------------------------------------------------
 Center     Atomic      Atomic             Coordinates (Angstroms)
 Number     Number       Type             X           Y           Z
 ---------------------------------------------------------------------
      1          6           0        3.989105    2.345775   -0.350874
      2          6           0        4.354290    1.254873   -1.146545
      3          6           0        3.877222   -0.026832   -0.856396
      4          6           0        3.032958   -0.182194    0.241954
      5          6           0        2.651045    0.884858    1.053638
      6          6           0        3.140145    2.157618    0.744747
      7          1           0        4.364376    3.337959   -0.583548
      8          1           0        5.013458    1.398029   -1.998044
      9          1           0        4.143992   -0.888878   -1.455669
     10          1           0        1.992418    0.710866    1.895870
     11          1           0        2.854866    3.002991    1.364428
     12          7           0        2.521539   -1.534343    0.559043
     13          8           0        1.779039   -1.644803    1.532248
     14          8           0        2.872873   -2.458093   -0.171633
     15          6           0       -3.247916   -0.076981   -0.063898
     16          6           0       -2.413509   -0.894619   -1.050416
     17          6           0       -0.930868   -0.935161   -0.679033
     18          1           0       -2.851659    0.946678   -0.018671
     19          1           0       -3.132662   -0.501536    0.943011
     20          1           0       -2.531397   -0.469487   -2.055394
     21          1           0       -2.811918   -1.916400   -1.093442
     22          1           0       -0.794053   -1.379095    0.312333
     23          1           0       -0.511938    0.076039   -0.655086
     24          1           0       -0.353010   -1.524855   -1.397505
     25          6           0       -4.732235   -0.027098   -0.421718
     26          6           0       -5.566641    0.790540    0.564800
     27          6           0       -7.049283    0.831081    0.193417
     28          1           0       -4.847489    0.397456   -1.428627
     29          1           0       -5.128492   -1.050758   -0.466945
     30          1           0       -5.168234    1.812320    0.607826
     31          1           0       -5.448754    0.365407    1.569778
     32          1           0       -7.468213   -0.180119    0.169468
     33          1           0       -7.186098    1.275016   -0.797949
     34          1           0       -7.627141    1.420776    0.911889
 ---------------------------------------------------------------------

 SCF Done:  E(RHF) =  -669.536122584     A.U. after   15 cycles
 E2 =    -0.2091828680D+01 EUMP2 =    -0.67162795126367D+03

 The electronic state is 1-A.
 Alpha  occ. eigenvalues --  -20.60814 -20.60809 -15.85840 -11.31193 -11.27758
 Alpha  occ. eigenvalues --  -11.27754 -11.27505 -11.26779 -11.26769 -11.21381
 Alpha  occ. eigenvalues --  -11.21089 -11.21070 -11.20971 -11.20891 -11.20276
 Alpha  occ. eigenvalues --   -1.59866  -1.39426  -1.19362  -1.08762  -1.08064
 Alpha  occ. eigenvalues --   -1.04766  -1.03123  -0.95611  -0.95557  -0.86589
 Alpha  occ. eigenvalues --   -0.86164  -0.82439  -0.79211  -0.77881  -0.77483
 Alpha  occ. eigenvalues --   -0.72076  -0.71162  -0.70475  -0.65021  -0.64772
 Alpha  occ. eigenvalues --   -0.64696  -0.62114  -0.60516  -0.58953  -0.57177
 Alpha  occ. eigenvalues --   -0.55273  -0.54851  -0.53090  -0.52860  -0.52252
 Alpha  occ. eigenvalues --   -0.51995  -0.49507  -0.48832  -0.48823  -0.47536
 Alpha  occ. eigenvalues --   -0.46253  -0.45464  -0.45357  -0.44661  -0.43390
 Alpha  occ. eigenvalues --   -0.37332  -0.36366
 Alpha virt. eigenvalues --    0.05027   0.11262   0.16488   0.21397   0.23224
 Alpha virt. eigenvalues --    0.24736   0.27007   0.27287   0.27809   0.28024
 Alpha virt. eigenvalues --    0.28613   0.30952   0.31794   0.32099   0.32310

 Mulliken charges:
               1
     1  C   -0.170793
     2  C   -0.218600
     3  C   -0.171018
     4  C    0.160074
     5  C   -0.170663
     6  C   -0.218977
     7  H    0.225540
     8  H    0.223415
     9  H    0.275536
    10  H    0.275920
    11  H    0.223449
    12  N    0.490386
    13  O   -0.459423
    14  O   -0.459992
    15  C   -0.297920
    16  C   -0.299554
    17  C   -0.487667
    18  H    0.145559
    19  H    0.151850
    20  H    0.147982
    21  H    0.153624
    22  H    0.176046
    23  H    0.145415
    24  H    0.162317
    25  C   -0.297952
    26  C   -0.299287
    27  C   -0.475477
    28  H    0.148135
    29  H    0.150448
    30  H    0.149955
    31  H    0.152401
    32  H    0.155638
    33  H    0.154410
    34  H    0.159225
 Sum of Mulliken charges =  -0.00000

 Dipole moment (field-independent basis, Debye):
    X=              1.9259    Y=              4.6504    Z=             -1.0391  Tot=              5.1396
 Quadrupole moment (field-independent basis, Debye-Ang):
   XX=            -84.7209   YY=            -95.5255   ZZ=            -92.3775
   XY=             13.7453   XZ=             -5.6931   YZ=              2.5414

 Normal termination of Gaussian 16 at Thu May  6 04:43:57 2021.
