 Gaussian 16, Revision A.03,
 Gaussian 16:  EM64L-G16RevA.03 25-Dec-2016

 -------------
 #p 6-31g* mp2
 -------------

 ------------------------------------------------------
 Input file generated by CHIRIPA (05-May-2021 14:57:21)
 ------------------------------------------------------
 Symbolic Z-matrix:
 Charge =  0 Multiplicity = 1

                         Standard orientation:
 ---------------------------------------------------------------------
 Center     Atomic      Atomic             Coordinates (Angstroms)
 Number     Number       Type             X           Y           Z
 ---------------------------------------------------------------------
      1          6           0       -5.831784    0.879045   -0.197397
      2          6           0       -5.350284    0.007799   -1.180052
      3          6           0       -4.095307   -0.592906   -1.043178
      4          6           0       -3.344968   -0.298661    0.094232
      5          6           0       -3.797144    0.565071    1.090622
      6          6           0       -5.055046    1.154415    0.932811
      7          1           0       -6.807816    1.341274   -0.311857
      8          1           0       -5.951331   -0.207896   -2.058837
      9          1           0       -3.698234   -1.271199   -1.788610
     10          1           0       -3.175046    0.760705    1.955573
     11          1           0       -5.426436    1.830636    1.697558
     12          7           0       -2.014832   -0.928587    0.250217
     13          8           0       -1.373154   -0.652993    1.261619
     14          8           0       -1.639136   -1.685988   -0.641877
     15          6           0        3.318569    2.695024   -0.302366
     16          6           0        4.591293    2.122445   -0.208316
     17          6           0        4.739325    0.738331   -0.078458
     18          6           0        3.587936   -0.046867   -0.045917
     19          6           0        2.306293    0.493794   -0.137383
     20          6           0        2.182134    1.880307   -0.266663
     21          1           0        3.212847    3.771169   -0.403019
     22          1           0        5.475632    2.752711   -0.235763
     23          1           0        5.712629    0.268752   -0.003672
     24          1           0        1.443384   -0.160336   -0.107068
     25          1           0        1.192461    2.322222   -0.339497
     26          7           0        3.732015   -1.513437    0.091252
     27          8           0        2.701899   -2.183372    0.117427
     28          8           0        4.872331   -1.965228    0.169993
 ---------------------------------------------------------------------

 SCF Done:  E(RHF) =  -868.338196106     A.U. after   15 cycles
 E2 =    -0.2599497691D+01 EUMP2 =    -0.87093769379679D+03

 The electronic state is 1-A.
 Alpha  occ. eigenvalues --  -20.61216 -20.61182 -20.59632 -20.59556 -15.86220
 Alpha  occ. eigenvalues --  -15.84650 -11.31544 -11.30119 -11.28113 -11.28083
 Alpha  occ. eigenvalues --  -11.27829 -11.27104 -11.27082 -11.26820 -11.26617
 Alpha  occ. eigenvalues --  -11.26565 -11.25868 -11.25777  -1.60263  -1.58681
 Alpha  occ. eigenvalues --   -1.39812  -1.38221  -1.19709  -1.18347  -1.09111
 Alpha  occ. eigenvalues --   -1.07747  -1.05098  -1.03759  -0.95947  -0.94541
 Alpha  occ. eigenvalues --   -0.86497  -0.85161  -0.82774  -0.81364  -0.77835
 Alpha  occ. eigenvalues --   -0.76362  -0.72402  -0.71602  -0.70865  -0.70805
 Alpha  occ. eigenvalues --   -0.70013  -0.69463  -0.65354  -0.65092  -0.64002
 Alpha  occ. eigenvalues --   -0.63786  -0.62440  -0.61071  -0.55594  -0.54322
 Alpha  occ. eigenvalues --   -0.53438  -0.53182  -0.52109  -0.51858  -0.49177
 Alpha  occ. eigenvalues --   -0.49154  -0.47665  -0.47595  -0.45225  -0.43604
 Alpha  occ. eigenvalues --   -0.37690  -0.36702  -0.36391  -0.35369
 Alpha virt. eigenvalues --    0.04649   0.06156   0.10953   0.12275   0.16158
 Alpha virt. eigenvalues --    0.17585   0.21117   0.22334   0.27043   0.27935
 Alpha virt. eigenvalues --    0.28243   0.29304   0.30720   0.31851   0.32250

 Mulliken charges:
               1
     1  C   -0.170545
     2  C   -0.218654
     3  C   -0.170988
     4  C    0.157579
     5  C   -0.172227
     6  C   -0.218717
     7  H    0.226704
     8  H    0.224926
     9  H    0.277569
    10  H    0.275444
    11  H    0.224110
    12  N    0.485548
    13  O   -0.462693
    14  O   -0.453630
    15  C   -0.171434
    16  C   -0.219975
    17  C   -0.171412
    18  C    0.155434
    19  C   -0.173408
    20  C   -0.220628
    21  H    0.220527
    22  H    0.219147
    23  H    0.272815
    24  H    0.295907
    25  H    0.219118
    26  N    0.486495
    27  O   -0.449486
    28  O   -0.467526
 Sum of Mulliken charges =  -0.00000

 Dipole moment (field-independent basis, Debye):
    X=             -5.6530    Y=              7.1291    Z=             -1.0435  Tot=              9.1580
 Quadrupole moment (field-independent basis, Debye-Ang):
   XX=            -73.7056   YY=           -107.0389   ZZ=           -102.1151
   XY=             13.0194   XZ=              0.6902   YZ=              2.7068

 Normal termination of Gaussian 16 at Wed May  5 19:15:06 2021.
