 Gaussian 16, Revision A.03,
 Gaussian 16:  EM64L-G16RevA.03 25-Dec-2016

 -------------
 #p 6-31g* mp2
 -------------

 ------------------------------------------------------
 Input file generated by CHIRIPA (05-May-2021 14:57:24)
 ------------------------------------------------------
 Symbolic Z-matrix:
 Charge =  0 Multiplicity = 1

                         Standard orientation:
 ---------------------------------------------------------------------
 Center     Atomic      Atomic             Coordinates (Angstroms)
 Number     Number       Type             X           Y           Z
 ---------------------------------------------------------------------
      1          6           0        2.425031    2.295839    0.832320
      2          6           0        1.478394    1.922216   -0.127265
      3          6           0        1.463227    0.622081   -0.641043
      4          6           0        2.413521   -0.282928   -0.170735
      5          6           0        3.369381    0.059042    0.784607
      6          6           0        3.365845    1.364701    1.284397
      7          1           0        2.429549    3.307960    1.226002
      8          1           0        0.746549    2.643249   -0.480194
      9          1           0        0.741579    0.306116   -1.384555
     10          1           0        4.086311   -0.681850    1.117036
     11          1           0        4.102191    1.652061    2.029557
     12          7           0        2.407364   -1.662247   -0.707244
     13          8           0        3.255220   -2.440878   -0.276534
     14          8           0        1.554799   -1.938608   -1.548312
     15          6           0       -2.058386    2.149588   -1.279412
     16          6           0       -2.312769    0.932617   -1.920341
     17          6           0       -2.511648   -0.233934   -1.175926
     18          6           0       -2.448967   -0.146839    0.213958
     19          6           0       -2.197417    1.050707    0.881713
     20          6           0       -2.001622    2.204652    0.117107
     21          1           0       -1.905090    3.050897   -1.865535
     22          1           0       -2.357420    0.886872   -3.004758
     23          1           0       -2.710259   -1.189266   -1.646363
     24          1           0       -2.158878    1.064894    1.964179
     25          1           0       -1.804241    3.148385    0.617560
     26          7           0       -2.657878   -1.375142    1.012725
     27          8           0       -2.597616   -1.271891    2.235976
     28          8           0       -2.877931   -2.417878    0.400423
 ---------------------------------------------------------------------

 SCF Done:  E(RHF) =  -868.335457920     A.U. after   16 cycles
 E2 =    -0.2604639145D+01 EUMP2 =    -0.87094009706546D+03

 The electronic state is 1-A.
 Alpha  occ. eigenvalues --  -20.60944 -20.60905 -20.60726 -20.60710 -15.85992
 Alpha  occ. eigenvalues --  -15.85776 -11.31680 -11.31196 -11.28301 -11.28233
 Alpha  occ. eigenvalues --  -11.28163 -11.27755 -11.27721 -11.27571 -11.27443
 Alpha  occ. eigenvalues --  -11.27373 -11.26822 -11.26789  -1.59994  -1.59789
 Alpha  occ. eigenvalues --   -1.39537  -1.39344  -1.19933  -1.19376  -1.09287
 Alpha  occ. eigenvalues --   -1.08782  -1.05360  -1.04783  -0.96036  -0.95602
 Alpha  occ. eigenvalues --   -0.86764  -0.86186  -0.82846  -0.82435  -0.77818
 Alpha  occ. eigenvalues --   -0.77468  -0.72208  -0.71998  -0.71321  -0.71108
 Alpha  occ. eigenvalues --   -0.71022  -0.70524  -0.65574  -0.65393  -0.65040
 Alpha  occ. eigenvalues --   -0.64795  -0.62664  -0.62198  -0.55885  -0.55391
 Alpha  occ. eigenvalues --   -0.53802  -0.53426  -0.52941  -0.52871  -0.48994
 Alpha  occ. eigenvalues --   -0.48936  -0.48755  -0.48743  -0.44869  -0.44734
 Alpha  occ. eigenvalues --   -0.38001  -0.37497  -0.37096  -0.36040
 Alpha virt. eigenvalues --    0.04617   0.05114   0.10455   0.11353   0.15966
 Alpha virt. eigenvalues --    0.16620   0.20125   0.21899   0.26195   0.27149
 Alpha virt. eigenvalues --    0.28138   0.28449   0.30389   0.31277   0.32036

 Mulliken charges:
               1
     1  C   -0.173971
     2  C   -0.214738
     3  C   -0.174022
     4  C    0.158902
     5  C   -0.170061
     6  C   -0.218015
     7  H    0.221886
     8  H    0.214886
     9  H    0.275939
    10  H    0.276583
    11  H    0.223441
    12  N    0.488565
    13  O   -0.458300
    14  O   -0.461614
    15  C   -0.181647
    16  C   -0.224406
    17  C   -0.167359
    18  C    0.159746
    19  C   -0.166042
    20  C   -0.221398
    21  H    0.225337
    22  H    0.228769
    23  H    0.284169
    24  H    0.277595
    25  H    0.220869
    26  N    0.488191
    27  O   -0.460332
    28  O   -0.452972
 Sum of Mulliken charges =  -0.00000

 Dipole moment (field-independent basis, Debye):
    X=              0.5113    Y=              8.8098    Z=             -0.8906  Tot=              8.8694
 Quadrupole moment (field-independent basis, Debye-Ang):
   XX=           -105.7364   YY=           -108.6903   ZZ=           -102.0537
   XY=              0.5794   XZ=             15.1627   YZ=              1.8868

 Normal termination of Gaussian 16 at Thu May  6 11:21:16 2021.
