 Gaussian 16, Revision A.03,
 Gaussian 16:  EM64L-G16RevA.03 25-Dec-2016

 -------------
 #p 6-31g* mp2
 -------------

 ------------------------------------------------------
 Input file generated by CHIRIPA (05-May-2021 14:57:24)
 ------------------------------------------------------
 Symbolic Z-matrix:
 Charge =  0 Multiplicity = 1

                         Standard orientation:
 ---------------------------------------------------------------------
 Center     Atomic      Atomic             Coordinates (Angstroms)
 Number     Number       Type             X           Y           Z
 ---------------------------------------------------------------------
      1          6           0        6.130458    0.628067    0.079347
      2          6           0        5.627950   -0.176509   -0.948594
      3          6           0        4.269266   -0.502613   -0.995297
      4          6           0        3.437769   -0.004735    0.006712
      5          6           0        3.908338    0.799138    1.043843
      6          6           0        5.270564    1.112469    1.070537
      7          1           0        7.187292    0.876432    0.107855
      8          1           0        6.293421   -0.554113   -1.719703
      9          1           0        3.853689   -1.123501   -1.779652
     10          1           0        3.220369    1.160684    1.798430
     11          1           0        5.658035    1.737523    1.870050
     12          7           0        1.997516   -0.343206   -0.032139
     13          8           0        1.285730    0.107978    0.862529
     14          8           0        1.607702   -1.053274   -0.956524
     15          6           0       -5.042688    2.042312   -0.350125
     16          6           0       -3.669095    2.053473   -0.614020
     17          6           0       -2.901506    0.899438   -0.430830
     18          6           0       -3.542930   -0.253427    0.019466
     19          6           0       -4.909572   -0.296174    0.291044
     20          6           0       -5.657458    0.869593    0.100771
     21          1           0       -5.631316    2.943350   -0.495182
     22          1           0       -3.188983    2.962784   -0.964290
     23          1           0       -1.836438    0.880171   -0.627495
     24          1           0       -5.359993   -1.217771    0.639179
     25          1           0       -6.724032    0.858000    0.306516
     26          7           0       -2.740747   -1.481361    0.217151
     27          8           0       -3.329632   -2.484247    0.614732
     28          8           0       -1.538300   -1.417680   -0.029228
 ---------------------------------------------------------------------

 SCF Done:  E(RHF) =  -868.335519849     A.U. after   16 cycles
 E2 =    -0.2601071035D+01 EUMP2 =    -0.87093659088373D+03

 The electronic state is 1-A.
 Alpha  occ. eigenvalues --  -20.60128 -20.60084 -20.59239 -20.59052 -15.85170
 Alpha  occ. eigenvalues --  -15.84183 -11.30811 -11.29971 -11.27419 -11.27396
 Alpha  occ. eigenvalues --  -11.27199 -11.26661 -11.26512 -11.26488 -11.26487
 Alpha  occ. eigenvalues --  -11.26470 -11.25764 -11.25708  -1.59156  -1.58238
 Alpha  occ. eigenvalues --   -1.38712  -1.37764  -1.19004  -1.18206  -1.08344
 Alpha  occ. eigenvalues --   -1.07540  -1.04448  -1.03667  -0.95133  -0.94289
 Alpha  occ. eigenvalues --   -0.85833  -0.85046  -0.81968  -0.81108  -0.76971
 Alpha  occ. eigenvalues --   -0.76067  -0.71357  -0.70527  -0.70392  -0.70104
 Alpha  occ. eigenvalues --   -0.69583  -0.69314  -0.64651  -0.64448  -0.63842
 Alpha  occ. eigenvalues --   -0.63687  -0.61792  -0.60993  -0.54933  -0.54190
 Alpha  occ. eigenvalues --   -0.52764  -0.52542  -0.51988  -0.51765  -0.48160
 Alpha  occ. eigenvalues --   -0.48077  -0.47215  -0.47067  -0.44072  -0.43062
 Alpha  occ. eigenvalues --   -0.37003  -0.36236  -0.36065  -0.35291
 Alpha virt. eigenvalues --    0.05556   0.06452   0.11585   0.12358   0.17001
 Alpha virt. eigenvalues --    0.17849   0.21691   0.22404   0.27586   0.28270
 Alpha virt. eigenvalues --    0.28604   0.29373   0.31216   0.31908   0.32849

 Mulliken charges:
               1
     1  C   -0.171706
     2  C   -0.218514
     3  C   -0.171440
     4  C    0.158992
     5  C   -0.171886
     6  C   -0.218505
     7  H    0.224114
     8  H    0.222472
     9  H    0.276308
    10  H    0.274325
    11  H    0.221838
    12  N    0.486580
    13  O   -0.460162
    14  O   -0.449807
    15  C   -0.172238
    16  C   -0.219729
    17  C   -0.170756
    18  C    0.157243
    19  C   -0.172141
    20  C   -0.219300
    21  H    0.220740
    22  H    0.219422
    23  H    0.286881
    24  H    0.272966
    25  H    0.218962
    26  N    0.485729
    27  O   -0.472282
    28  O   -0.438107
 Sum of Mulliken charges =  -0.00000

 Dipole moment (field-independent basis, Debye):
    X=              2.6126    Y=              5.3475    Z=             -0.6314  Tot=              5.9850
 Quadrupole moment (field-independent basis, Debye-Ang):
   XX=            -50.4871   YY=           -106.0776   ZZ=           -102.0857
   XY=             -8.8867   XZ=              0.8017   YZ=              2.2009

 Normal termination of Gaussian 16 at Thu May  6 16:18:36 2021.
