 Gaussian 16, Revision A.03,
 Gaussian 16:  EM64L-G16RevA.03 25-Dec-2016

 -------------
 #p 6-31g* mp2
 -------------

 ------------------------------------------------------
 Input file generated by CHIRIPA (05-May-2021 14:51:09)
 ------------------------------------------------------
 Symbolic Z-matrix:
 Charge =  0 Multiplicity = 1

                         Standard orientation:
 ---------------------------------------------------------------------
 Center     Atomic      Atomic             Coordinates (Angstroms)
 Number     Number       Type             X           Y           Z
 ---------------------------------------------------------------------
      1          6           0       -3.980390   -0.710826   -0.027213
      2          6           0       -5.338798   -0.219737   -0.528756
      3          6           0       -6.071077   -1.264842   -1.370964
      4          1           0       -3.358334   -0.991370   -0.888192
      5          1           0       -4.124683   -1.624931    0.565228
      6          1           0       -5.192131    0.693943   -1.118920
      7          1           0       -5.957624    0.059852    0.333509
      8          1           0       -6.246508   -2.175011   -0.788369
      9          1           0       -5.476666   -1.537317   -2.249050
     10          1           0       -7.039743   -0.892904   -1.719114
     11          6           0       -3.236214    0.322841    0.816271
     12          6           0       -1.877807   -0.168248    1.317814
     13          6           0       -1.145527    0.876858    2.160022
     14          1           0       -3.091922    1.236946    0.223830
     15          1           0       -3.858271    0.603385    1.677250
     16          1           0       -1.258980   -0.447836    0.455549
     17          1           0       -2.024473   -1.081928    1.907978
     18          1           0       -1.739938    1.149332    3.038108
     19          1           0       -0.970096    1.787026    1.577427
     20          1           0       -0.176861    0.504919    2.508172
     21          6           0        4.050526   -0.386147   -0.621042
     22          6           0        4.926240   -0.953388    0.496701
     23          6           0        5.805236   -2.113356    0.028049
     24          1           0        3.417343   -1.188011   -1.024822
     25          1           0        4.693476   -0.050045   -1.446296
     26          1           0        4.281908   -1.287053    1.320182
     27          1           0        5.557274   -0.150038    0.897997
     28          1           0        6.471668   -1.790369   -0.778269
     29          1           0        5.189056   -2.933845   -0.353685
     30          1           0        6.422942   -2.503667    0.842885
     31          6           0        3.166078    0.774133   -0.168017
     32          6           0        2.290365    1.341373   -1.285759
     33          6           0        1.411368    2.501341   -0.817107
     34          1           0        2.523128    0.438030    0.657238
     35          1           0        3.799261    1.575996    0.235764
     36          1           0        1.659330    0.538023   -1.687055
     37          1           0        2.934696    1.675037   -2.109240
     38          1           0        2.027548    3.321829   -0.435372
     39          1           0        0.744936    2.178354   -0.010789
     40          1           0        0.793663    2.891651   -1.631943
 ---------------------------------------------------------------------

 SCF Done:  E(RHF) =  -470.733261089     A.U. after   11 cycles
 E2 =    -0.1582759378D+01 EUMP2 =    -0.47231602046649D+03

 The electronic state is 1-A.
 Alpha  occ. eigenvalues --  -11.21660 -11.21617 -11.21600 -11.21599 -11.21432
 Alpha  occ. eigenvalues --  -11.21399 -11.21373 -11.21340 -11.21128 -11.21084
 Alpha  occ. eigenvalues --  -11.21068 -11.21027  -1.08465  -1.08422  -1.03581
 Alpha  occ. eigenvalues --   -1.03511  -0.96039  -0.95953  -0.87062  -0.86964
 Alpha  occ. eigenvalues --   -0.79659  -0.79560  -0.78275  -0.78234  -0.65153
 Alpha  occ. eigenvalues --   -0.65006  -0.61144  -0.60769  -0.59397  -0.59326
 Alpha  occ. eigenvalues --   -0.57652  -0.57567  -0.55521  -0.55065  -0.52717
 Alpha  occ. eigenvalues --   -0.52667  -0.52504  -0.52332  -0.50154  -0.49722
 Alpha  occ. eigenvalues --   -0.47985  -0.47850  -0.46768  -0.46491  -0.45831
 Alpha  occ. eigenvalues --   -0.45764  -0.45747  -0.45657  -0.43819  -0.43778
 Alpha virt. eigenvalues --    0.20449   0.23168   0.23606   0.25119   0.26316
 Alpha virt. eigenvalues --    0.26377   0.26824   0.27492   0.27933   0.29156
 Alpha virt. eigenvalues --    0.30298   0.31230   0.31475   0.31789   0.32168

 Mulliken charges:
               1
     1  C   -0.298342
     2  C   -0.299712
     3  C   -0.475731
     4  H    0.149637
     5  H    0.149503
     6  H    0.152100
     7  H    0.151997
     8  H    0.155175
     9  H    0.155196
    10  H    0.160344
    11  C   -0.298455
    12  C   -0.300565
    13  C   -0.480811
    14  H    0.150159
    15  H    0.149832
    16  H    0.151925
    17  H    0.152257
    18  H    0.156180
    19  H    0.159379
    20  H    0.160358
    21  C   -0.298298
    22  C   -0.299629
    23  C   -0.475707
    24  H    0.149560
    25  H    0.149538
    26  H    0.151848
    27  H    0.151980
    28  H    0.155175
    29  H    0.155184
    30  H    0.160252
    31  C   -0.299407
    32  C   -0.298877
    33  C   -0.483906
    34  H    0.150573
    35  H    0.149761
    36  H    0.151192
    37  H    0.151873
    38  H    0.155264
    39  H    0.163823
    40  H    0.159376
 Sum of Mulliken charges =  -0.00000

 Dipole moment (field-independent basis, Debye):
    X=             -0.0238    Y=              0.0044    Z=              0.0210  Tot=              0.0321
 Quadrupole moment (field-independent basis, Debye-Ang):
   XX=            -84.8982   YY=            -85.3761   ZZ=            -84.4533
   XY=              0.8109   XZ=             -0.8428   YZ=             -0.9979

 Normal termination of Gaussian 16 at Wed May  5 19:43:10 2021.
