 Gaussian 16, Revision A.03,
 Gaussian 16:  EM64L-G16RevA.03 25-Dec-2016

 -------------
 #p 6-31g* mp2
 -------------

 ------------------------------------------------------
 Input file generated by CHIRIPA (05-May-2021 14:57:26)
 ------------------------------------------------------
 Symbolic Z-matrix:
 Charge =  0 Multiplicity = 1

                         Standard orientation:
 ---------------------------------------------------------------------
 Center     Atomic      Atomic             Coordinates (Angstroms)
 Number     Number       Type             X           Y           Z
 ---------------------------------------------------------------------
      1          6           0       -2.802637    2.600182   -0.354450
      2          6           0       -4.144720    2.322251   -0.075008
      3          6           0       -4.586179    1.001152    0.044817
      4          6           0       -3.654301   -0.022173   -0.121611
      5          6           0       -2.310595    0.222558   -0.400631
      6          6           0       -1.891464    1.551297   -0.516085
      7          1           0       -2.468374    3.629411   -0.445836
      8          1           0       -4.854574    3.134822    0.051018
      9          1           0       -5.619391    0.757595    0.260620
     10          1           0       -1.626420   -0.608605   -0.521009
     11          1           0       -0.848578    1.764165   -0.733160
     12          7           0       -4.109834   -1.424806    0.002929
     13          8           0       -3.269057   -2.308498   -0.148129
     14          8           0       -5.299034   -1.613939    0.249242
     15          6           0        1.254549   -0.892406    0.845536
     16          6           0        1.772391   -1.329131   -0.378242
     17          6           0        3.059199   -0.956672   -0.778177
     18          6           0        3.803964   -0.142928    0.074135
     19          6           0        3.315944    0.308401    1.299463
     20          6           0        2.026618   -0.076472    1.679013
     21          1           0        0.253948   -1.186563    1.148297
     22          1           0        1.175056   -1.962871   -1.027557
     23          1           0        3.484729   -1.280469   -1.720248
     24          1           0        3.935241    0.939356    1.925390
     25          1           0        1.627036    0.264195    2.629974
     26          7           0        5.167583    0.257948   -0.338468
     27          8           0        5.803592    0.975523    0.430438
     28          8           0        5.574558   -0.153009   -1.422960
 ---------------------------------------------------------------------

 SCF Done:  E(RHF) =  -868.338217443     A.U. after   16 cycles
 E2 =    -0.2600217278D+01 EUMP2 =    -0.87093843472098D+03

 The electronic state is 1-A.
 Alpha  occ. eigenvalues --  -20.61580 -20.61540 -20.61124 -20.61119 -15.86610
 Alpha  occ. eigenvalues --  -15.86179 -11.31942 -11.31625 -11.28541 -11.28431
 Alpha  occ. eigenvalues --  -11.28187 -11.28181 -11.28140 -11.27921 -11.27455
 Alpha  occ. eigenvalues --  -11.27437 -11.27216 -11.27206  -1.60633  -1.60199
 Alpha  occ. eigenvalues --   -1.40192  -1.39749  -1.20084  -1.19804  -1.09470
 Alpha  occ. eigenvalues --   -1.09186  -1.05477  -1.05203  -0.96328  -0.95999
 Alpha  occ. eigenvalues --   -0.86875  -0.86591  -0.83157  -0.82818  -0.78233
 Alpha  occ. eigenvalues --   -0.77855  -0.72829  -0.72392  -0.71956  -0.71525
 Alpha  occ. eigenvalues --   -0.71278  -0.70801  -0.65726  -0.65501  -0.65414
 Alpha  occ. eigenvalues --   -0.65167  -0.62839  -0.62522  -0.55981  -0.55652
 Alpha  occ. eigenvalues --   -0.53810  -0.53545  -0.53527  -0.53271  -0.49599
 Alpha  occ. eigenvalues --   -0.49567  -0.49158  -0.49145  -0.45604  -0.45136
 Alpha  occ. eigenvalues --   -0.38036  -0.37840  -0.37048  -0.36817
 Alpha virt. eigenvalues --    0.04231   0.04686   0.10508   0.10762   0.15736
 Alpha virt. eigenvalues --    0.16168   0.19584   0.21664   0.25362   0.27090
 Alpha virt. eigenvalues --    0.27414   0.28898   0.30511   0.30700   0.31397

 Mulliken charges:
               1
     1  C   -0.171011
     2  C   -0.217752
     3  C   -0.170710
     4  C    0.160309
     5  C   -0.178038
     6  C   -0.219895
     7  H    0.228847
     8  H    0.226236
     9  H    0.277397
    10  H    0.267749
    11  H    0.228854
    12  N    0.488429
    13  O   -0.465970
    14  O   -0.456144
    15  C   -0.180281
    16  C   -0.224883
    17  C   -0.171013
    18  C    0.158369
    19  C   -0.171798
    20  C   -0.220171
    21  H    0.233213
    22  H    0.229063
    23  H    0.277600
    24  H    0.276578
    25  H    0.225756
    26  N    0.487944
    27  O   -0.459665
    28  O   -0.459011
 Sum of Mulliken charges =  -0.00000

 Dipole moment (field-independent basis, Debye):
    X=             -3.2479    Y=              3.6491    Z=              1.0310  Tot=              4.9927
 Quadrupole moment (field-independent basis, Debye-Ang):
   XX=           -148.4057   YY=           -103.5351   ZZ=           -101.6363
   XY=            -24.8045   XZ=              6.1336   YZ=              1.9209

 Normal termination of Gaussian 16 at Thu May  6 18:06:59 2021.
