 Gaussian 16, Revision A.03,
 Gaussian 16:  EM64L-G16RevA.03 25-Dec-2016

 -------------
 #p 6-31g* mp2
 -------------

 ------------------------------------------------------
 Input file generated by CHIRIPA (05-May-2021 14:51:12)
 ------------------------------------------------------
 Symbolic Z-matrix:
 Charge =  0 Multiplicity = 1

                         Standard orientation:
 ---------------------------------------------------------------------
 Center     Atomic      Atomic             Coordinates (Angstroms)
 Number     Number       Type             X           Y           Z
 ---------------------------------------------------------------------
      1          6           0        3.780455    0.146698    0.231471
      2          6           0        3.947628   -1.135471   -0.584668
      3          6           0        5.006798   -2.072439   -0.003252
      4          1           0        4.745483    0.669161    0.283424
      5          1           0        3.511544   -0.116516    1.263847
      6          1           0        4.214790   -0.869874   -1.615541
      7          1           0        2.982046   -1.654845   -0.634845
      8          1           0        4.742588   -2.366170    1.017785
      9          1           0        5.982336   -1.576738    0.031517
     10          1           0        5.109917   -2.982658   -0.602191
     11          6           0        2.725103    1.093555   -0.337231
     12          6           0        2.557930    2.375723    0.478908
     13          6           0        1.498761    3.312691   -0.102508
     14          1           0        2.994014    1.356768   -1.369607
     15          1           0        1.760076    0.571091   -0.389184
     16          1           0        3.523512    2.895097    0.529085
     17          1           0        2.290769    2.110126    1.509781
     18          1           0        0.523223    2.816991   -0.137277
     19          1           0        1.762971    3.606422   -1.123545
     20          1           0        1.395642    4.222910    0.496431
     21          6           0       -3.883724   -0.330629    0.371521
     22          6           0       -4.946023    0.077891   -0.649565
     23          6           0       -6.202336    0.655256    0.003217
     24          1           0       -4.312790   -1.069850    1.061738
     25          1           0       -3.613416    0.544198    0.978981
     26          1           0       -5.213242   -0.797122   -1.255833
     27          1           0       -4.514321    0.816083   -1.337548
     28          1           0       -5.956170    1.544020    0.593217
     29          1           0       -6.659063   -0.078351    0.675396
     30          1           0       -6.948498    0.940637   -0.744887
     31          6           0       -2.621835   -0.909623   -0.265761
     32          6           0       -1.559535   -1.318144    0.755325
     33          6           0       -0.303222   -1.895508    0.102543
     34          1           0       -2.892143   -1.784450   -0.873221
     35          1           0       -2.192768   -0.170403   -0.955977
     36          1           0       -1.991238   -2.056335    1.443309
     37          1           0       -1.292316   -0.443130    1.361594
     38          1           0        0.153504   -1.161902   -0.569635
     39          1           0       -0.549389   -2.784273   -0.487456
     40          1           0        0.442940   -2.180888    0.850647
 ---------------------------------------------------------------------

 SCF Done:  E(RHF) =  -470.733118390     A.U. after   11 cycles
 E2 =    -0.1583255817D+01 EUMP2 =    -0.47231637420672D+03

 The electronic state is 1-A.
 Alpha  occ. eigenvalues --  -11.21686 -11.21627 -11.21599 -11.21515 -11.21457
 Alpha  occ. eigenvalues --  -11.21394 -11.21361 -11.21302 -11.21158 -11.21101
 Alpha  occ. eigenvalues --  -11.21089 -11.21022  -1.08487  -1.08394  -1.03589
 Alpha  occ. eigenvalues --   -1.03501  -0.96047  -0.95950  -0.87061  -0.86972
 Alpha  occ. eigenvalues --   -0.79660  -0.79561  -0.78311  -0.78194  -0.65204
 Alpha  occ. eigenvalues --   -0.64963  -0.60997  -0.60894  -0.59409  -0.59315
 Alpha  occ. eigenvalues --   -0.57662  -0.57557  -0.55453  -0.55139  -0.52751
 Alpha  occ. eigenvalues --   -0.52643  -0.52475  -0.52371  -0.50059  -0.49850
 Alpha  occ. eigenvalues --   -0.47989  -0.47880  -0.46766  -0.46592  -0.45924
 Alpha  occ. eigenvalues --   -0.45778  -0.45720  -0.45416  -0.43831  -0.43750
 Alpha virt. eigenvalues --    0.20580   0.22953   0.23952   0.24470   0.25818
 Alpha virt. eigenvalues --    0.26762   0.26993   0.27607   0.28019   0.29666
 Alpha virt. eigenvalues --    0.30000   0.31588   0.31702   0.31894   0.32332

 Mulliken charges:
               1
     1  C   -0.297281
     2  C   -0.304566
     3  C   -0.475495
     4  H    0.149399
     5  H    0.149067
     6  H    0.151321
     7  H    0.158094
     8  H    0.154749
     9  H    0.154894
    10  H    0.160159
    11  C   -0.305965
    12  C   -0.299100
    13  C   -0.475561
    14  H    0.149092
    15  H    0.157220
    16  H    0.152037
    17  H    0.151738
    18  H    0.153926
    19  H    0.155322
    20  H    0.160341
    21  C   -0.298366
    22  C   -0.299733
    23  C   -0.475755
    24  H    0.149770
    25  H    0.149606
    26  H    0.151996
    27  H    0.152173
    28  H    0.155304
    29  H    0.155183
    30  H    0.160401
    31  C   -0.298571
    32  C   -0.300631
    33  C   -0.481896
    34  H    0.149877
    35  H    0.149689
    36  H    0.152505
    37  H    0.151741
    38  H    0.160703
    39  H    0.156156
    40  H    0.160456
 Sum of Mulliken charges =  -0.00000

 Dipole moment (field-independent basis, Debye):
    X=             -0.0407    Y=             -0.0224    Z=             -0.0086  Tot=              0.0473
 Quadrupole moment (field-independent basis, Debye-Ang):
   XX=            -85.6754   YY=            -84.4961   ZZ=            -84.6684
   XY=              1.7316   XZ=             -0.3401   YZ=             -0.2060

 Normal termination of Gaussian 16 at Thu May  6 02:20:43 2021.
