 Gaussian 16, Revision A.03,
 Gaussian 16:  EM64L-G16RevA.03 25-Dec-2016

 -------------
 #p 6-31g* mp2
 -------------

 ------------------------------------------------------
 Input file generated by CHIRIPA (05-May-2021 14:57:22)
 ------------------------------------------------------
 Symbolic Z-matrix:
 Charge =  0 Multiplicity = 1

                         Standard orientation:
 ---------------------------------------------------------------------
 Center     Atomic      Atomic             Coordinates (Angstroms)
 Number     Number       Type             X           Y           Z
 ---------------------------------------------------------------------
      1          6           0        6.333638    0.049766   -0.631161
      2          6           0        5.897875   -0.934196    0.262399
      3          6           0        4.582973   -0.929891    0.737332
      4          6           0        3.726722    0.077723    0.295928
      5          6           0        4.131062    1.071819   -0.593777
      6          6           0        5.450398    1.047873   -1.055649
      7          1           0        7.356808    0.038793   -0.995028
      8          1           0        6.581615   -1.710557    0.593771
      9          1           0        4.219305   -1.679509    1.429602
     10          1           0        3.426336    1.832894   -0.906097
     11          1           0        5.786060    1.813303   -1.749547
     12          7           0        2.332347    0.092677    0.791805
     13          8           0        1.597525    0.991227    0.387724
     14          8           0        2.000660   -0.794436    1.575164
     15          6           0       -6.304735    0.513655    0.496465
     16          6           0       -6.020472   -0.767407    0.012114
     17          6           0       -4.723006   -1.104790   -0.384501
     18          6           0       -3.729517   -0.132193   -0.282906
     19          6           0       -3.981290    1.152708    0.195559
     20          6           0       -5.286032    1.467941    0.586484
     21          1           0       -7.315463    0.767139    0.802355
     22          1           0       -6.809624   -1.510537   -0.058897
     23          1           0       -4.475192   -2.089003   -0.763093
     24          1           0       -3.173701    1.872233    0.254742
     25          1           0       -5.503887    2.463621    0.962257
     26          7           0       -2.352095   -0.477640   -0.699772
     27          8           0       -1.494493    0.397171   -0.600468
     28          8           0       -2.156156   -1.616673   -1.117922
 ---------------------------------------------------------------------

 SCF Done:  E(RHF) =  -868.335493812     A.U. after   16 cycles
 E2 =    -0.2600270966D+01 EUMP2 =    -0.87093576477740D+03

 The electronic state is 1-A.
 Alpha  occ. eigenvalues --  -20.59625 -20.59620 -20.59531 -20.59497 -15.84641
 Alpha  occ. eigenvalues --  -15.84610 -11.30338 -11.30307 -11.26956 -11.26941
 Alpha  occ. eigenvalues --  -11.26940 -11.26891 -11.26773 -11.26749 -11.26055
 Alpha  occ. eigenvalues --  -11.26043 -11.26033 -11.26007  -1.58642  -1.58628
 Alpha  occ. eigenvalues --   -1.38198  -1.38165  -1.18545  -1.18518  -1.07884
 Alpha  occ. eigenvalues --   -1.07854  -1.04001  -1.03971  -0.94679  -0.94612
 Alpha  occ. eigenvalues --   -0.85385  -0.85355  -0.81523  -0.81431  -0.76490
 Alpha  occ. eigenvalues --   -0.76444  -0.71004  -0.70676  -0.69995  -0.69926
 Alpha  occ. eigenvalues --   -0.69663  -0.69631  -0.64203  -0.64156  -0.64016
 Alpha  occ. eigenvalues --   -0.63985  -0.61348  -0.61314  -0.54506  -0.54478
 Alpha  occ. eigenvalues --   -0.52309  -0.52284  -0.52105  -0.52072  -0.47804
 Alpha  occ. eigenvalues --   -0.47614  -0.47590  -0.47409  -0.43571  -0.43420
 Alpha  occ. eigenvalues --   -0.36548  -0.36523  -0.35619  -0.35590
 Alpha virt. eigenvalues --    0.06036   0.06134   0.12031   0.12060   0.17468
 Alpha virt. eigenvalues --    0.17550   0.22094   0.22134   0.27980   0.28018
 Alpha virt. eigenvalues --    0.29017   0.29073   0.31614   0.31654   0.33286

 Mulliken charges:
               1
     1  C   -0.171976
     2  C   -0.218572
     3  C   -0.171127
     4  C    0.160312
     5  C   -0.170605
     6  C   -0.218622
     7  H    0.222580
     8  H    0.220757
     9  H    0.274660
    10  H    0.276111
    11  H    0.220859
    12  N    0.488677
    13  O   -0.448801
    14  O   -0.463928
    15  C   -0.171969
    16  C   -0.218704
    17  C   -0.171481
    18  C    0.159502
    19  C   -0.170752
    20  C   -0.218792
    21  H    0.222468
    22  H    0.220451
    23  H    0.274062
    24  H    0.278704
    25  H    0.221141
    26  N    0.487799
    27  O   -0.445711
    28  O   -0.467043
 Sum of Mulliken charges =  -0.00000

 Dipole moment (field-independent basis, Debye):
    X=              0.0907    Y=              1.3035    Z=             -0.2796  Tot=              1.3363
 Quadrupole moment (field-independent basis, Debye-Ang):
   XX=            -35.7694   YY=            -98.0988   ZZ=           -106.6006
   XY=             -3.1542   XZ=             -8.4817   YZ=             -2.0746

 Normal termination of Gaussian 16 at Thu May  6 22:40:50 2021.
