 Gaussian 16, Revision A.03,
 Gaussian 16:  EM64L-G16RevA.03 25-Dec-2016

 -------------
 #p 6-31g* mp2
 -------------

 ------------------------------------------------------
 Input file generated by CHIRIPA (05-May-2021 14:51:10)
 ------------------------------------------------------
 Symbolic Z-matrix:
 Charge =  0 Multiplicity = 1

                         Standard orientation:
 ---------------------------------------------------------------------
 Center     Atomic      Atomic             Coordinates (Angstroms)
 Number     Number       Type             X           Y           Z
 ---------------------------------------------------------------------
      1          6           0       -2.119708   -0.120252    0.591585
      2          6           0       -1.932257   -0.716605    1.987011
      3          6           0       -0.462353   -0.948849    2.338062
      4          1           0       -1.665454   -0.790687   -0.150787
      5          1           0       -1.572462    0.830620    0.530271
      6          1           0       -2.480831   -1.665388    2.046118
      7          1           0       -2.387178   -0.044766    2.726129
      8          1           0        0.094650   -0.006842    2.306884
      9          1           0        0.000464   -1.636672    1.623008
     10          1           0       -0.351413   -1.375583    3.339785
     11          6           0       -3.583793    0.117701    0.226128
     12          6           0       -3.771244    0.714053   -1.169298
     13          6           0       -5.241148    0.946298   -1.520349
     14          1           0       -4.131039   -0.833171    0.287442
     15          1           0       -4.038046    0.788135    0.968500
     16          1           0       -3.316323    0.042215   -1.908416
     17          1           0       -3.222670    1.662836   -1.228405
     18          1           0       -5.703965    1.634120   -0.805295
     19          1           0       -5.798151    0.004291   -1.489171
     20          1           0       -5.352088    1.373032   -2.522072
     21          6           0        2.973580   -0.634701   -0.813978
     22          6           0        2.040799   -1.784651   -0.432505
     23          6           0        2.296761   -3.050051   -1.251676
     24          1           0        2.852480   -0.411959   -1.882934
     25          1           0        4.015416   -0.956292   -0.677777
     26          1           0        1.001002   -1.460522   -0.568067
     27          1           0        2.163995   -2.004553    0.635709
     28          1           0        3.324096   -3.400353   -1.108591
     29          1           0        2.154495   -2.853231   -2.319208
     30          1           0        1.619007   -3.859349   -0.962635
     31          6           0        2.729921    0.637252   -0.003735
     32          6           0        3.662702    1.787202   -0.385208
     33          6           0        3.406740    3.052602    0.433963
     34          1           0        1.688085    0.958843   -0.139936
     35          1           0        2.851021    0.414511    1.065221
     36          1           0        3.539506    2.007105   -1.453422
     37          1           0        4.702499    1.463073   -0.249646
     38          1           0        3.549006    2.855782    1.501495
     39          1           0        2.379405    3.402904    0.290878
     40          1           0        4.084494    3.861901    0.144922
 ---------------------------------------------------------------------

 SCF Done:  E(RHF) =  -470.732131457     A.U. after   11 cycles
 E2 =    -0.1584281198D+01 EUMP2 =    -0.47231641265488D+03

 The electronic state is 1-A.
 Alpha  occ. eigenvalues --  -11.21622 -11.21588 -11.21555 -11.21541 -11.21417
 Alpha  occ. eigenvalues --  -11.21383 -11.21358 -11.21321 -11.21085 -11.21077
 Alpha  occ. eigenvalues --  -11.21076 -11.20847  -1.08454  -1.08389  -1.03561
 Alpha  occ. eigenvalues --   -1.03467  -0.95978  -0.95943  -0.87021  -0.86940
 Alpha  occ. eigenvalues --   -0.79754  -0.79465  -0.78397  -0.78052  -0.65079
 Alpha  occ. eigenvalues --   -0.65027  -0.60951  -0.60895  -0.59419  -0.59261
 Alpha  occ. eigenvalues --   -0.57620  -0.57539  -0.55275  -0.55216  -0.52715
 Alpha  occ. eigenvalues --   -0.52630  -0.52439  -0.52324  -0.49962  -0.49877
 Alpha  occ. eigenvalues --   -0.48225  -0.47699  -0.46655  -0.46531  -0.46110
 Alpha  occ. eigenvalues --   -0.45687  -0.45678  -0.45199  -0.43771  -0.43757
 Alpha virt. eigenvalues --    0.21254   0.23178   0.23590   0.24122   0.25538
 Alpha virt. eigenvalues --    0.26204   0.26323   0.27800   0.28254   0.29896
 Alpha virt. eigenvalues --    0.30438   0.30615   0.31721   0.31879   0.32150

 Mulliken charges:
               1
     1  C   -0.301515
     2  C   -0.299544
     3  C   -0.483713
     4  H    0.151173
     5  H    0.149543
     6  H    0.151276
     7  H    0.151369
     8  H    0.156897
     9  H    0.165083
    10  H    0.158170
    11  C   -0.298128
    12  C   -0.299642
    13  C   -0.475691
    14  H    0.149673
    15  H    0.149966
    16  H    0.151649
    17  H    0.151661
    18  H    0.155291
    19  H    0.155274
    20  H    0.160229
    21  C   -0.297552
    22  C   -0.307389
    23  C   -0.475581
    24  H    0.149352
    25  H    0.149320
    26  H    0.157202
    27  H    0.155371
    28  H    0.155351
    29  H    0.155052
    30  H    0.159506
    31  C   -0.300559
    32  C   -0.299612
    33  C   -0.475697
    34  H    0.151270
    35  H    0.151009
    36  H    0.151872
    37  H    0.151900
    38  H    0.155142
    39  H    0.154704
    40  H    0.160319
 Sum of Mulliken charges =  -0.00000

 Dipole moment (field-independent basis, Debye):
    X=              0.0276    Y=             -0.0116    Z=             -0.0102  Tot=              0.0316
 Quadrupole moment (field-independent basis, Debye-Ang):
   XX=            -85.3764   YY=            -84.8635   ZZ=            -84.6978
   XY=              0.0998   XZ=              0.2125   YZ=             -0.2717

 Normal termination of Gaussian 16 at Wed May  5 18:13:30 2021.
