 Gaussian 16, Revision A.03,
 Gaussian 16:  EM64L-G16RevA.03 25-Dec-2016

 -------------
 #p 6-31g* mp2
 -------------

 ------------------------------------------------------
 Input file generated by CHIRIPA (05-May-2021 14:57:27)
 ------------------------------------------------------
 Symbolic Z-matrix:
 Charge =  0 Multiplicity = 1

                         Standard orientation:
 ---------------------------------------------------------------------
 Center     Atomic      Atomic             Coordinates (Angstroms)
 Number     Number       Type             X           Y           Z
 ---------------------------------------------------------------------
      1          6           0       -2.990025   -2.215912    0.854341
      2          6           0       -4.273187   -1.896847    0.398037
      3          6           0       -4.565796   -0.606401   -0.053267
      4          6           0       -3.546768    0.344660   -0.034364
      5          6           0       -2.258524    0.057540    0.414277
      6          6           0       -1.988555   -1.239421    0.860993
      7          1           0       -2.771513   -3.220892    1.203143
      8          1           0       -5.052906   -2.653183    0.391735
      9          1           0       -5.550532   -0.332239   -0.411804
     10          1           0       -1.501959    0.832778    0.408596
     11          1           0       -0.991128   -1.484365    1.214812
     12          7           0       -3.844557    1.714247   -0.509711
     13          8           0       -2.929318    2.534161   -0.482958
     14          8           0       -4.987563    1.941881   -0.900040
     15          6           0        4.527021    2.029082    0.788140
     16          6           0        4.975633    1.454304   -0.405551
     17          6           0        4.412571    0.264329   -0.876157
     18          6           0        3.398177   -0.326598   -0.124425
     19          6           0        2.929643    0.221579    1.068584
     20          6           0        3.507256    1.411973    1.520107
     21          1           0        4.970073    2.953646    1.146305
     22          1           0        5.767446    1.931347   -0.976084
     23          1           0        4.740838   -0.202253   -1.797004
     24          1           0        2.138742   -0.277267    1.615434
     25          1           0        3.156862    1.856088    2.447485
     26          7           0        2.794386   -1.586593   -0.612533
     27          8           0        1.902041   -2.087524    0.068220
     28          8           0        3.224914   -2.049387   -1.666621
 ---------------------------------------------------------------------

 SCF Done:  E(RHF) =  -868.339328975     A.U. after   16 cycles
 E2 =    -0.2598747303D+01 EUMP2 =    -0.87093807627785D+03

 The electronic state is 1-A.
 Alpha  occ. eigenvalues --  -20.61485 -20.61424 -20.60472 -20.60462 -15.86496
 Alpha  occ. eigenvalues --  -15.85516 -11.31680 -11.30732 -11.28281 -11.28176
 Alpha  occ. eigenvalues --  -11.27882 -11.27274 -11.27256 -11.27196 -11.27150
 Alpha  occ. eigenvalues --  -11.26911 -11.26266 -11.26126  -1.60513  -1.59547
 Alpha  occ. eigenvalues --   -1.40080  -1.39106  -1.19820  -1.18865  -1.09239
 Alpha  occ. eigenvalues --   -1.08276  -1.05201  -1.04241  -0.96113  -0.95148
 Alpha  occ. eigenvalues --   -0.86606  -0.85635  -0.82959  -0.81984  -0.78042
 Alpha  occ. eigenvalues --   -0.77061  -0.72727  -0.71819  -0.71740  -0.70925
 Alpha  occ. eigenvalues --   -0.70866  -0.69964  -0.65479  -0.65197  -0.64511
 Alpha  occ. eigenvalues --   -0.64208  -0.62566  -0.61588  -0.55683  -0.54715
 Alpha  occ. eigenvalues --   -0.53527  -0.53292  -0.52579  -0.52312  -0.49490
 Alpha  occ. eigenvalues --   -0.49441  -0.48505  -0.48478  -0.45519  -0.44546
 Alpha  occ. eigenvalues --   -0.37766  -0.36816  -0.36793  -0.35836
 Alpha virt. eigenvalues --    0.04479   0.05455   0.10853   0.11824   0.16018
 Alpha virt. eigenvalues --    0.17011   0.20286   0.22050   0.25545   0.27313
 Alpha virt. eigenvalues --    0.28823   0.28854   0.30263   0.31328   0.32637

 Mulliken charges:
               1
     1  C   -0.171092
     2  C   -0.218351
     3  C   -0.172309
     4  C    0.158552
     5  C   -0.173137
     6  C   -0.219435
     7  H    0.228037
     8  H    0.222143
     9  H    0.273729
    10  H    0.270130
    11  H    0.236421
    12  N    0.488310
    13  O   -0.463554
    14  O   -0.461407
    15  C   -0.169496
    16  C   -0.217702
    17  C   -0.170026
    18  C    0.159606
    19  C   -0.172396
    20  C   -0.217202
    21  H    0.228501
    22  H    0.225973
    23  H    0.276997
    24  H    0.268209
    25  H    0.225328
    26  N    0.491076
    27  O   -0.471910
    28  O   -0.454997
 Sum of Mulliken charges =  -0.00000

 Dipole moment (field-independent basis, Debye):
    X=              3.5287    Y=             -0.4190    Z=              3.3462  Tot=              4.8811
 Quadrupole moment (field-independent basis, Debye-Ang):
   XX=            -91.4812   YY=           -111.7232   ZZ=           -103.0082
   XY=             34.5089   XZ=             -2.3873   YZ=             -0.0176

 Normal termination of Gaussian 16 at Thu May  6 16:30:56 2021.
