 Gaussian 16, Revision A.03,
 Gaussian 16:  EM64L-G16RevA.03 25-Dec-2016

 -------------
 #p 6-31g* mp2
 -------------

 ------------------------------------------------------
 Input file generated by CHIRIPA (05-May-2021 14:57:26)
 ------------------------------------------------------
 Symbolic Z-matrix:
 Charge =  0 Multiplicity = 1

                         Standard orientation:
 ---------------------------------------------------------------------
 Center     Atomic      Atomic             Coordinates (Angstroms)
 Number     Number       Type             X           Y           Z
 ---------------------------------------------------------------------
      1          6           0        4.855919    1.578710    0.332424
      2          6           0        3.678662    2.023667   -0.277987
      3          6           0        2.682119    1.114663   -0.645628
      4          6           0        2.896873   -0.238183   -0.386830
      5          6           0        4.058936   -0.712460    0.219768
      6          6           0        5.041971    0.214472    0.578918
      7          1           0        5.624811    2.291810    0.614719
      8          1           0        3.531454    3.082563   -0.470639
      9          1           0        1.761138    1.431821   -1.119572
     10          1           0        4.177042   -1.774235    0.398939
     11          1           0        5.955239   -0.133951    1.052825
     12          7           0        1.849028   -1.209995   -0.771541
     13          8           0        2.062406   -2.396607   -0.532671
     14          8           0        0.834190   -0.766687   -1.304664
     15          6           0       -5.242412    0.875808   -0.680672
     16          6           0       -4.272091    1.802431   -0.285242
     17          6           0       -3.064510    1.371763    0.272273
     18          6           0       -2.859509    0.000890    0.420498
     19          6           0       -3.806775   -0.946911    0.036246
     20          6           0       -5.007073   -0.493492   -0.518952
     21          1           0       -6.177662    1.219199   -1.112862
     22          1           0       -4.452133    2.866459   -0.409643
     23          1           0       -2.296123    2.067433    0.586983
     24          1           0       -3.598576   -2.001149    0.172827
     25          1           0       -5.758834   -1.215394   -0.825150
     26          7           0       -1.584952   -0.467083    1.009486
     27          8           0       -1.428596   -1.680259    1.129458
     28          8           0       -0.766444    0.388158    1.340010
 ---------------------------------------------------------------------

 SCF Done:  E(RHF) =  -868.338181808     A.U. after   16 cycles
 E2 =    -0.2600856444D+01 EUMP2 =    -0.87093903825246D+03

 The electronic state is 1-A.
 Alpha  occ. eigenvalues --  -20.59937 -20.59833 -20.59702 -20.59640 -15.84938
 Alpha  occ. eigenvalues --  -15.84738 -11.30476 -11.30194 -11.27123 -11.27034
 Alpha  occ. eigenvalues --  -11.26884 -11.26809 -11.26806 -11.26631 -11.26187
 Alpha  occ. eigenvalues --  -11.26128 -11.25888 -11.25877  -1.58928  -1.58697
 Alpha  occ. eigenvalues --   -1.38489  -1.38275  -1.18670  -1.18392  -1.08036
 Alpha  occ. eigenvalues --   -1.07777  -1.04118  -1.03839  -0.94850  -0.94602
 Alpha  occ. eigenvalues --   -0.85508  -0.85235  -0.81698  -0.81463  -0.76707
 Alpha  occ. eigenvalues --   -0.76469  -0.71198  -0.71089  -0.70440  -0.69811
 Alpha  occ. eigenvalues --   -0.69630  -0.69549  -0.64340  -0.64145  -0.64075
 Alpha  occ. eigenvalues --   -0.63880  -0.61475  -0.61202  -0.54636  -0.54378
 Alpha  occ. eigenvalues --   -0.52417  -0.52231  -0.52127  -0.51964  -0.47995
 Alpha  occ. eigenvalues --   -0.47932  -0.47729  -0.47697  -0.43988  -0.43513
 Alpha  occ. eigenvalues --   -0.36652  -0.36377  -0.35726  -0.35433
 Alpha virt. eigenvalues --    0.05876   0.06115   0.11929   0.12222   0.17319
 Alpha virt. eigenvalues --    0.17556   0.21939   0.22210   0.27798   0.28078
 Alpha virt. eigenvalues --    0.28806   0.29170   0.31354   0.31781   0.32989

 Mulliken charges:
               1
     1  C   -0.171206
     2  C   -0.219105
     3  C   -0.162449
     4  C    0.165073
     5  C   -0.169849
     6  C   -0.218899
     7  H    0.221707
     8  H    0.218662
     9  H    0.272429
    10  H    0.274556
    11  H    0.220233
    12  N    0.494784
    13  O   -0.457473
    14  O   -0.468027
    15  C   -0.171558
    16  C   -0.218662
    17  C   -0.170708
    18  C    0.164644
    19  C   -0.168391
    20  C   -0.218653
    21  H    0.222835
    22  H    0.219516
    23  H    0.270322
    24  H    0.277668
    25  H    0.221932
    26  N    0.495844
    27  O   -0.452407
    28  O   -0.472818
 Sum of Mulliken charges =  -0.00000

 Dipole moment (field-independent basis, Debye):
    X=             -0.8415    Y=              4.7476    Z=             -0.6926  Tot=              4.8711
 Quadrupole moment (field-independent basis, Debye-Ang):
   XX=            -58.2964   YY=            -99.5941   ZZ=           -108.8776
   XY=              3.7558   XZ=              8.2356   YZ=             -2.0816

 Normal termination of Gaussian 16 at Fri May  7 06:36:18 2021.
