 Gaussian 16, Revision A.03,
 Gaussian 16:  EM64L-G16RevA.03 25-Dec-2016

 -------------
 #p 6-31g* mp2
 -------------

 ------------------------------------------------------
 Input file generated by CHIRIPA (05-May-2021 14:53:14)
 ------------------------------------------------------
 Symbolic Z-matrix:
 Charge =  0 Multiplicity = 1

                         Standard orientation:
 ---------------------------------------------------------------------
 Center     Atomic      Atomic             Coordinates (Angstroms)
 Number     Number       Type             X           Y           Z
 ---------------------------------------------------------------------
      1          6           0       -3.203961   -0.573179   -0.128993
      2          6           0       -2.201712   -0.523595    1.024707
      3          6           0       -0.807510   -1.001306    0.617539
      4          1           0       -3.264047   -1.601799   -0.510145
      5          1           0       -2.830563    0.045558   -0.956721
      6          1           0       -2.577556   -1.141133    1.850543
      7          1           0       -2.144147    0.504988    1.403282
      8          1           0       -0.408014   -0.379777   -0.190363
      9          1           0       -0.843885   -2.035251    0.259439
     10          1           0       -0.106996   -0.957572    1.457317
     11          6           0       -4.602286   -0.098652    0.262464
     12          6           0       -5.604534   -0.148236   -0.891236
     13          6           0       -6.998737    0.329474   -0.484067
     14          1           0       -4.975684   -0.717389    1.090192
     15          1           0       -4.542199    0.929968    0.643616
     16          1           0       -5.662099   -1.176820   -1.269811
     17          1           0       -5.228691    0.469302   -1.717072
     18          1           0       -6.962362    1.363420   -0.125968
     19          1           0       -7.398233   -0.292055    0.323835
     20          1           0       -7.699250    0.285741   -1.323846
     21          6           0        2.027215    2.535948    0.338202
     22          6           0        1.977559    1.564252    1.343120
     23          6           0        2.540587    0.301153    1.137870
     24          6           0        3.148128    0.042639   -0.089874
     25          6           0        3.213644    0.989780   -1.110619
     26          6           0        2.644011    2.246123   -0.883307
     27          1           0        1.587275    3.514530    0.506215
     28          1           0        1.499193    1.786536    2.292752
     29          1           0        2.516301   -0.469618    1.898620
     30          1           0        3.697314    0.738718   -2.046807
     31          1           0        2.684058    2.998815   -1.665544
     32          7           0        3.747677   -1.290971   -0.318841
     33          8           0        4.277170   -1.493835   -1.409309
     34          8           0        3.676758   -2.108138    0.596498
 ---------------------------------------------------------------------

 SCF Done:  E(RHF) =  -669.534598226     A.U. after   15 cycles
 E2 =    -0.2092374463D+01 EUMP2 =    -0.67162697268845D+03

 The electronic state is 1-A.
 Alpha  occ. eigenvalues --  -20.60737 -20.60732 -15.85793 -11.31159 -11.27755
 Alpha  occ. eigenvalues --  -11.27742 -11.27506 -11.26766 -11.26743 -11.21830
 Alpha  occ. eigenvalues --  -11.21772 -11.21600 -11.21540 -11.21236 -11.21154
 Alpha  occ. eigenvalues --   -1.59812  -1.39366  -1.19355  -1.08743  -1.08621
 Alpha  occ. eigenvalues --   -1.04770  -1.03705  -0.96152  -0.95575  -0.87168
 Alpha  occ. eigenvalues --   -0.86156  -0.82412  -0.79776  -0.78437  -0.77454
 Alpha  occ. eigenvalues --   -0.72013  -0.71134  -0.70475  -0.65254  -0.65009
 Alpha  occ. eigenvalues --   -0.64768  -0.62133  -0.61109  -0.59539  -0.57769
 Alpha  occ. eigenvalues --   -0.55466  -0.55268  -0.53353  -0.52875  -0.52573
 Alpha  occ. eigenvalues --   -0.52545  -0.50041  -0.48771  -0.48766  -0.48090
 Alpha  occ. eigenvalues --   -0.46800  -0.45975  -0.45903  -0.44773  -0.43979
 Alpha  occ. eigenvalues --   -0.37337  -0.36276
 Alpha virt. eigenvalues --    0.05077   0.11245   0.16507   0.21020   0.22723
 Alpha virt. eigenvalues --    0.24099   0.26423   0.26485   0.27303   0.27946
 Alpha virt. eigenvalues --    0.28418   0.30668   0.31177   0.31527   0.31829

 Mulliken charges:
               1
     1  C   -0.298508
     2  C   -0.299773
     3  C   -0.474276
     4  H    0.152193
     5  H    0.148758
     6  H    0.152605
     7  H    0.145891
     8  H    0.157429
     9  H    0.159938
    10  H    0.153487
    11  C   -0.298093
    12  C   -0.299729
    13  C   -0.475715
    14  H    0.150191
    15  H    0.147544
    16  H    0.153283
    17  H    0.151376
    18  H    0.154262
    19  H    0.155686
    20  H    0.160825
    21  C   -0.171562
    22  C   -0.216455
    23  C   -0.166669
    24  C    0.158467
    25  C   -0.171661
    26  C   -0.219128
    27  H    0.225396
    28  H    0.223207
    29  H    0.275049
    30  H    0.275624
    31  H    0.223249
    32  N    0.488291
    33  O   -0.460730
    34  O   -0.460452
 Sum of Mulliken charges =  -0.00000

 Dipole moment (field-independent basis, Debye):
    X=             -2.1139    Y=              4.6530    Z=              0.7731  Tot=              5.1688
 Quadrupole moment (field-independent basis, Debye-Ang):
   XX=           -109.5979   YY=            -93.6990   ZZ=            -90.8495
   XY=             15.9434   XZ=              1.4631   YZ=             -2.1706

 Normal termination of Gaussian 16 at Thu May  6 15:26:51 2021.
