 Gaussian 16, Revision A.03,
 Gaussian 16:  EM64L-G16RevA.03 25-Dec-2016

 -------------
 #p 6-31g* mp2
 -------------

 ------------------------------------------------------
 Input file generated by CHIRIPA (05-May-2021 14:55:21)
 ------------------------------------------------------
 Symbolic Z-matrix:
 Charge =  0 Multiplicity = 1

                         Standard orientation:
 ---------------------------------------------------------------------
 Center     Atomic      Atomic             Coordinates (Angstroms)
 Number     Number       Type             X           Y           Z
 ---------------------------------------------------------------------
      1          6           0       -2.085933   -1.766152   -1.845745
      2          6           0       -3.037173   -0.741116   -1.814691
      3          6           0       -3.078202    0.157255   -0.744274
      4          6           0       -2.148795    0.000618    0.282837
      5          6           0       -1.188991   -1.010352    0.280659
      6          6           0       -1.166498   -1.897267   -0.799815
      7          1           0       -2.061260   -2.459579   -2.681177
      8          1           0       -3.752453   -0.636885   -2.625590
      9          1           0       -3.803979    0.959890   -0.694855
     10          1           0       -0.488977   -1.088912    1.103597
     11          1           0       -0.426637   -2.692371   -0.821271
     12          7           0       -2.182419    0.945619    1.421363
     13          8           0       -1.352625    0.786225    2.313928
     14          8           0       -3.037931    1.827811    1.399617
     15          6           0        2.616707    0.663580   -0.714431
     16          6           0        2.693427    2.146307   -0.348890
     17          6           0        2.437823    3.063994   -1.544846
     18          1           0        3.347994    0.449248   -1.505775
     19          1           0        1.625863    0.448269   -1.137827
     20          1           0        3.683351    2.358465    0.074970
     21          1           0        1.962007    2.357094    0.441811
     22          1           0        1.443536    2.881243   -1.965082
     23          1           0        3.174661    2.882622   -2.334007
     24          1           0        2.497462    4.119344   -1.261053
     25          6           0        2.870022   -0.266447    0.470733
     26          6           0        2.793302   -1.749174    0.105192
     27          6           0        3.048907   -2.666861    1.301149
     28          1           0        3.860866   -0.051136    0.894129
     29          1           0        2.138736   -0.052114    1.262077
     30          1           0        3.524723   -1.959961   -0.685509
     31          1           0        1.803379   -1.961332   -0.318668
     32          1           0        2.312069   -2.485490    2.090309
     33          1           0        4.043194   -2.484110    1.721384
     34          1           0        2.989268   -3.722211    1.017356
 ---------------------------------------------------------------------

 SCF Done:  E(RHF) =  -669.535378978     A.U. after   15 cycles
 E2 =    -0.2093469454D+01 EUMP2 =    -0.67162884843204D+03

 The electronic state is 1-A.
 Alpha  occ. eigenvalues --  -20.60872 -20.60865 -15.85921 -11.31281 -11.27853
 Alpha  occ. eigenvalues --  -11.27846 -11.27578 -11.26856 -11.26841 -11.22124
 Alpha  occ. eigenvalues --  -11.21568 -11.21557 -11.21469 -11.21406 -11.20961
 Alpha  occ. eigenvalues --   -1.59943  -1.39497  -1.19457  -1.08847  -1.08608
 Alpha  occ. eigenvalues --   -1.04862  -1.03718  -0.96151  -0.95682  -0.87173
 Alpha  occ. eigenvalues --   -0.86253  -0.82525  -0.79808  -0.78370  -0.77568
 Alpha  occ. eigenvalues --   -0.72138  -0.71265  -0.70563  -0.65335  -0.65069
 Alpha  occ. eigenvalues --   -0.64865  -0.62256  -0.61041  -0.59545  -0.57748
 Alpha  occ. eigenvalues --   -0.55447  -0.55346  -0.53190  -0.52971  -0.52851
 Alpha  occ. eigenvalues --   -0.52557  -0.50108  -0.48897  -0.48894  -0.48099
 Alpha  occ. eigenvalues --   -0.46845  -0.45912  -0.45802  -0.44895  -0.43946
 Alpha  occ. eigenvalues --   -0.37427  -0.36418
 Alpha virt. eigenvalues --    0.04925   0.11142   0.16302   0.19429   0.22920
 Alpha virt. eigenvalues --    0.23924   0.25890   0.26009   0.27758   0.28256
 Alpha virt. eigenvalues --    0.29300   0.30020   0.31381   0.31555   0.32373

 Mulliken charges:
               1
     1  C   -0.171138
     2  C   -0.218637
     3  C   -0.170602
     4  C    0.157234
     5  C   -0.171649
     6  C   -0.221062
     7  H    0.226387
     8  H    0.223947
     9  H    0.275949
    10  H    0.279195
    11  H    0.227011
    12  N    0.488213
    13  O   -0.461447
    14  O   -0.459611
    15  C   -0.300301
    16  C   -0.302140
    17  C   -0.475623
    18  H    0.147822
    19  H    0.149467
    20  H    0.151956
    21  H    0.160585
    22  H    0.154368
    23  H    0.153065
    24  H    0.162392
    25  C   -0.302980
    26  C   -0.305960
    27  C   -0.477055
    28  H    0.152576
    29  H    0.157259
    30  H    0.154268
    31  H    0.142502
    32  H    0.155504
    33  H    0.160447
    34  H    0.158061
 Sum of Mulliken charges =  -0.00000

 Dipole moment (field-independent basis, Debye):
    X=              0.1096    Y=             -3.2338    Z=             -3.9533  Tot=              5.1086
 Quadrupole moment (field-independent basis, Debye-Ang):
   XX=            -91.2654   YY=            -94.8195   ZZ=            -97.2468
   XY=              5.3558   XZ=             10.6568   YZ=             -1.3188

 Normal termination of Gaussian 16 at Thu May  6 04:36:24 2021.
