 Gaussian 16, Revision A.03,
 Gaussian 16:  EM64L-G16RevA.03 25-Dec-2016

 -------------
 #p 6-31g* mp2
 -------------

 ------------------------------------------------------
 Input file generated by CHIRIPA (05-May-2021 14:57:27)
 ------------------------------------------------------
 Symbolic Z-matrix:
 Charge =  0 Multiplicity = 1

                         Standard orientation:
 ---------------------------------------------------------------------
 Center     Atomic      Atomic             Coordinates (Angstroms)
 Number     Number       Type             X           Y           Z
 ---------------------------------------------------------------------
      1          6           0       -3.466496    1.913307    0.932494
      2          6           0       -4.090315    0.661361    0.931827
      3          6           0       -3.549732   -0.400882    0.201103
      4          6           0       -2.378912   -0.174951   -0.520994
      5          6           0       -1.733999    1.060770   -0.540249
      6          6           0       -2.292399    2.108672    0.197749
      7          1           0       -3.893354    2.732913    1.502963
      8          1           0       -5.002231    0.506745    1.501520
      9          1           0       -4.012038   -1.380353    0.183012
     10          1           0       -0.825969    1.184410   -1.117840
     11          1           0       -1.805769    3.079875    0.196425
     12          7           0       -1.797190   -1.291909   -1.298429
     13          8           0       -0.764842   -1.067123   -1.926414
     14          8           0       -2.384600   -2.371017   -1.265077
     15          6           0        1.323640   -1.777458    1.776275
     16          6           0        2.516127   -2.076790    1.109270
     17          6           0        3.162612   -1.104817    0.339936
     18          6           0        2.586075    0.161817    0.259120
     19          6           0        1.399081    0.490704    0.911935
     20          6           0        0.769899   -0.496923    1.675656
     21          1           0        0.828156   -2.538590    2.371732
     22          1           0        2.948466   -3.070419    1.185613
     23          1           0        4.086774   -1.309502   -0.186797
     24          1           0        0.992302    1.490162    0.816892
     25          1           0       -0.156099   -0.261623    2.192576
     26          7           0        3.261320    1.199088   -0.552368
     27          8           0        2.732961    2.307431   -0.607576
     28          8           0        4.306152    0.884117   -1.117839
 ---------------------------------------------------------------------

 SCF Done:  E(RHF) =  -868.337463385     A.U. after   16 cycles
 E2 =    -0.2603306087D+01 EUMP2 =    -0.87094076947243D+03

 The electronic state is 1-A.
 Alpha  occ. eigenvalues --  -20.61149 -20.61099 -20.60703 -20.60654 -15.86177
 Alpha  occ. eigenvalues --  -15.85724 -11.31647 -11.30951 -11.28277 -11.28181
 Alpha  occ. eigenvalues --  -11.28006 -11.27588 -11.27450 -11.27279 -11.27232
 Alpha  occ. eigenvalues --  -11.27210 -11.26526 -11.26445  -1.60197  -1.59746
 Alpha  occ. eigenvalues --   -1.39746  -1.39311  -1.19869  -1.19101  -1.09219
 Alpha  occ. eigenvalues --   -1.08523  -1.05291  -1.04501  -0.96036  -0.95390
 Alpha  occ. eigenvalues --   -0.86647  -0.85926  -0.82858  -0.82241  -0.77898
 Alpha  occ. eigenvalues --   -0.77310  -0.72398  -0.71958  -0.71533  -0.71057
 Alpha  occ. eigenvalues --   -0.70944  -0.70235  -0.65494  -0.65243  -0.64780
 Alpha  occ. eigenvalues --   -0.64532  -0.62622  -0.61860  -0.55740  -0.55025
 Alpha  occ. eigenvalues --   -0.53668  -0.53352  -0.52713  -0.52602  -0.49168
 Alpha  occ. eigenvalues --   -0.49142  -0.48725  -0.48685  -0.45123  -0.44747
 Alpha  occ. eigenvalues --   -0.37946  -0.37095  -0.37010  -0.35792
 Alpha virt. eigenvalues --    0.04500   0.05296   0.10719   0.11546   0.15996
 Alpha virt. eigenvalues --    0.16797   0.20619   0.21851   0.25990   0.27615
 Alpha virt. eigenvalues --    0.27849   0.28924   0.30483   0.31461   0.32071

 Mulliken charges:
               1
     1  C   -0.171638
     2  C   -0.220344
     3  C   -0.173993
     4  C    0.158510
     5  C   -0.177085
     6  C   -0.226960
     7  H    0.227958
     8  H    0.224622
     9  H    0.275952
    10  H    0.284272
    11  H    0.229827
    12  N    0.488824
    13  O   -0.455607
    14  O   -0.462938
    15  C   -0.168327
    16  C   -0.214359
    17  C   -0.167007
    18  C    0.164908
    19  C   -0.172687
    20  C   -0.221858
    21  H    0.226044
    22  H    0.224650
    23  H    0.276033
    24  H    0.265261
    25  H    0.222785
    26  N    0.489237
    27  O   -0.468886
    28  O   -0.457194
 Sum of Mulliken charges =  -0.00000

 Dipole moment (field-independent basis, Debye):
    X=             -4.3553    Y=              0.1075    Z=              5.4719  Tot=              6.9945
 Quadrupole moment (field-independent basis, Debye-Ang):
   XX=           -102.2739   YY=           -104.1513   ZZ=           -106.9184
   XY=            -19.8085   XZ=             -1.0823   YZ=             -3.3250

 Normal termination of Gaussian 16 at Thu May  6 21:25:33 2021.
