 Gaussian 16, Revision A.03,
 Gaussian 16:  EM64L-G16RevA.03 25-Dec-2016

 -------------
 #p 6-31g* mp2
 -------------

 ------------------------------------------------------
 Input file generated by CHIRIPA (05-May-2021 14:55:23)
 ------------------------------------------------------
 Symbolic Z-matrix:
 Charge =  0 Multiplicity = 1

                         Standard orientation:
 ---------------------------------------------------------------------
 Center     Atomic      Atomic             Coordinates (Angstroms)
 Number     Number       Type             X           Y           Z
 ---------------------------------------------------------------------
      1          6           0       -6.081772   -0.368323    0.357870
      2          6           0       -5.554749    0.895903    0.641596
      3          6           0       -4.225013    1.196639    0.331907
      4          6           0       -3.447147    0.204959   -0.263733
      5          6           0       -3.943271   -1.063934   -0.558793
      6          6           0       -5.275771   -1.342489   -0.240365
      7          1           0       -7.115817   -0.593326    0.601838
      8          1           0       -6.178371    1.654404    1.106156
      9          1           0       -3.791454    2.167142    0.540638
     10          1           0       -3.297081   -1.799489   -1.022276
     11          1           0       -5.682385   -2.325165   -0.461855
     12          7           0       -2.037951    0.511594   -0.596213
     13          8           0       -1.373363   -0.379432   -1.120647
     14          8           0       -1.624696    1.637154   -0.326081
     15          6           0        5.391056    0.117763    0.407439
     16          6           0        6.395081   -0.078524   -0.728955
     17          6           0        7.753593    0.558089   -0.434055
     18          1           0        5.261416    1.192971    0.592013
     19          1           0        5.804867   -0.310255    1.330995
     20          1           0        5.978911    0.348508   -1.650400
     21          1           0        6.522202   -1.153385   -0.910972
     22          1           0        8.193643    0.125385    0.470226
     23          1           0        7.647264    1.635811   -0.273402
     24          1           0        8.455982    0.405791   -1.259473
     25          6           0        4.028206   -0.513084    0.127437
     26          6           0        3.024181   -0.316796    1.263831
     27          6           0        1.665670   -0.953409    0.968932
     28          1           0        3.614397   -0.085065   -0.796119
     29          1           0        4.157847   -1.588292   -0.057135
     30          1           0        2.897060    0.758065    1.445849
     31          1           0        3.440353   -0.743829    2.185276
     32          1           0        1.771998   -2.031132    0.808279
     33          1           0        1.225621   -0.520706    0.064651
     34          1           0        0.963281   -0.801112    1.794350
 ---------------------------------------------------------------------

 SCF Done:  E(RHF) =  -669.536340415     A.U. after   15 cycles
 E2 =    -0.2090960612D+01 EUMP2 =    -0.67162730102685D+03

 The electronic state is 1-A.
 Alpha  occ. eigenvalues --  -20.60954 -20.60926 -15.85958 -11.31281 -11.27842
 Alpha  occ. eigenvalues --  -11.27837 -11.27581 -11.26849 -11.26839 -11.20908
 Alpha  occ. eigenvalues --  -11.20561 -11.20497 -11.20418 -11.20332 -11.19487
 Alpha  occ. eigenvalues --   -1.59991  -1.39548  -1.19447  -1.08853  -1.07494
 Alpha  occ. eigenvalues --   -1.04843  -1.02541  -0.95697  -0.94975  -0.86244
 Alpha  occ. eigenvalues --   -0.85990  -0.82529  -0.78634  -0.77582  -0.77280
 Alpha  occ. eigenvalues --   -0.72180  -0.71300  -0.70557  -0.65103  -0.64847
 Alpha  occ. eigenvalues --   -0.64126  -0.62190  -0.59931  -0.58407  -0.56591
 Alpha  occ. eigenvalues --   -0.55352  -0.54250  -0.53175  -0.52935  -0.51690
 Alpha  occ. eigenvalues --   -0.51403  -0.49189  -0.48938  -0.48660  -0.46923
 Alpha  occ. eigenvalues --   -0.45670  -0.44994  -0.44803  -0.44649  -0.42816
 Alpha  occ. eigenvalues --   -0.37425  -0.36444
 Alpha virt. eigenvalues --    0.04932   0.11212   0.16427   0.21348   0.23767
 Alpha virt. eigenvalues --    0.25346   0.27264   0.27588   0.28215   0.28416
 Alpha virt. eigenvalues --    0.29076   0.30915   0.32406   0.32500   0.32653

 Mulliken charges:
               1
     1  C   -0.170577
     2  C   -0.218611
     3  C   -0.170806
     4  C    0.158610
     5  C   -0.170599
     6  C   -0.218596
     7  H    0.225937
     8  H    0.223748
     9  H    0.275773
    10  H    0.276097
    11  H    0.223820
    12  N    0.488855
    13  O   -0.458988
    14  O   -0.459864
    15  C   -0.297650
    16  C   -0.299128
    17  C   -0.475213
    18  H    0.149376
    19  H    0.146876
    20  H    0.152577
    21  H    0.150512
    22  H    0.153745
    23  H    0.154715
    24  H    0.158334
    25  C   -0.298259
    26  C   -0.299151
    27  C   -0.482614
    28  H    0.154029
    29  H    0.146723
    30  H    0.152494
    31  H    0.145091
    32  H    0.147130
    33  H    0.184010
    34  H    0.151601
 Sum of Mulliken charges =  -0.00000

 Dipole moment (field-independent basis, Debye):
    X=             -5.2929    Y=             -1.0096    Z=              1.0328  Tot=              5.4864
 Quadrupole moment (field-independent basis, Debye-Ang):
   XX=            -63.1248   YY=            -90.5723   ZZ=            -95.6167
   XY=              1.6920   XZ=             -3.3471   YZ=              2.2655

 Normal termination of Gaussian 16 at Wed May  5 23:54:45 2021.
