 Gaussian 16, Revision A.03,
 Gaussian 16:  EM64L-G16RevA.03 25-Dec-2016

 -------------
 #p 6-31g* mp2
 -------------

 ------------------------------------------------------
 Input file generated by CHIRIPA (05-May-2021 14:51:13)
 ------------------------------------------------------
 Symbolic Z-matrix:
 Charge =  0 Multiplicity = 1

                         Standard orientation:
 ---------------------------------------------------------------------
 Center     Atomic      Atomic             Coordinates (Angstroms)
 Number     Number       Type             X           Y           Z
 ---------------------------------------------------------------------
      1          6           0        4.625756    0.022940    0.412240
      2          6           0        5.640173   -0.696598   -0.477259
      3          6           0        6.698546   -1.453422    0.325773
      4          1           0        5.157231    0.722465    1.071894
      5          1           0        4.135487   -0.711803    1.065834
      6          1           0        6.127393    0.039085   -1.129947
      7          1           0        5.106203   -1.394353   -1.135005
      8          1           0        6.229960   -2.208473    0.965246
      9          1           0        7.256952   -0.766890    0.970332
     10          1           0        7.413422   -1.960390   -0.329815
     11          6           0        3.561288    0.784054   -0.376011
     12          6           0        2.546871    1.503591    0.513488
     13          6           0        1.488498    2.260415   -0.289543
     14          1           0        4.051556    1.518796   -1.029605
     15          1           0        3.029813    0.084528   -1.035665
     16          1           0        3.080840    2.201347    1.171234
     17          1           0        2.059651    0.767908    1.166177
     18          1           0        0.930092    1.573883   -0.934103
     19          1           0        1.957083    3.015467   -0.929017
     20          1           0        0.773622    2.767384    0.366044
     21          6           0       -3.367720   -0.165497   -0.018191
     22          6           0       -2.356933   -1.301988   -0.175294
     23          6           0       -0.909261   -0.810016   -0.173600
     24          1           0       -3.224300    0.559249   -0.831284
     25          1           0       -3.162940    0.371116    0.918563
     26          1           0       -2.564424   -1.837158   -1.110792
     27          1           0       -2.502904   -2.024209    0.638159
     28          1           0       -0.678848   -0.293996    0.764076
     29          1           0       -0.740717   -0.105882   -0.994812
     30          1           0       -0.203470   -1.638776   -0.287062
     31          6           0       -4.819323   -0.641496   -0.018039
     32          6           0       -5.830111    0.494995    0.139065
     33          6           0       -7.277782    0.003022    0.137370
     34          1           0       -5.024104   -1.178108   -0.954792
     35          1           0       -4.962744   -1.366242    0.795054
     36          1           0       -5.684141    1.217216   -0.674388
     37          1           0       -5.622621    1.030166    1.074562
     38          1           0       -7.446327   -0.701110    0.958582
     39          1           0       -7.508197   -0.512997   -0.800304
     40          1           0       -7.983574    0.831783    0.250833
 ---------------------------------------------------------------------

 SCF Done:  E(RHF) =  -470.732918379     A.U. after   11 cycles
 E2 =    -0.1582846668D+01 EUMP2 =    -0.47231576504676D+03

 The electronic state is 1-A.
 Alpha  occ. eigenvalues --  -11.21633 -11.21609 -11.21563 -11.21502 -11.21420
 Alpha  occ. eigenvalues --  -11.21361 -11.21342 -11.21278 -11.21114 -11.21077
 Alpha  occ. eigenvalues --  -11.21043 -11.20916  -1.08451  -1.08360  -1.03568
 Alpha  occ. eigenvalues --   -1.03444  -0.96038  -0.95878  -0.87061  -0.86893
 Alpha  occ. eigenvalues --   -0.79640  -0.79506  -0.78261  -0.78176  -0.65080
 Alpha  occ. eigenvalues --   -0.64993  -0.60970  -0.60865  -0.59378  -0.59272
 Alpha  occ. eigenvalues --   -0.57639  -0.57516  -0.55363  -0.55160  -0.52702
 Alpha  occ. eigenvalues --   -0.52611  -0.52481  -0.52256  -0.50082  -0.49727
 Alpha  occ. eigenvalues --   -0.47997  -0.47745  -0.46758  -0.46433  -0.45824
 Alpha  occ. eigenvalues --   -0.45740  -0.45675  -0.45589  -0.43809  -0.43713
 Alpha virt. eigenvalues --    0.21524   0.22951   0.23652   0.24807   0.25939
 Alpha virt. eigenvalues --    0.26401   0.27270   0.27460   0.27874   0.29271
 Alpha virt. eigenvalues --    0.29813   0.31057   0.31693   0.31981   0.32263

 Mulliken charges:
               1
     1  C   -0.298283
     2  C   -0.299591
     3  C   -0.475657
     4  H    0.149437
     5  H    0.149464
     6  H    0.151827
     7  H    0.151824
     8  H    0.155082
     9  H    0.155113
    10  H    0.160095
    11  C   -0.298512
    12  C   -0.300598
    13  C   -0.478842
    14  H    0.149142
    15  H    0.150111
    16  H    0.151185
    17  H    0.153455
    18  H    0.160890
    19  H    0.153720
    20  H    0.159118
    21  C   -0.298282
    22  C   -0.300106
    23  C   -0.478714
    24  H    0.149946
    25  H    0.149617
    26  H    0.151925
    27  H    0.151899
    28  H    0.157493
    29  H    0.157584
    30  H    0.159499
    31  C   -0.298312
    32  C   -0.299677
    33  C   -0.475720
    34  H    0.149534
    35  H    0.149633
    36  H    0.152070
    37  H    0.151962
    38  H    0.155166
    39  H    0.155190
    40  H    0.160311
 Sum of Mulliken charges =  -0.00000

 Dipole moment (field-independent basis, Debye):
    X=             -0.0422    Y=             -0.0143    Z=             -0.0045  Tot=              0.0448
 Quadrupole moment (field-independent basis, Debye-Ang):
   XX=            -86.4689   YY=            -84.5981   ZZ=            -83.9313
   XY=              0.7115   XZ=             -0.3064   YZ=              0.1499

 Normal termination of Gaussian 16 at Wed May  5 15:21:36 2021.
