 Gaussian 16, Revision A.03,
 Gaussian 16:  EM64L-G16RevA.03 25-Dec-2016

 -------------
 #p 6-31g* mp2
 -------------

 ------------------------------------------------------
 Input file generated by CHIRIPA (05-May-2021 14:51:09)
 ------------------------------------------------------
 Symbolic Z-matrix:
 Charge =  0 Multiplicity = 1

                         Standard orientation:
 ---------------------------------------------------------------------
 Center     Atomic      Atomic             Coordinates (Angstroms)
 Number     Number       Type             X           Y           Z
 ---------------------------------------------------------------------
      1          6           0        3.744936   -0.347627   -0.307129
      2          6           0        4.180394    1.001061    0.266805
      3          6           0        5.429710    1.558482   -0.416046
      4          1           0        4.570550   -1.065424   -0.206762
      5          1           0        3.556616   -0.236407   -1.383958
      6          1           0        4.366501    0.887646    1.342499
      7          1           0        3.353580    1.715679    0.165234
      8          1           0        5.252579    1.700092   -1.487107
      9          1           0        6.271256    0.867355   -0.303153
     10          1           0        5.723384    2.523033    0.009696
     11          6           0        2.497336   -0.917783    0.365288
     12          6           0        2.061878   -2.266471   -0.208647
     13          6           0        0.812562   -2.823891    0.474204
     14          1           0        2.685655   -1.029003    1.442117
     15          1           0        1.671722   -0.199986    0.264921
     16          1           0        2.888692   -2.981088   -0.107075
     17          1           0        1.875771   -2.153056   -1.284340
     18          1           0       -0.028984   -2.132765    0.361312
     19          1           0        0.989692   -2.965502    1.545266
     20          1           0        0.518888   -3.788443    0.048463
     21          6           0       -2.638379    1.154668    0.250086
     22          6           0       -2.924212    2.572167   -0.246886
     23          6           0       -1.950046    3.605145    0.320347
     24          1           0       -2.685499    1.141268    1.347602
     25          1           0       -1.610216    0.878561   -0.022023
     26          1           0       -3.951991    2.844998    0.024866
     27          1           0       -2.876594    2.582152   -1.343357
     28          1           0       -0.921103    3.360196    0.037722
     29          1           0       -2.002610    3.624535    1.413719
     30          1           0       -2.172604    4.611484   -0.047905
     31          6           0       -3.603893    0.110742   -0.308244
     32          6           0       -3.318060   -1.306758    0.188727
     33          6           0       -4.292225   -2.339736   -0.378506
     34          1           0       -4.632055    0.386848   -0.036136
     35          1           0       -3.556772    0.124141   -1.405761
     36          1           0       -3.365677   -1.316743    1.285198
     37          1           0       -2.290280   -1.579589   -0.083025
     38          1           0       -4.239661   -2.359125   -1.471877
     39          1           0       -5.321169   -2.094786   -0.095880
     40          1           0       -4.069668   -3.346075   -0.010254
 ---------------------------------------------------------------------

 SCF Done:  E(RHF) =  -470.733341417     A.U. after   11 cycles
 E2 =    -0.1582798673D+01 EUMP2 =    -0.47231614008960D+03

 The electronic state is 1-A.
 Alpha  occ. eigenvalues --  -11.21631 -11.21613 -11.21610 -11.21582 -11.21434
 Alpha  occ. eigenvalues --  -11.21421 -11.21369 -11.21361 -11.21098 -11.21076
 Alpha  occ. eigenvalues --  -11.21057 -11.21051  -1.08456  -1.08437  -1.03555
 Alpha  occ. eigenvalues --   -1.03524  -0.95998  -0.95979  -0.87027  -0.86984
 Alpha  occ. eigenvalues --   -0.79662  -0.79548  -0.78302  -0.78217  -0.65147
 Alpha  occ. eigenvalues --   -0.65018  -0.61041  -0.60849  -0.59363  -0.59351
 Alpha  occ. eigenvalues --   -0.57628  -0.57569  -0.55332  -0.55232  -0.52692
 Alpha  occ. eigenvalues --   -0.52672  -0.52459  -0.52370  -0.50051  -0.49848
 Alpha  occ. eigenvalues --   -0.48039  -0.47815  -0.46794  -0.46508  -0.45953
 Alpha  occ. eigenvalues --   -0.45769  -0.45750  -0.45456  -0.43799  -0.43791
 Alpha virt. eigenvalues --    0.20781   0.23236   0.23674   0.24308   0.25422
 Alpha virt. eigenvalues --    0.26978   0.27026   0.27527   0.27932   0.29289
 Alpha virt. eigenvalues --    0.30543   0.31607   0.31692   0.31840   0.32042

 Mulliken charges:
               1
     1  C   -0.298334
     2  C   -0.299585
     3  C   -0.475722
     4  H    0.149798
     5  H    0.149339
     6  H    0.152104
     7  H    0.151806
     8  H    0.155115
     9  H    0.155199
    10  H    0.160385
    11  C   -0.298864
    12  C   -0.299286
    13  C   -0.482985
    14  H    0.149912
    15  H    0.149599
    16  H    0.152067
    17  H    0.151442
    18  H    0.162047
    19  H    0.155568
    20  H    0.160060
    21  C   -0.299059
    22  C   -0.299693
    23  C   -0.475552
    24  H    0.150170
    25  H    0.148672
    26  H    0.152268
    27  H    0.151897
    28  H    0.154671
    29  H    0.155463
    30  H    0.160386
    31  C   -0.297775
    32  C   -0.307679
    33  C   -0.475167
    34  H    0.149732
    35  H    0.149370
    36  H    0.152148
    37  H    0.159803
    38  H    0.154880
    39  H    0.155060
    40  H    0.160738
 Sum of Mulliken charges =  -0.00000

 Dipole moment (field-independent basis, Debye):
    X=             -0.0102    Y=             -0.0039    Z=              0.0159  Tot=              0.0193
 Quadrupole moment (field-independent basis, Debye-Ang):
   XX=            -85.1892   YY=            -85.5510   ZZ=            -83.9247
   XY=             -1.3967   XZ=              0.0526   YZ=             -0.2905

 Normal termination of Gaussian 16 at Thu May  6 03:42:53 2021.
