 Gaussian 16, Revision A.03,
 Gaussian 16:  EM64L-G16RevA.03 25-Dec-2016

 -------------
 #p 6-31g* mp2
 -------------

 ------------------------------------------------------
 Input file generated by CHIRIPA (05-May-2021 14:53:11)
 ------------------------------------------------------
 Symbolic Z-matrix:
 Charge =  0 Multiplicity = 1

                         Standard orientation:
 ---------------------------------------------------------------------
 Center     Atomic      Atomic             Coordinates (Angstroms)
 Number     Number       Type             X           Y           Z
 ---------------------------------------------------------------------
      1          6           0       -2.812222    0.685890   -0.703204
      2          6           0       -2.356383    1.960929    0.007057
      3          6           0       -2.060957    3.104865   -0.963473
      4          1           0       -2.036451    0.373215   -1.415496
      5          1           0       -3.710659    0.906072   -1.296269
      6          1           0       -1.459875    1.738082    0.599703
      7          1           0       -3.133245    2.270498    0.717879
      8          1           0       -2.953133    3.355681   -1.546324
      9          1           0       -1.270255    2.820240   -1.665171
     10          1           0       -1.736729    4.006500   -0.434522
     11          6           0       -3.111368   -0.466723    0.253730
     12          6           0       -3.567207   -1.741762   -0.456531
     13          6           0       -3.862633   -2.885698    0.513999
     14          1           0       -2.212931   -0.686905    0.846795
     15          1           0       -3.887139   -0.154048    0.966022
     16          1           0       -2.790345   -2.051331   -1.167353
     17          1           0       -4.463715   -1.518915   -1.049177
     18          1           0       -4.653335   -2.601073    1.215697
     19          1           0       -2.970457   -3.136514    1.096850
     20          1           0       -4.186861   -3.787333   -0.014952
     21          6           0        3.076260   -2.316611   -0.722966
     22          6           0        2.298888   -2.258357    0.438420
     23          6           0        1.870869   -1.027750    0.945327
     24          6           0        2.240200    0.130073    0.262444
     25          6           0        3.013814    0.104786   -0.896941
     26          6           0        3.430618   -1.136933   -1.385772
     27          1           0        3.404399   -3.276892   -1.109723
     28          1           0        2.022184   -3.172891    0.955246
     29          1           0        1.268257   -0.953752    1.842434
     30          1           0        3.273783    1.033513   -1.390198
     31          1           0        4.034252   -1.179144   -2.287930
     32          7           0        1.793012    1.438743    0.789515
     33          8           0        2.131786    2.444372    0.169369
     34          8           0        1.112201    1.434071    1.812800
 ---------------------------------------------------------------------

 SCF Done:  E(RHF) =  -669.536331712     A.U. after   15 cycles
 E2 =    -0.2091917905D+01 EUMP2 =    -0.67162824961753D+03

 The electronic state is 1-A.
 Alpha  occ. eigenvalues --  -20.61006 -20.61000 -15.86019 -11.31336 -11.27897
 Alpha  occ. eigenvalues --  -11.27890 -11.27625 -11.26899 -11.26889 -11.21466
 Alpha  occ. eigenvalues --  -11.21077 -11.21056 -11.20850 -11.20599 -11.20123
 Alpha  occ. eigenvalues --   -1.60057  -1.39614  -1.19500  -1.08906  -1.07979
 Alpha  occ. eigenvalues --   -1.04894  -1.03022  -0.95748  -0.95502  -0.86525
 Alpha  occ. eigenvalues --   -0.86294  -0.82582  -0.79121  -0.77733  -0.77630
 Alpha  occ. eigenvalues --   -0.72239  -0.71376  -0.70606  -0.65155  -0.64895
 Alpha  occ. eigenvalues --   -0.64620  -0.62241  -0.60422  -0.58907  -0.57072
 Alpha  occ. eigenvalues --   -0.55396  -0.54814  -0.53224  -0.52984  -0.52181
 Alpha  occ. eigenvalues --   -0.51924  -0.49485  -0.49012  -0.49001  -0.47428
 Alpha  occ. eigenvalues --   -0.46215  -0.45472  -0.45272  -0.44627  -0.43281
 Alpha  occ. eigenvalues --   -0.37476  -0.36494
 Alpha virt. eigenvalues --    0.04847   0.11134   0.16326   0.21171   0.23113
 Alpha virt. eigenvalues --    0.24766   0.26430   0.27332   0.27703   0.28375
 Alpha virt. eigenvalues --    0.28742   0.30914   0.31889   0.32116   0.32421

 Mulliken charges:
               1
     1  C   -0.297762
     2  C   -0.309925
     3  C   -0.473589
     4  H    0.145041
     5  H    0.147284
     6  H    0.169985
     7  H    0.149780
     8  H    0.148844
     9  H    0.152990
    10  H    0.167094
    11  C   -0.296715
    12  C   -0.299167
    13  C   -0.474429
    14  H    0.146997
    15  H    0.150602
    16  H    0.149140
    17  H    0.152298
    18  H    0.156577
    19  H    0.150553
    20  H    0.158563
    21  C   -0.170547
    22  C   -0.218459
    23  C   -0.171618
    24  C    0.158354
    25  C   -0.170958
    26  C   -0.218493
    27  H    0.226282
    28  H    0.224175
    29  H    0.276059
    30  H    0.276006
    31  H    0.224068
    32  N    0.487557
    33  O   -0.457759
    34  O   -0.458828
 Sum of Mulliken charges =  -0.00000

 Dipole moment (field-independent basis, Debye):
    X=              1.7782    Y=             -4.5088    Z=             -1.7794  Tot=              5.1631
 Quadrupole moment (field-independent basis, Debye-Ang):
   XX=            -86.5976   YY=            -96.0518   ZZ=            -93.6894
   XY=             -9.6867   XZ=             -6.1057   YZ=             -2.6836

 Normal termination of Gaussian 16 at Thu May  6 05:41:59 2021.
