 Gaussian 16, Revision A.03,
 Gaussian 16:  EM64L-G16RevA.03 25-Dec-2016

 -------------
 #p 6-31g* mp2
 -------------

 ------------------------------------------------------
 Input file generated by CHIRIPA (05-May-2021 14:57:21)
 ------------------------------------------------------
 Symbolic Z-matrix:
 Charge =  0 Multiplicity = 1

                         Standard orientation:
 ---------------------------------------------------------------------
 Center     Atomic      Atomic             Coordinates (Angstroms)
 Number     Number       Type             X           Y           Z
 ---------------------------------------------------------------------
      1          6           0       -1.265425   -1.696530    1.177483
      2          6           0       -2.504729   -1.567938    1.813181
      3          6           0       -3.522527   -0.802462    1.236395
      4          6           0       -3.265526   -0.176438    0.017652
      5          6           0       -2.041364   -0.285464   -0.640248
      6          6           0       -1.038099   -1.056012   -0.045047
      7          1           0       -0.480420   -2.293140    1.632697
      8          1           0       -2.684095   -2.064250    2.762680
      9          1           0       -4.491295   -0.686062    1.706880
     10          1           0       -1.892297    0.221116   -1.586067
     11          1           0       -0.076619   -1.154112   -0.541008
     12          7           0       -4.335330    0.636622   -0.602713
     13          8           0       -4.083809    1.178161   -1.677008
     14          8           0       -5.405107    0.716963   -0.002914
     15          6           0        3.657246   -1.951219   -1.083304
     16          6           0        4.332489   -1.482880    0.048610
     17          6           0        4.026001   -0.231306    0.590987
     18          6           0        3.034294    0.529088   -0.026757
     19          6           0        2.343819    0.090115   -1.155401
     20          6           0        2.666813   -1.164614   -1.680643
     21          1           0        3.901745   -2.924698   -1.497980
     22          1           0        5.102127   -2.091612    0.514602
     23          1           0        4.533121    0.155659    1.466491
     24          1           0        1.581394    0.719655   -1.597899
     25          1           0        2.140772   -1.525775   -2.559784
     26          7           0        2.701091    1.855745    0.538364
     27          8           0        1.823353    2.506465   -0.024464
     28          8           0        3.323974    2.219737    1.533433
 ---------------------------------------------------------------------

 SCF Done:  E(RHF) =  -868.336317649     A.U. after   16 cycles
 E2 =    -0.2601798575D+01 EUMP2 =    -0.87093811622342D+03

 The electronic state is 1-A.
 Alpha  occ. eigenvalues --  -20.61437 -20.61423 -20.60622 -20.60616 -15.86497
 Alpha  occ. eigenvalues --  -15.85676 -11.32122 -11.31080 -11.28757 -11.28685
 Alpha  occ. eigenvalues --  -11.28468 -11.27798 -11.27713 -11.27681 -11.27645
 Alpha  occ. eigenvalues --  -11.27412 -11.26676 -11.26614  -1.60504  -1.59694
 Alpha  occ. eigenvalues --   -1.40050  -1.39248  -1.20337  -1.19253  -1.09651
 Alpha  occ. eigenvalues --   -1.08644  -1.05789  -1.04672  -0.96448  -0.95476
 Alpha  occ. eigenvalues --   -0.87129  -0.86075  -0.83282  -0.82319  -0.78296
 Alpha  occ. eigenvalues --   -0.77357  -0.72703  -0.71899  -0.71838  -0.71389
 Alpha  occ. eigenvalues --   -0.71012  -0.70385  -0.65968  -0.65732  -0.64914
 Alpha  occ. eigenvalues --   -0.64731  -0.63105  -0.62033  -0.56201  -0.55208
 Alpha  occ. eigenvalues --   -0.54167  -0.53826  -0.52977  -0.52666  -0.49483
 Alpha  occ. eigenvalues --   -0.49448  -0.48658  -0.48649  -0.45397  -0.44646
 Alpha  occ. eigenvalues --   -0.38313  -0.37408  -0.37198  -0.36242
 Alpha virt. eigenvalues --    0.04206   0.05191   0.10119   0.11482   0.15535
 Alpha virt. eigenvalues --    0.16668   0.20025   0.21866   0.25510   0.27073
 Alpha virt. eigenvalues --    0.28188   0.28912   0.30049   0.31524   0.31772

 Mulliken charges:
               1
     1  C   -0.173608
     2  C   -0.217711
     3  C   -0.170529
     4  C    0.159738
     5  C   -0.170645
     6  C   -0.222541
     7  H    0.224173
     8  H    0.223006
     9  H    0.275820
    10  H    0.272417
    11  H    0.225327
    12  N    0.488382
    13  O   -0.460339
    14  O   -0.460343
    15  C   -0.171595
    16  C   -0.219176
    17  C   -0.170985
    18  C    0.161623
    19  C   -0.180699
    20  C   -0.225401
    21  H    0.229111
    22  H    0.226782
    23  H    0.278880
    24  H    0.278020
    25  H    0.226656
    26  N    0.488089
    27  O   -0.456413
    28  O   -0.458038
 Sum of Mulliken charges =  -0.00000

 Dipole moment (field-independent basis, Debye):
    X=              5.1818    Y=             -7.4334    Z=              0.2849  Tot=              9.0657
 Quadrupole moment (field-independent basis, Debye-Ang):
   XX=           -117.9071   YY=           -109.7063   ZZ=            -99.7354
   XY=             -4.9315   XZ=            -13.0817   YZ=             -2.8399

 Normal termination of Gaussian 16 at Thu May  6 08:03:03 2021.
