 Gaussian 16, Revision A.03,
 Gaussian 16:  EM64L-G16RevA.03 25-Dec-2016

 -------------
 #p 6-31g* mp2
 -------------

 ------------------------------------------------------
 Input file generated by CHIRIPA (05-May-2021 14:55:20)
 ------------------------------------------------------
 Symbolic Z-matrix:
 Charge =  0 Multiplicity = 1

                         Standard orientation:
 ---------------------------------------------------------------------
 Center     Atomic      Atomic             Coordinates (Angstroms)
 Number     Number       Type             X           Y           Z
 ---------------------------------------------------------------------
      1          6           0       -0.374629   -0.039563    1.334815
      2          6           0       -0.970696    1.168157    0.957143
      3          6           0       -2.225749    1.178460    0.341283
      4          6           0       -2.859338   -0.042875    0.117236
      5          6           0       -2.291430   -1.262608    0.481958
      6          6           0       -1.035733   -1.248959    1.096437
      7          1           0        0.600577   -0.038264    1.812694
      8          1           0       -0.459594    2.108905    1.141025
      9          1           0       -2.710119    2.098920    0.038699
     10          1           0       -2.825370   -2.184426    0.285541
     11          1           0       -0.575221   -2.188412    1.388673
     12          7           0       -4.188348   -0.044646   -0.534016
     13          8           0       -4.725900   -1.134123   -0.720331
     14          8           0       -4.667308    1.043477   -0.845822
     15          6           0        3.755744   -0.588548   -0.118875
     16          6           0        3.039771   -1.852633   -0.595799
     17          6           0        3.804630   -3.130925   -0.251191
     18          1           0        4.757528   -0.550557   -0.568243
     19          1           0        3.902929   -0.647031    0.968467
     20          1           0        2.892746   -1.791158   -1.681719
     21          1           0        2.039503   -1.887522   -0.145394
     22          1           0        3.938994   -3.219376    0.831733
     23          1           0        4.797084   -3.122465   -0.713321
     24          1           0        3.274968   -4.022420   -0.601271
     25          6           0        3.003427    0.697560   -0.456026
     26          6           0        3.719400    1.961645    0.020898
     27          6           0        2.954542    3.239937   -0.323710
     28          1           0        2.856242    0.756043   -1.543368
     29          1           0        2.001644    0.659569   -0.006658
     30          1           0        4.719667    1.996534   -0.429507
     31          1           0        3.866425    1.900171    1.106818
     32          1           0        1.962087    3.231477    0.138420
     33          1           0        2.820178    3.328388   -1.406633
     34          1           0        3.484203    4.131432    0.026371
 ---------------------------------------------------------------------

 SCF Done:  E(RHF) =  -669.534563132     A.U. after   15 cycles
 E2 =    -0.2093725669D+01 EUMP2 =    -0.67162828880083D+03

 The electronic state is 1-A.
 Alpha  occ. eigenvalues --  -20.60804 -20.60799 -15.85859 -11.31253 -11.27834
 Alpha  occ. eigenvalues --  -11.27828 -11.27574 -11.26851 -11.26841 -11.22428
 Alpha  occ. eigenvalues --  -11.22376 -11.22211 -11.22124 -11.21944 -11.21773
 Alpha  occ. eigenvalues --   -1.59879  -1.39432  -1.19439  -1.09268  -1.08825
 Alpha  occ. eigenvalues --   -1.04842  -1.04335  -0.96784  -0.95663  -0.87794
 Alpha  occ. eigenvalues --   -0.86243  -0.82490  -0.80388  -0.79063  -0.77521
 Alpha  occ. eigenvalues --   -0.72078  -0.71202  -0.70598  -0.65946  -0.65094
 Alpha  occ. eigenvalues --   -0.64805  -0.62225  -0.61716  -0.60133  -0.58387
 Alpha  occ. eigenvalues --   -0.56188  -0.55278  -0.53471  -0.53254  -0.53125
 Alpha  occ. eigenvalues --   -0.52919  -0.50736  -0.48837  -0.48831  -0.48700
 Alpha  occ. eigenvalues --   -0.47447  -0.46584  -0.46530  -0.44831  -0.44578
 Alpha  occ. eigenvalues --   -0.37329  -0.36430
 Alpha virt. eigenvalues --    0.04969   0.10989   0.16360   0.18776   0.22167
 Alpha virt. eigenvalues --    0.23295   0.25584   0.25864   0.26870   0.27393
 Alpha virt. eigenvalues --    0.30030   0.30783   0.30890   0.31311   0.31461

 Mulliken charges:
               1
     1  C   -0.169958
     2  C   -0.219895
     3  C   -0.170872
     4  C    0.158690
     5  C   -0.171004
     6  C   -0.220073
     7  H    0.227486
     8  H    0.226837
     9  H    0.276318
    10  H    0.276099
    11  H    0.224342
    12  N    0.488069
    13  O   -0.460211
    14  O   -0.460118
    15  C   -0.299412
    16  C   -0.301500
    17  C   -0.476336
    18  H    0.153621
    19  H    0.144852
    20  H    0.156742
    21  H    0.146323
    22  H    0.153173
    23  H    0.158346
    24  H    0.161852
    25  C   -0.305609
    26  C   -0.300550
    27  C   -0.475242
    28  H    0.154387
    29  H    0.149075
    30  H    0.155960
    31  H    0.148775
    32  H    0.146266
    33  H    0.159983
    34  H    0.163583
 Sum of Mulliken charges =  -0.00000

 Dipole moment (field-independent basis, Debye):
    X=              4.7290    Y=              0.0044    Z=              2.1756  Tot=              5.2055
 Quadrupole moment (field-independent basis, Debye-Ang):
   XX=           -121.7216   YY=            -90.6269   ZZ=            -94.1594
   XY=              0.4626   XZ=             -7.0169   YZ=             -0.3521

 Normal termination of Gaussian 16 at Wed May  5 18:55:21 2021.
