 Gaussian 16, Revision A.03,
 Gaussian 16:  EM64L-G16RevA.03 25-Dec-2016

 -------------
 #p 6-31g* mp2
 -------------

 ------------------------------------------------------
 Input file generated by CHIRIPA (05-May-2021 14:57:22)
 ------------------------------------------------------
 Symbolic Z-matrix:
 Charge =  0 Multiplicity = 1

                         Standard orientation:
 ---------------------------------------------------------------------
 Center     Atomic      Atomic             Coordinates (Angstroms)
 Number     Number       Type             X           Y           Z
 ---------------------------------------------------------------------
      1          6           0        4.725618    0.860051    1.090902
      2          6           0        3.769931    0.211701    1.880095
      3          6           0        2.703921   -0.471010    1.286735
      4          6           0        2.624027   -0.485168   -0.104921
      5          6           0        3.560371    0.151164   -0.918330
      6          6           0        4.617977    0.827770   -0.303334
      7          1           0        5.550456    1.388027    1.560242
      8          1           0        3.850996    0.235106    2.963112
      9          1           0        1.950091   -0.981444    1.873776
     10          1           0        3.452905    0.110286   -1.995455
     11          1           0        5.358712    1.330396   -0.918739
     12          7           0        1.499938   -1.204692   -0.744537
     13          8           0        1.452056   -1.202351   -1.972682
     14          8           0        0.688044   -1.757373   -0.005613
     15          6           0       -1.980687    2.655953   -0.662398
     16          6           0       -2.809114    2.507337    0.454805
     17          6           0       -3.274161    1.243651    0.830807
     18          6           0       -2.889397    0.145254    0.063496
     19          6           0       -2.065220    0.260920   -1.054827
     20          6           0       -1.612035    1.534248   -1.412327
     21          1           0       -1.624035    3.641360   -0.947299
     22          1           0       -3.097030    3.376694    1.039073
     23          1           0       -3.916564    1.100006    1.691099
     24          1           0       -1.795235   -0.624395   -1.617627
     25          1           0       -0.968780    1.646669   -2.280446
     26          7           0       -3.375443   -1.197658    0.451757
     27          8           0       -3.022095   -2.149563   -0.240816
     28          8           0       -4.100553   -1.272899    1.441299
 ---------------------------------------------------------------------

 SCF Done:  E(RHF) =  -868.338546072     A.U. after   16 cycles
 E2 =    -0.2600682875D+01 EUMP2 =    -0.87093922894741D+03

 The electronic state is 1-A.
 Alpha  occ. eigenvalues --  -20.61225 -20.61155 -20.59716 -20.59618 -15.86199
 Alpha  occ. eigenvalues --  -15.84723 -11.31506 -11.30201 -11.28094 -11.28032
 Alpha  occ. eigenvalues --  -11.27800 -11.27083 -11.27041 -11.26927 -11.26715
 Alpha  occ. eigenvalues --  -11.26657 -11.25978 -11.25825  -1.60251  -1.58739
 Alpha  occ. eigenvalues --   -1.39803  -1.38284  -1.19674  -1.18436  -1.09082
 Alpha  occ. eigenvalues --   -1.07828  -1.05065  -1.03852  -0.95924  -0.94626
 Alpha  occ. eigenvalues --   -0.86465  -0.85246  -0.82755  -0.81451  -0.77816
 Alpha  occ. eigenvalues --   -0.76446  -0.72409  -0.71586  -0.70949  -0.70779
 Alpha  occ. eigenvalues --   -0.70050  -0.69556  -0.65325  -0.65065  -0.64090
 Alpha  occ. eigenvalues --   -0.63865  -0.62409  -0.61158  -0.55569  -0.54416
 Alpha  occ. eigenvalues --   -0.53403  -0.53152  -0.52208  -0.51940  -0.49202
 Alpha  occ. eigenvalues --   -0.49149  -0.47738  -0.47672  -0.45229  -0.43653
 Alpha  occ. eigenvalues --   -0.37656  -0.36668  -0.36474  -0.35463
 Alpha virt. eigenvalues --    0.04679   0.06080   0.10988   0.12189   0.16199
 Alpha virt. eigenvalues --    0.17490   0.21142   0.22268   0.27061   0.27954
 Alpha virt. eigenvalues --    0.28257   0.29225   0.30736   0.31728   0.32301

 Mulliken charges:
               1
     1  C   -0.170707
     2  C   -0.218846
     3  C   -0.170269
     4  C    0.158925
     5  C   -0.172448
     6  C   -0.218877
     7  H    0.226359
     8  H    0.225076
     9  H    0.278855
    10  H    0.273933
    11  H    0.223463
    12  N    0.487290
    13  O   -0.468096
    14  O   -0.451504
    15  C   -0.171796
    16  C   -0.220623
    17  C   -0.172595
    18  C    0.157755
    19  C   -0.166887
    20  C   -0.226844
    21  H    0.220317
    22  H    0.218374
    23  H    0.272290
    24  H    0.292426
    25  H    0.224698
    26  N    0.488177
    27  O   -0.449714
    28  O   -0.468733
 Sum of Mulliken charges =  -0.00000

 Dipole moment (field-independent basis, Debye):
    X=              5.8902    Y=              6.9039    Z=              0.8666  Tot=              9.1164
 Quadrupole moment (field-independent basis, Debye-Ang):
   XX=            -93.9164   YY=           -106.4173   ZZ=            -98.9444
   XY=             -8.5793   XZ=              6.3992   YZ=             -0.7370

 Normal termination of Gaussian 16 at Thu May  6 11:15:44 2021.
