 Gaussian 16, Revision A.03,
 Gaussian 16:  EM64L-G16RevA.03 25-Dec-2016

 -------------
 #p 6-31g* mp2
 -------------

 ------------------------------------------------------
 Input file generated by CHIRIPA (05-May-2021 14:57:24)
 ------------------------------------------------------
 Symbolic Z-matrix:
 Charge =  0 Multiplicity = 1

                         Standard orientation:
 ---------------------------------------------------------------------
 Center     Atomic      Atomic             Coordinates (Angstroms)
 Number     Number       Type             X           Y           Z
 ---------------------------------------------------------------------
      1          6           0        4.178530    2.196381    0.856025
      2          6           0        5.154159    1.218024    0.638113
      3          6           0        4.815099   -0.004245    0.050197
      4          6           0        3.484867   -0.215581   -0.309119
      5          6           0        2.490059    0.739402   -0.105023
      6          6           0        2.851932    1.954374    0.484416
      7          1           0        4.450781    3.143034    1.313323
      8          1           0        6.185199    1.403215    0.925699
      9          1           0        5.550313   -0.779108   -0.129986
     10          1           0        1.470561    0.525770   -0.402351
     11          1           0        2.092140    2.712350    0.652445
     12          7           0        3.113843   -1.505680   -0.932326
     13          8           0        1.934904   -1.667364   -1.239894
     14          8           0        4.009000   -2.330748   -1.101427
     15          6           0       -2.067682   -1.148879    1.895705
     16          6           0       -1.552219   -0.119878    1.100734
     17          6           0       -2.362170    0.525366    0.161487
     18          6           0       -3.688936    0.114312    0.043092
     19          6           0       -4.231734   -0.907565    0.820541
     20          6           0       -3.403439   -1.538750    1.753321
     21          1           0       -1.431368   -1.644660    2.622823
     22          1           0       -0.515230    0.184993    1.209140
     23          1           0       -1.988908    1.324931   -0.466837
     24          1           0       -5.269435   -1.189436    0.689607
     25          1           0       -3.806458   -2.337577    2.369356
     26          7           0       -4.556105    0.789962   -0.947824
     27          8           0       -5.721628    0.409216   -1.032822
     28          8           0       -4.053848    1.687490   -1.620744
 ---------------------------------------------------------------------

 SCF Done:  E(RHF) =  -868.337184879     A.U. after   16 cycles
 E2 =    -0.2599825873D+01 EUMP2 =    -0.87093701075240D+03

 The electronic state is 1-A.
 Alpha  occ. eigenvalues --  -20.61353 -20.61343 -20.60719 -20.60711 -15.86406
 Alpha  occ. eigenvalues --  -15.85774 -11.31873 -11.31140 -11.28507 -11.28386
 Alpha  occ. eigenvalues --  -11.28133 -11.27782 -11.27695 -11.27497 -11.27443
 Alpha  occ. eigenvalues --  -11.27409 -11.26802 -11.26689  -1.60426  -1.59791
 Alpha  occ. eigenvalues --   -1.39977  -1.39346  -1.20036  -1.19315  -1.09397
 Alpha  occ. eigenvalues --   -1.08700  -1.05461  -1.04743  -0.96225  -0.95539
 Alpha  occ. eigenvalues --   -0.86842  -0.86133  -0.83059  -0.82394  -0.78114
 Alpha  occ. eigenvalues --   -0.77441  -0.72616  -0.71994  -0.71756  -0.71130
 Alpha  occ. eigenvalues --   -0.71111  -0.70420  -0.65682  -0.65470  -0.64980
 Alpha  occ. eigenvalues --   -0.64769  -0.62847  -0.62067  -0.55913  -0.55213
 Alpha  occ. eigenvalues --   -0.53772  -0.53564  -0.53025  -0.52824  -0.49385
 Alpha  occ. eigenvalues --   -0.49372  -0.48753  -0.48746  -0.45361  -0.44753
 Alpha  occ. eigenvalues --   -0.37987  -0.37257  -0.37067  -0.36328
 Alpha virt. eigenvalues --    0.04397   0.05116   0.10536   0.11328   0.15886
 Alpha virt. eigenvalues --    0.16549   0.19293   0.21972   0.25082   0.27314
 Alpha virt. eigenvalues --    0.28247   0.29281   0.30424   0.30949   0.32254

 Mulliken charges:
               1
     1  C   -0.170532
     2  C   -0.217699
     3  C   -0.170441
     4  C    0.159590
     5  C   -0.178522
     6  C   -0.219051
     7  H    0.228338
     8  H    0.226159
     9  H    0.277672
    10  H    0.272678
    11  H    0.223637
    12  N    0.487396
    13  O   -0.460247
    14  O   -0.457920
    15  C   -0.168665
    16  C   -0.214758
    17  C   -0.169916
    18  C    0.158989
    19  C   -0.169981
    20  C   -0.218044
    21  H    0.227403
    22  H    0.216261
    23  H    0.270409
    24  H    0.276061
    25  H    0.224313
    26  N    0.488382
    27  O   -0.459803
    28  O   -0.461707
 Sum of Mulliken charges =  -0.00000

 Dipole moment (field-independent basis, Debye):
    X=              4.5176    Y=              2.0618    Z=              5.7181  Tot=              7.5734
 Quadrupole moment (field-independent basis, Debye-Ang):
   XX=           -109.6825   YY=           -105.9905   ZZ=           -106.9556
   XY=             26.2864   XZ=             -6.3666   YZ=             -2.6562

 Normal termination of Gaussian 16 at Thu May  6 09:50:14 2021.
