 Gaussian 16, Revision A.03,
 Gaussian 16:  EM64L-G16RevA.03 25-Dec-2016

 -------------
 #p 6-31g* mp2
 -------------

 ------------------------------------------------------
 Input file generated by CHIRIPA (05-May-2021 14:51:13)
 ------------------------------------------------------
 Symbolic Z-matrix:
 Charge =  0 Multiplicity = 1

                         Standard orientation:
 ---------------------------------------------------------------------
 Center     Atomic      Atomic             Coordinates (Angstroms)
 Number     Number       Type             X           Y           Z
 ---------------------------------------------------------------------
      1          6           0       -3.753075   -0.500254   -0.332788
      2          6           0       -4.460258    0.667353    0.356103
      3          6           0       -5.742212    1.089093   -0.362593
      4          1           0       -3.518861   -0.219099   -1.368665
      5          1           0       -4.441254   -1.355038   -0.388892
      6          1           0       -3.770486    1.519229    0.412130
      7          1           0       -4.692644    0.383456    1.390518
      8          1           0       -6.451402    0.256164   -0.405935
      9          1           0       -5.524005    1.398390   -1.389882
     10          1           0       -6.231540    1.925149    0.146747
     11          6           0       -2.469837   -0.933350    0.373934
     12          6           0       -1.762654   -2.100957   -0.314957
     13          6           0       -0.480700   -2.522697    0.403739
     14          1           0       -1.781657   -0.078566    0.430038
     15          1           0       -2.704051   -1.214505    1.409811
     16          1           0       -1.530267   -1.817060   -1.349372
     17          1           0       -2.452425   -2.952833   -0.370984
     18          1           0       -0.698907   -2.831994    1.431028
     19          1           0        0.228491   -1.689768    0.447081
     20          1           0        0.008629   -3.358753   -0.105601
     21          6           0        2.981787    1.417009   -0.296848
     22          6           0        1.954637    2.208099    0.513784
     23          6           0        1.705958    3.606886   -0.051326
     24          1           0        3.927020    1.976218   -0.324540
     25          1           0        2.635271    1.337176   -1.336534
     26          1           0        2.302323    2.285228    1.551947
     27          1           0        1.011798    1.646852    0.539710
     28          1           0        1.335502    3.546619   -1.079787
     29          1           0        2.633359    4.188623   -0.061800
     30          1           0        0.968444    4.154858    0.543365
     31          6           0        3.241124    0.016594    0.255702
     32          6           0        4.268275   -0.774495   -0.554930
     33          6           0        4.516953   -2.173281    0.010181
     34          1           0        3.587641    0.096428    1.295389
     35          1           0        2.295891   -0.542614    0.283394
     36          1           0        5.211113   -0.213248   -0.580857
     37          1           0        3.920588   -0.851624   -1.593093
     38          1           0        3.589552   -2.755019    0.020654
     39          1           0        4.887409   -2.113016    1.038640
     40          1           0        5.254468   -2.721254   -0.584512
 ---------------------------------------------------------------------

 SCF Done:  E(RHF) =  -470.733408477     A.U. after   11 cycles
 E2 =    -0.1583060847D+01 EUMP2 =    -0.47231646932435D+03

 The electronic state is 1-A.
 Alpha  occ. eigenvalues --  -11.21657 -11.21645 -11.21623 -11.21586 -11.21450
 Alpha  occ. eigenvalues --  -11.21412 -11.21388 -11.21342 -11.21125 -11.21106
 Alpha  occ. eigenvalues --  -11.21087 -11.21033  -1.08474  -1.08438  -1.03571
 Alpha  occ. eigenvalues --   -1.03534  -0.96027  -0.95978  -0.87047  -0.86991
 Alpha  occ. eigenvalues --   -0.79646  -0.79588  -0.78316  -0.78222  -0.65184
 Alpha  occ. eigenvalues --   -0.65005  -0.60995  -0.60910  -0.59391  -0.59347
 Alpha  occ. eigenvalues --   -0.57667  -0.57562  -0.55411  -0.55182  -0.52715
 Alpha  occ. eigenvalues --   -0.52678  -0.52502  -0.52355  -0.50074  -0.49836
 Alpha  occ. eigenvalues --   -0.47982  -0.47901  -0.46762  -0.46619  -0.45964
 Alpha  occ. eigenvalues --   -0.45788  -0.45754  -0.45412  -0.43825  -0.43790
 Alpha virt. eigenvalues --    0.20159   0.23084   0.23873   0.24157   0.25415
 Alpha virt. eigenvalues --    0.26852   0.27097   0.27358   0.27727   0.29395
 Alpha virt. eigenvalues --    0.30613   0.31440   0.31700   0.31734   0.31870

 Mulliken charges:
               1
     1  C   -0.298316
     2  C   -0.299747
     3  C   -0.475735
     4  H    0.149633
     5  H    0.149735
     6  H    0.152093
     7  H    0.152052
     8  H    0.155205
     9  H    0.155213
    10  H    0.160387
    11  C   -0.299667
    12  C   -0.299186
    13  C   -0.484217
    14  H    0.150091
    15  H    0.150119
    16  H    0.151693
    17  H    0.152356
    18  H    0.156169
    19  H    0.162016
    20  H    0.160219
    21  C   -0.297659
    22  C   -0.301029
    23  C   -0.475713
    24  H    0.149920
    25  H    0.149160
    26  H    0.152487
    27  H    0.151627
    28  H    0.155008
    29  H    0.155528
    30  H    0.160330
    31  C   -0.308254
    32  C   -0.298855
    33  C   -0.476456
    34  H    0.149716
    35  H    0.158970
    36  H    0.151837
    37  H    0.151645
    38  H    0.156509
    39  H    0.155131
    40  H    0.159984
 Sum of Mulliken charges =  -0.00000

 Dipole moment (field-independent basis, Debye):
    X=             -0.0118    Y=             -0.0079    Z=              0.0126  Tot=              0.0190
 Quadrupole moment (field-independent basis, Debye-Ang):
   XX=            -84.8654   YY=            -85.4390   ZZ=            -84.3545
   XY=              1.3663   XZ=             -0.3189   YZ=              0.2963

 Normal termination of Gaussian 16 at Wed May  5 18:22:02 2021.
