 Gaussian 16, Revision A.03,
 Gaussian 16:  EM64L-G16RevA.03 25-Dec-2016

 -------------
 #p 6-31g* mp2
 -------------

 ------------------------------------------------------
 Input file generated by CHIRIPA (05-May-2021 14:53:16)
 ------------------------------------------------------
 Symbolic Z-matrix:
 Charge =  0 Multiplicity = 1

                         Standard orientation:
 ---------------------------------------------------------------------
 Center     Atomic      Atomic             Coordinates (Angstroms)
 Number     Number       Type             X           Y           Z
 ---------------------------------------------------------------------
      1          6           0       -2.229207    1.331483   -0.377052
      2          6           0       -2.223445    2.469231    0.644457
      3          6           0       -1.696682    3.782065    0.064128
      4          1           0       -1.209059    1.182995   -0.756780
      5          1           0       -2.843964    1.625177   -1.239150
      6          1           0       -1.610008    2.172928    1.504989
      7          1           0       -3.243692    2.614901    1.021939
      8          1           0       -2.312928    4.104191   -0.781494
      9          1           0       -0.669962    3.659707   -0.295699
     10          1           0       -1.701268    4.581766    0.811335
     11          6           0       -2.753167    0.012498    0.188166
     12          6           0       -2.758928   -1.125251   -0.833343
     13          6           0       -3.285692   -2.438085   -0.253014
     14          1           0       -2.138409   -0.281196    1.050264
     15          1           0       -3.773315    0.160986    0.567895
     16          1           0       -1.738682   -1.270920   -1.210825
     17          1           0       -3.372365   -0.828948   -1.693875
     18          1           0       -4.312411   -2.315726    0.106813
     19          1           0       -2.669445   -2.760210    0.592608
     20          1           0       -3.281106   -3.237786   -1.000220
     21          6           0        3.332398    1.496950   -0.523075
     22          6           0        2.992162    1.250546    0.811108
     23          6           0        2.224551    0.133335    1.153399
     24          6           0        1.812231   -0.720466    0.131485
     25          6           0        2.134997   -0.502023   -1.206944
     26          6           0        2.903486    0.621422   -1.526074
     27          1           0        3.929038    2.367247   -0.779979
     28          1           0        3.323871    1.928780    1.592141
     29          1           0        1.946839   -0.081294    2.178205
     30          1           0        1.789699   -1.196157   -1.963492
     31          1           0        3.166219    0.810280   -2.563065
     32          7           0        0.999131   -1.906507    0.481594
     33          8           0        0.648232   -2.643479   -0.437307
     34          8           0        0.728119   -2.076696    1.668280
 ---------------------------------------------------------------------

 SCF Done:  E(RHF) =  -669.536808968     A.U. after   15 cycles
 E2 =    -0.2093305446D+01 EUMP2 =    -0.67163011441366D+03

 The electronic state is 1-A.
 Alpha  occ. eigenvalues --  -20.61083 -20.61078 -15.86082 -11.31386 -11.27936
 Alpha  occ. eigenvalues --  -11.27928 -11.27653 -11.26929 -11.26919 -11.21433
 Alpha  occ. eigenvalues --  -11.21077 -11.21040 -11.20704 -11.20602 -11.19823
 Alpha  occ. eigenvalues --   -1.60123  -1.39681  -1.19540  -1.08948  -1.07918
 Alpha  occ. eigenvalues --   -1.04927  -1.02936  -0.95795  -0.95395  -0.86417
 Alpha  occ. eigenvalues --   -0.86328  -0.82627  -0.79070  -0.77708  -0.77640
 Alpha  occ. eigenvalues --   -0.72303  -0.71454  -0.70639  -0.65193  -0.64924
 Alpha  occ. eigenvalues --   -0.64540  -0.62272  -0.60315  -0.58843  -0.56984
 Alpha  occ. eigenvalues --   -0.55428  -0.54694  -0.53251  -0.53014  -0.52093
 Alpha  occ. eigenvalues --   -0.51820  -0.49365  -0.49074  -0.49039  -0.47364
 Alpha  occ. eigenvalues --   -0.46161  -0.45525  -0.45185  -0.44569  -0.43205
 Alpha  occ. eigenvalues --   -0.37505  -0.36520
 Alpha virt. eigenvalues --    0.04804   0.11095   0.16261   0.21219   0.22977
 Alpha virt. eigenvalues --    0.24839   0.26758   0.27115   0.27961   0.28252
 Alpha virt. eigenvalues --    0.28542   0.30800   0.31763   0.32074   0.32632

 Mulliken charges:
               1
     1  C   -0.298437
     2  C   -0.298086
     3  C   -0.475439
     4  H    0.145575
     5  H    0.148032
     6  H    0.150018
     7  H    0.152713
     8  H    0.155146
     9  H    0.151810
    10  H    0.158156
    11  C   -0.302900
    12  C   -0.303330
    13  C   -0.475246
    14  H    0.154784
    15  H    0.147987
    16  H    0.158436
    17  H    0.145200
    18  H    0.147325
    19  H    0.170043
    20  H    0.159742
    21  C   -0.170658
    22  C   -0.218337
    23  C   -0.171261
    24  C    0.159161
    25  C   -0.171823
    26  C   -0.218364
    27  H    0.226625
    28  H    0.224451
    29  H    0.276029
    30  H    0.276472
    31  H    0.224519
    32  N    0.488208
    33  O   -0.457258
    34  O   -0.459296
 Sum of Mulliken charges =  -0.00000

 Dipole moment (field-independent basis, Debye):
    X=              3.0775    Y=              3.9906    Z=             -1.1748  Tot=              5.1746
 Quadrupole moment (field-independent basis, Debye-Ang):
   XX=            -84.6737   YY=           -102.0900   ZZ=            -90.4575
   XY=              5.3499   XZ=             -1.5700   YZ=              3.0056

 Normal termination of Gaussian 16 at Thu May  6 20:28:54 2021.
