 Gaussian 16, Revision A.03,
 Gaussian 16:  EM64L-G16RevA.03 25-Dec-2016

 -------------
 #p 6-31g* mp2
 -------------

 ------------------------------------------------------
 Input file generated by CHIRIPA (05-May-2021 14:57:27)
 ------------------------------------------------------
 Symbolic Z-matrix:
 Charge =  0 Multiplicity = 1

                         Standard orientation:
 ---------------------------------------------------------------------
 Center     Atomic      Atomic             Coordinates (Angstroms)
 Number     Number       Type             X           Y           Z
 ---------------------------------------------------------------------
      1          6           0       -1.349418   -1.092548    0.671938
      2          6           0       -2.527140   -1.659268    1.170257
      3          6           0       -3.774462   -1.163770    0.778828
      4          6           0       -3.807285   -0.095768   -0.116485
      5          6           0       -2.651591    0.490234   -0.630551
      6          6           0       -1.415287   -0.021494   -0.225294
      7          1           0       -0.384748   -1.483767    0.981381
      8          1           0       -2.479019   -2.491145    1.867186
      9          1           0       -4.701831   -1.583654    1.149099
     10          1           0       -2.731529    1.318629   -1.323942
     11          1           0       -0.502290    0.420605   -0.613921
     12          7           0       -5.121937    0.437385   -0.538193
     13          8           0       -5.123864    1.379022   -1.328100
     14          8           0       -6.125541   -0.096463   -0.070837
     15          6           0        2.629960    2.304017    1.020153
     16          6           0        2.060811    1.066771    1.339233
     17          6           0        2.584814   -0.114530    0.805851
     18          6           0        3.683486   -0.021352   -0.047100
     19          6           0        4.272720    1.196272   -0.383974
     20          6           0        3.732156    2.364712    0.161082
     21          1           0        2.216469    3.216684    1.439032
     22          1           0        1.204782    1.016610    2.006125
     23          1           0        2.163765   -1.085666    1.036137
     24          1           0        5.125537    1.214401   -1.051652
     25          1           0        4.176216    3.324180   -0.088474
     26          7           0        4.246992   -1.265135   -0.617947
     27          8           0        5.215359   -1.156134   -1.366961
     28          8           0        3.709631   -2.325460   -0.305555
 ---------------------------------------------------------------------

 SCF Done:  E(RHF) =  -868.337387918     A.U. after   16 cycles
 E2 =    -0.2600921459D+01 EUMP2 =    -0.87093830937687D+03

 The electronic state is 1-A.
 Alpha  occ. eigenvalues --  -20.61630 -20.61610 -20.61047 -20.61041 -15.86681
 Alpha  occ. eigenvalues --  -15.86099 -11.32193 -11.31536 -11.28869 -11.28686
 Alpha  occ. eigenvalues --  -11.28440 -11.28084 -11.28077 -11.27910 -11.27820
 Alpha  occ. eigenvalues --  -11.27705 -11.27138 -11.27102  -1.60694  -1.60120
 Alpha  occ. eigenvalues --   -1.40246  -1.39671  -1.20362  -1.19707  -1.09704
 Alpha  occ. eigenvalues --   -1.09108  -1.05794  -1.05104  -0.96528  -0.95931
 Alpha  occ. eigenvalues --   -0.87156  -0.86506  -0.83362  -0.82749  -0.78411
 Alpha  occ. eigenvalues --   -0.77769  -0.72893  -0.72317  -0.72022  -0.71480
 Alpha  occ. eigenvalues --   -0.71443  -0.70827  -0.66001  -0.65757  -0.65360
 Alpha  occ. eigenvalues --   -0.65105  -0.63126  -0.62435  -0.56235  -0.55647
 Alpha  occ. eigenvalues --   -0.54123  -0.53861  -0.53426  -0.53158  -0.49662
 Alpha  occ. eigenvalues --   -0.49641  -0.49080  -0.49068  -0.45620  -0.45061
 Alpha  occ. eigenvalues --   -0.38315  -0.37752  -0.37375  -0.36687
 Alpha virt. eigenvalues --    0.04105   0.04728   0.10131   0.11003   0.15534
 Alpha virt. eigenvalues --    0.16167   0.18853   0.21782   0.24655   0.26935
 Alpha virt. eigenvalues --    0.27139   0.29357   0.29888   0.30701   0.32190

 Mulliken charges:
               1
     1  C   -0.176450
     2  C   -0.218540
     3  C   -0.170934
     4  C    0.159333
     5  C   -0.171524
     6  C   -0.223604
     7  H    0.222916
     8  H    0.225767
     9  H    0.276902
    10  H    0.276020
    11  H    0.227976
    12  N    0.487903
    13  O   -0.459972
    14  O   -0.459178
    15  C   -0.172045
    16  C   -0.223041
    17  C   -0.182215
    18  C    0.161548
    19  C   -0.169924
    20  C   -0.217817
    21  H    0.230376
    22  H    0.226950
    23  H    0.271955
    24  H    0.279096
    25  H    0.227910
    26  N    0.488088
    27  O   -0.456145
    28  O   -0.461353
 Sum of Mulliken charges =  -0.00000

 Dipole moment (field-independent basis, Debye):
    X=              2.8140    Y=              2.6483    Z=              3.4331  Tot=              5.1689
 Quadrupole moment (field-independent basis, Debye-Ang):
   XX=           -150.7169   YY=           -101.3039   ZZ=           -103.6094
   XY=             27.5482   XZ=             -2.3157   YZ=             -3.8398

 Normal termination of Gaussian 16 at Thu May  6 05:14:03 2021.
