 Gaussian 16, Revision A.03,
 Gaussian 16:  EM64L-G16RevA.03 25-Dec-2016

 -------------
 #p 6-31g* mp2
 -------------

 ------------------------------------------------------
 Input file generated by CHIRIPA (05-May-2021 14:53:14)
 ------------------------------------------------------
 Symbolic Z-matrix:
 Charge =  0 Multiplicity = 1

                         Standard orientation:
 ---------------------------------------------------------------------
 Center     Atomic      Atomic             Coordinates (Angstroms)
 Number     Number       Type             X           Y           Z
 ---------------------------------------------------------------------
      1          6           0        3.742458    0.313377    0.011922
      2          6           0        3.552029    1.755379   -0.459620
      3          6           0        2.093939    2.210937   -0.394560
      4          1           0        3.121171   -0.351894   -0.603190
      5          1           0        3.373954    0.220418    1.042921
      6          1           0        3.922053    1.845915   -1.488941
      7          1           0        4.173988    2.417273    0.156562
      8          1           0        1.716453    2.149194    0.631253
      9          1           0        1.463087    1.574590   -1.023599
     10          1           0        1.980652    3.244556   -0.736112
     11          6           0        5.194829   -0.156563   -0.047268
     12          6           0        5.385257   -1.598565    0.424274
     13          6           0        6.843348   -2.054123    0.359214
     14          1           0        5.563332   -0.063604   -1.078267
     15          1           0        5.816115    0.508708    0.567844
     16          1           0        4.763299   -2.260459   -0.191908
     17          1           0        5.015233   -1.689101    1.453594
     18          1           0        7.474199   -1.417776    0.988252
     19          1           0        7.220833   -1.992380   -0.666600
     20          1           0        6.956634   -3.087742    0.700766
     21          6           0       -5.590070   -1.460822   -0.025905
     22          6           0       -5.345793   -0.595643    1.045690
     23          6           0       -4.186150    0.184561    1.078204
     24          6           0       -3.288209    0.074050    0.017646
     25          6           0       -3.503348   -0.778659   -1.063970
     26          6           0       -4.669691   -1.549412   -1.075465
     27          1           0       -6.493510   -2.063232   -0.042999
     28          1           0       -6.058809   -0.524786    1.862165
     29          1           0       -3.972120    0.862551    1.895478
     30          1           0       -2.774007   -0.827612   -1.863396
     31          1           0       -4.856788   -2.220462   -1.908971
     32          7           0       -2.057001    0.895014    0.040941
     33          8           0       -1.281594    0.779349   -0.905633
     34          8           0       -1.890700    1.638607    1.005333
 ---------------------------------------------------------------------

 SCF Done:  E(RHF) =  -669.535983991     A.U. after   15 cycles
 E2 =    -0.2091044684D+01 EUMP2 =    -0.67162702867524D+03

 The electronic state is 1-A.
 Alpha  occ. eigenvalues --  -20.60921 -20.60914 -15.85952 -11.31287 -11.27851
 Alpha  occ. eigenvalues --  -11.27846 -11.27588 -11.26860 -11.26850 -11.20964
 Alpha  occ. eigenvalues --  -11.20565 -11.20559 -11.20301 -11.20223 -11.19047
 Alpha  occ. eigenvalues --   -1.59972  -1.39531  -1.19454  -1.08855  -1.07455
 Alpha  occ. eigenvalues --   -1.04853  -1.02446  -0.95697  -0.94854  -0.86253
 Alpha  occ. eigenvalues --   -0.85858  -0.82530  -0.78553  -0.77580  -0.77201
 Alpha  occ. eigenvalues --   -0.72172  -0.71289  -0.70563  -0.65110  -0.64855
 Alpha  occ. eigenvalues --   -0.64100  -0.62200  -0.59849  -0.58340  -0.56465
 Alpha  occ. eigenvalues --   -0.55356  -0.54138  -0.53183  -0.52945  -0.51553
 Alpha  occ. eigenvalues --   -0.51291  -0.49061  -0.48917  -0.48649  -0.46776
 Alpha  occ. eigenvalues --   -0.45608  -0.44952  -0.44706  -0.44623  -0.42715
 Alpha  occ. eigenvalues --   -0.37434  -0.36454
 Alpha virt. eigenvalues --    0.04951   0.11201   0.16447   0.21334   0.23751
 Alpha virt. eigenvalues --    0.25458   0.27249   0.27588   0.28193   0.28413
 Alpha virt. eigenvalues --    0.29279   0.30906   0.32352   0.32574   0.32663

 Mulliken charges:
               1
     1  C   -0.296806
     2  C   -0.300747
     3  C   -0.478182
     4  H    0.149837
     5  H    0.148874
     6  H    0.146361
     7  H    0.146103
     8  H    0.159105
     9  H    0.175534
    10  H    0.153177
    11  C   -0.297303
    12  C   -0.298727
    13  C   -0.475072
    14  H    0.147562
    15  H    0.147962
    16  H    0.150506
    17  H    0.150999
    18  H    0.154447
    19  H    0.154169
    20  H    0.157801
    21  C   -0.170635
    22  C   -0.218569
    23  C   -0.170626
    24  C    0.157975
    25  C   -0.170806
    26  C   -0.218522
    27  H    0.225944
    28  H    0.223787
    29  H    0.275854
    30  H    0.275518
    31  H    0.223749
    32  N    0.489975
    33  O   -0.460249
    34  O   -0.458993
 Sum of Mulliken charges =  -0.00000

 Dipole moment (field-independent basis, Debye):
    X=             -4.7359    Y=             -2.8867    Z=             -0.0883  Tot=              5.5470
 Quadrupole moment (field-independent basis, Debye-Ang):
   XX=            -68.9594   YY=            -95.5517   ZZ=            -90.2083
   XY=              9.2731   XZ=             -1.1236   YZ=              2.4066

 Normal termination of Gaussian 16 at Wed May  5 15:35:50 2021.
