 Gaussian 16, Revision A.03,
 Gaussian 16:  EM64L-G16RevA.03 25-Dec-2016

 -------------
 #p 6-31g* mp2
 -------------

 ------------------------------------------------------
 Input file generated by CHIRIPA (05-May-2021 14:57:24)
 ------------------------------------------------------
 Symbolic Z-matrix:
 Charge =  0 Multiplicity = 1

                         Standard orientation:
 ---------------------------------------------------------------------
 Center     Atomic      Atomic             Coordinates (Angstroms)
 Number     Number       Type             X           Y           Z
 ---------------------------------------------------------------------
      1          6           0        5.696883   -1.301705   -0.053625
      2          6           0        4.411608   -1.789844   -0.311136
      3          6           0        3.315903   -0.922139   -0.343795
      4          6           0        3.542721    0.433890   -0.113513
      5          6           0        4.811197    0.950661    0.145728
      6          6           0        5.892231    0.064580    0.173585
      7          1           0        6.542354   -1.982897   -0.030120
      8          1           0        4.256922   -2.850435   -0.487951
      9          1           0        2.310233   -1.273192   -0.540789
     10          1           0        4.934027    2.013013    0.318178
     11          1           0        6.889275    0.446489    0.373819
     12          7           0        2.390513    1.362216   -0.145546
     13          8           0        2.616824    2.552572    0.060548
     14          8           0        1.282919    0.881906   -0.376141
     15          6           0       -5.737496    1.188997   -0.322840
     16          6           0       -5.820431   -0.189979   -0.542082
     17          6           0       -4.715893   -1.014046   -0.306587
     18          6           0       -3.538795   -0.422994    0.149909
     19          6           0       -3.424892    0.947547    0.377804
     20          6           0       -4.542098    1.752365    0.135594
     21          1           0       -6.600448    1.821676   -0.508386
     22          1           0       -6.747506   -0.630251   -0.898084
     23          1           0       -4.752506   -2.084575   -0.467970
     24          1           0       -2.487186    1.357434    0.732933
     25          1           0       -4.474796    2.822986    0.306735
     26          7           0       -2.362764   -1.285207    0.402770
     27          8           0       -1.337182   -0.740008    0.804734
     28          8           0       -2.488842   -2.489883    0.194211
 ---------------------------------------------------------------------

 SCF Done:  E(RHF) =  -868.338065283     A.U. after   16 cycles
 E2 =    -0.2599330080D+01 EUMP2 =    -0.87093739536288D+03

 The electronic state is 1-A.
 Alpha  occ. eigenvalues --  -20.60106 -20.60074 -20.59988 -20.59970 -15.85078
 Alpha  occ. eigenvalues --  -15.85057 -11.30477 -11.30460 -11.27121 -11.27102
 Alpha  occ. eigenvalues --  -11.26970 -11.26952 -11.26863 -11.26846 -11.26146
 Alpha  occ. eigenvalues --  -11.26129 -11.26056 -11.26040  -1.59127  -1.59102
 Alpha  occ. eigenvalues --   -1.38677  -1.38635  -1.18670  -1.18653  -1.08075
 Alpha  occ. eigenvalues --   -1.08054  -1.04074  -1.04057  -0.94914  -0.94855
 Alpha  occ. eigenvalues --   -0.85473  -0.85456  -0.81770  -0.81643  -0.76789
 Alpha  occ. eigenvalues --   -0.76679  -0.71452  -0.71143  -0.70451  -0.70394
 Alpha  occ. eigenvalues --   -0.69788  -0.69761  -0.64339  -0.64287  -0.64089
 Alpha  occ. eigenvalues --   -0.64067  -0.61407  -0.61387  -0.54607  -0.54589
 Alpha  occ. eigenvalues --   -0.52414  -0.52397  -0.52167  -0.52147  -0.48147
 Alpha  occ. eigenvalues --   -0.48129  -0.48033  -0.47968  -0.44152  -0.43927
 Alpha  occ. eigenvalues --   -0.36679  -0.36659  -0.35679  -0.35663
 Alpha virt. eigenvalues --    0.05701   0.05868   0.11973   0.11988   0.17171
 Alpha virt. eigenvalues --    0.17325   0.22048   0.22132   0.27990   0.28027
 Alpha virt. eigenvalues --    0.28938   0.29102   0.31571   0.31653   0.33235

 Mulliken charges:
               1
     1  C   -0.171158
     2  C   -0.219513
     3  C   -0.170507
     4  C    0.157081
     5  C   -0.171768
     6  C   -0.219215
     7  H    0.223325
     8  H    0.224035
     9  H    0.286467
    10  H    0.272964
    11  H    0.220557
    12  N    0.487708
    13  O   -0.468752
    14  O   -0.451395
    15  C   -0.171126
    16  C   -0.219221
    17  C   -0.171814
    18  C    0.157135
    19  C   -0.169873
    20  C   -0.219482
    21  H    0.223365
    22  H    0.220540
    23  H    0.272818
    24  H    0.286238
    25  H    0.223926
    26  N    0.487409
    27  O   -0.450220
    28  O   -0.469523
 Sum of Mulliken charges =  -0.00000

 Dipole moment (field-independent basis, Debye):
    X=             -0.0970    Y=             -0.2151    Z=             -0.7459  Tot=              0.7823
 Quadrupole moment (field-independent basis, Debye-Ang):
   XX=            -46.7342   YY=           -105.1102   ZZ=           -106.2451
   XY=            -14.8491   XZ=              4.0129   YZ=              3.5213

 Normal termination of Gaussian 16 at Thu May  6 18:01:34 2021.
