 Gaussian 16, Revision A.03,
 Gaussian 16:  EM64L-G16RevA.03 25-Dec-2016

 -------------
 #p 6-31g* mp2
 -------------

 ------------------------------------------------------
 Input file generated by CHIRIPA (05-May-2021 14:57:23)
 ------------------------------------------------------
 Symbolic Z-matrix:
 Charge =  0 Multiplicity = 1

                         Standard orientation:
 ---------------------------------------------------------------------
 Center     Atomic      Atomic             Coordinates (Angstroms)
 Number     Number       Type             X           Y           Z
 ---------------------------------------------------------------------
      1          6           0        1.653111    0.354121    0.145487
      2          6           0        2.444894    1.248283   -0.582574
      3          6           0        3.827387    1.061035   -0.673128
      4          6           0        4.387456   -0.035965   -0.020284
      5          6           0        3.625316   -0.944336    0.712719
      6          6           0        2.244806   -0.737411    0.789675
      7          1           0        0.579928    0.507223    0.210550
      8          1           0        1.988100    2.096858   -1.083878
      9          1           0        4.463947    1.737828   -1.230047
     10          1           0        4.109372   -1.780999    1.201700
     11          1           0        1.632369   -1.433448    1.355801
     12          7           0        5.849990   -0.244612   -0.108951
     13          8           0        6.319179   -1.218870    0.475275
     14          8           0        6.499440    0.570059   -0.760996
     15          6           0       -3.628411    2.431966    0.442488
     16          6           0       -2.611186    1.474862    0.518160
     17          6           0       -2.886699    0.125418    0.278076
     18          6           0       -4.196491   -0.233384   -0.036559
     19          6           0       -5.231585    0.696661   -0.119548
     20          6           0       -4.933065    2.040501    0.124435
     21          1           0       -3.405450    3.478069    0.630505
     22          1           0       -1.597057    1.775991    0.764955
     23          1           0       -2.118263   -0.636312    0.329956
     24          1           0       -6.232838    0.366051   -0.367756
     25          1           0       -5.725053    2.781623    0.064965
     26          7           0       -4.500343   -1.659013   -0.292789
     27          8           0       -5.662446   -1.949426   -0.568135
     28          8           0       -3.570646   -2.459014   -0.213425
 ---------------------------------------------------------------------

 SCF Done:  E(RHF) =  -868.336412969     A.U. after   16 cycles
 E2 =    -0.2599920677D+01 EUMP2 =    -0.87093633364584D+03

 The electronic state is 1-A.
 Alpha  occ. eigenvalues --  -20.61495 -20.61481 -20.61047 -20.61040 -15.86552
 Alpha  occ. eigenvalues --  -15.86102 -11.32053 -11.31586 -11.28749 -11.28584
 Alpha  occ. eigenvalues --  -11.28391 -11.28160 -11.28127 -11.28072 -11.27798
 Alpha  occ. eigenvalues --  -11.27599 -11.27274 -11.27217  -1.60563  -1.60117
 Alpha  occ. eigenvalues --   -1.40114  -1.39667  -1.20242  -1.19776  -1.09600
 Alpha  occ. eigenvalues --   -1.09182  -1.05692  -1.05185  -0.96416  -0.95995
 Alpha  occ. eigenvalues --   -0.87070  -0.86595  -0.83276  -0.82807  -0.78303
 Alpha  occ. eigenvalues --   -0.77808  -0.72767  -0.72320  -0.71887  -0.71440
 Alpha  occ. eigenvalues --   -0.71360  -0.70973  -0.65902  -0.65714  -0.65441
 Alpha  occ. eigenvalues --   -0.65200  -0.63055  -0.62520  -0.56182  -0.55772
 Alpha  occ. eigenvalues --   -0.53974  -0.53790  -0.53513  -0.53287  -0.49535
 Alpha  occ. eigenvalues --   -0.49514  -0.49089  -0.49066  -0.45490  -0.45046
 Alpha  occ. eigenvalues --   -0.38197  -0.37807  -0.37289  -0.36769
 Alpha virt. eigenvalues --    0.04267   0.04702   0.10371   0.10871   0.15676
 Alpha virt. eigenvalues --    0.16119   0.17523   0.22066   0.24660   0.26136
 Alpha virt. eigenvalues --    0.27536   0.29373   0.29859   0.31105   0.32862

 Mulliken charges:
               1
     1  C   -0.174809
     2  C   -0.219259
     3  C   -0.170212
     4  C    0.159396
     5  C   -0.169857
     6  C   -0.218502
     7  H    0.219595
     8  H    0.222037
     9  H    0.276801
    10  H    0.278170
    11  H    0.226562
    12  N    0.487870
    13  O   -0.458479
    14  O   -0.459540
    15  C   -0.169812
    16  C   -0.221637
    17  C   -0.171431
    18  C    0.159681
    19  C   -0.169308
    20  C   -0.218102
    21  H    0.228133
    22  H    0.217221
    23  H    0.269620
    24  H    0.278640
    25  H    0.226889
    26  N    0.488366
    27  O   -0.457085
    28  O   -0.460948
 Sum of Mulliken charges =  -0.00000

 Dipole moment (field-independent basis, Debye):
    X=             -4.1854    Y=              5.7246    Z=              1.1902  Tot=              7.1906
 Quadrupole moment (field-independent basis, Debye-Ang):
   XX=           -152.6494   YY=           -104.1324   ZZ=           -104.5978
   XY=            -19.3748   XZ=             -1.6386   YZ=             -3.4117

 Normal termination of Gaussian 16 at Wed May  5 21:00:25 2021.
