 Gaussian 16, Revision A.03,
 Gaussian 16:  EM64L-G16RevA.03 25-Dec-2016

 -------------
 #p 6-31g* mp2
 -------------

 ------------------------------------------------------
 Input file generated by CHIRIPA (05-May-2021 14:53:14)
 ------------------------------------------------------
 Symbolic Z-matrix:
 Charge =  0 Multiplicity = 1

                         Standard orientation:
 ---------------------------------------------------------------------
 Center     Atomic      Atomic             Coordinates (Angstroms)
 Number     Number       Type             X           Y           Z
 ---------------------------------------------------------------------
      1          6           0       -2.272589    1.286801   -0.149875
      2          6           0       -1.351360    1.787335   -1.262885
      3          6           0       -0.790619    3.182106   -0.983640
      4          1           0       -3.100510    1.997280   -0.020610
      5          1           0       -1.718170    1.276944    0.798765
      6          1           0       -1.906945    1.794931   -2.209396
      7          1           0       -0.525640    1.075483   -1.389646
      8          1           0       -0.212868    3.185956   -0.053700
      9          1           0       -1.602022    3.909492   -0.878108
     10          1           0       -0.134767    3.520352   -1.791914
     11          6           0       -2.841047   -0.106222   -0.414581
     12          6           0       -3.762276   -0.606756    0.698428
     13          6           0       -4.323017   -2.001527    0.419184
     14          1           0       -3.395466   -0.096366   -1.363221
     15          1           0       -2.013126   -0.816702   -0.543847
     16          1           0       -4.587996    0.105095    0.825190
     17          1           0       -3.206691   -0.614353    1.644940
     18          1           0       -3.511614   -2.728913    0.313651
     19          1           0       -4.900768   -2.005378   -0.510756
     20          1           0       -4.978869   -2.339774    1.227458
     21          6           0        2.240541    1.895054    1.089458
     22          6           0        3.243661    1.336715    0.290378
     23          6           0        3.119612    0.032115   -0.196634
     24          6           0        1.974020   -0.688954    0.136482
     25          6           0        0.957305   -0.160511    0.930415
     26          6           0        1.102571    1.145979    1.406368
     27          1           0        2.345146    2.909232    1.463484
     28          1           0        4.128515    1.916121    0.042654
     29          1           0        3.880946   -0.424699   -0.817206
     30          1           0        0.086742   -0.762701    1.160429
     31          1           0        0.321936    1.577016    2.026739
     32          7           0        1.831463   -2.071075   -0.373241
     33          8           0        0.812482   -2.685562   -0.065473
     34          8           0        2.741408   -2.513725   -1.070878
 ---------------------------------------------------------------------

 SCF Done:  E(RHF) =  -669.532802983     A.U. after   15 cycles
 E2 =    -0.2097177635D+01 EUMP2 =    -0.67162998061771D+03

 The electronic state is 1-A.
 Alpha  occ. eigenvalues --  -20.60916 -20.60910 -15.85958 -11.31311 -11.27865
 Alpha  occ. eigenvalues --  -11.27851 -11.27593 -11.26871 -11.26845 -11.21805
 Alpha  occ. eigenvalues --  -11.21738 -11.21726 -11.21457 -11.21399 -11.20915
 Alpha  occ. eigenvalues --   -1.59981  -1.39536  -1.19495  -1.08900  -1.08646
 Alpha  occ. eigenvalues --   -1.04905  -1.03671  -0.96161  -0.95707  -0.87161
 Alpha  occ. eigenvalues --   -0.86298  -0.82562  -0.79771  -0.78474  -0.77602
 Alpha  occ. eigenvalues --   -0.72178  -0.71304  -0.70603  -0.65450  -0.65109
 Alpha  occ. eigenvalues --   -0.64916  -0.62189  -0.61134  -0.59510  -0.57754
 Alpha  occ. eigenvalues --   -0.55563  -0.55303  -0.53141  -0.52999  -0.52803
 Alpha  occ. eigenvalues --   -0.52534  -0.50103  -0.48935  -0.48934  -0.48051
 Alpha  occ. eigenvalues --   -0.46816  -0.46003  -0.45915  -0.44914  -0.43956
 Alpha  occ. eigenvalues --   -0.37387  -0.36390
 Alpha virt. eigenvalues --    0.04881   0.11005   0.16294   0.19614   0.22837
 Alpha virt. eigenvalues --    0.24194   0.25280   0.26734   0.27048   0.28660
 Alpha virt. eigenvalues --    0.29882   0.30468   0.31212   0.31623   0.32326

 Mulliken charges:
               1
     1  C   -0.298925
     2  C   -0.300670
     3  C   -0.475002
     4  H    0.150900
     5  H    0.135420
     6  H    0.154750
     7  H    0.157213
     8  H    0.147719
     9  H    0.153923
    10  H    0.160343
    11  C   -0.306949
    12  C   -0.298599
    13  C   -0.477792
    14  H    0.153145
    15  H    0.159879
    16  H    0.151366
    17  H    0.144776
    18  H    0.164636
    19  H    0.155772
    20  H    0.159498
    21  C   -0.169115
    22  C   -0.218576
    23  C   -0.171190
    24  C    0.157424
    25  C   -0.172685
    26  C   -0.216937
    27  H    0.226814
    28  H    0.224155
    29  H    0.276011
    30  H    0.278961
    31  H    0.226117
    32  N    0.488545
    33  O   -0.461804
    34  O   -0.459122
 Sum of Mulliken charges =  -0.00000

 Dipole moment (field-independent basis, Debye):
    X=              0.5825    Y=              4.7249    Z=              1.6955  Tot=              5.0536
 Quadrupole moment (field-independent basis, Debye-Ang):
   XX=            -88.4015   YY=           -103.0897   ZZ=            -93.6353
   XY=              9.4043   XZ=              1.9442   YZ=             -0.9579

 Normal termination of Gaussian 16 at Wed May  5 18:36:14 2021.
