 Gaussian 16, Revision A.03,
 Gaussian 16:  EM64L-G16RevA.03 25-Dec-2016

 -------------
 #p 6-31g* mp2
 -------------

 ------------------------------------------------------
 Input file generated by CHIRIPA (05-May-2021 14:51:14)
 ------------------------------------------------------
 Symbolic Z-matrix:
 Charge =  0 Multiplicity = 1

                         Standard orientation:
 ---------------------------------------------------------------------
 Center     Atomic      Atomic             Coordinates (Angstroms)
 Number     Number       Type             X           Y           Z
 ---------------------------------------------------------------------
      1          6           0        2.986685   -0.026219   -0.047190
      2          6           0        2.114283   -0.829814    0.917763
      3          6           0        0.631962   -0.793386    0.544681
      4          1           0        2.637479    1.015234   -0.066570
      5          1           0        2.853939   -0.419385   -1.064635
      6          1           0        2.249690   -0.436142    1.933294
      7          1           0        2.465727   -1.869433    0.934993
      8          1           0        0.476770   -1.205318   -0.457730
      9          1           0        0.259505    0.236116    0.546243
     10          1           0        0.026666   -1.374219    1.247610
     11          6           0        4.471130   -0.053050    0.312574
     12          6           0        5.343532    0.750545   -0.652380
     13          6           0        6.825853    0.714117   -0.279297
     14          1           0        4.603876    0.340116    1.330018
     15          1           0        4.820336   -1.094504    0.331953
     16          1           0        4.992088    1.790163   -0.669609
     17          1           0        5.208125    0.356873   -1.667911
     18          1           0        7.198310   -0.315386   -0.280860
     19          1           0        6.981045    1.126049    0.723114
     20          1           0        7.431149    1.294949   -0.982227
     21          6           0       -3.628152    0.759486   -0.367413
     22          6           0       -4.448120    1.776671    0.426926
     23          6           0       -4.235864    3.212302   -0.054431
     24          1           0       -2.563129    1.018776   -0.293665
     25          1           0       -3.895073    0.833928   -1.430713
     26          1           0       -4.180735    1.699378    1.488597
     27          1           0       -5.511300    1.514820    0.351436
     28          1           0       -4.520931    3.311895   -1.106770
     29          1           0       -3.182806    3.497502    0.036853
     30          1           0       -4.831437    3.922913    0.527107
     31          6           0       -3.829663   -0.680217    0.102030
     32          6           0       -3.009695   -1.697401   -0.692309
     33          6           0       -3.221952   -3.133033   -0.210954
     34          1           0       -3.562742   -0.754658    1.165329
     35          1           0       -4.894687   -0.939506    0.028282
     36          1           0       -1.946515   -1.435550   -0.616819
     37          1           0       -3.277079   -1.620108   -1.753981
     38          1           0       -4.275009   -3.418232   -0.302236
     39          1           0       -2.936884   -3.232625    0.841387
     40          1           0       -2.626377   -3.843643   -0.792490
 ---------------------------------------------------------------------

 SCF Done:  E(RHF) =  -470.732989892     A.U. after   11 cycles
 E2 =    -0.1583089623D+01 EUMP2 =    -0.47231607951467D+03

 The electronic state is 1-A.
 Alpha  occ. eigenvalues --  -11.21675 -11.21633 -11.21549 -11.21456 -11.21398
 Alpha  occ. eigenvalues --  -11.21394 -11.21314 -11.21249 -11.21196 -11.21095
 Alpha  occ. eigenvalues --  -11.21039 -11.20984  -1.08487  -1.08334  -1.03602
 Alpha  occ. eigenvalues --   -1.03435  -0.96055  -0.95900  -0.87089  -0.86908
 Alpha  occ. eigenvalues --   -0.79718  -0.79464  -0.78309  -0.78127  -0.65116
 Alpha  occ. eigenvalues --   -0.64971  -0.61041  -0.60821  -0.59405  -0.59267
 Alpha  occ. eigenvalues --   -0.57657  -0.57513  -0.55389  -0.55143  -0.52774
 Alpha  occ. eigenvalues --   -0.52601  -0.52478  -0.52320  -0.50047  -0.49800
 Alpha  occ. eigenvalues --   -0.48043  -0.47790  -0.46764  -0.46438  -0.45928
 Alpha  occ. eigenvalues --   -0.45758  -0.45666  -0.45474  -0.43816  -0.43691
 Alpha virt. eigenvalues --    0.21304   0.22937   0.23882   0.24644   0.25478
 Alpha virt. eigenvalues --    0.26505   0.26928   0.27669   0.27916   0.29350
 Alpha virt. eigenvalues --    0.30112   0.30685   0.31788   0.31876   0.32336

 Mulliken charges:
               1
     1  C   -0.298602
     2  C   -0.300365
     3  C   -0.479241
     4  H    0.149647
     5  H    0.149861
     6  H    0.152077
     7  H    0.152533
     8  H    0.156594
     9  H    0.156216
    10  H    0.161356
    11  C   -0.298362
    12  C   -0.299684
    13  C   -0.475744
    14  H    0.149610
    15  H    0.149791
    16  H    0.152007
    17  H    0.152038
    18  H    0.155239
    19  H    0.155220
    20  H    0.160387
    21  C   -0.300155
    22  C   -0.299564
    23  C   -0.475547
    24  H    0.151322
    25  H    0.149232
    26  H    0.151731
    27  H    0.151851
    28  H    0.155143
    29  H    0.154713
    30  H    0.160044
    31  C   -0.297083
    32  C   -0.310985
    33  C   -0.475087
    34  H    0.148878
    35  H    0.148964
    36  H    0.167049
    37  H    0.150516
    38  H    0.154728
    39  H    0.154253
    40  H    0.159420
 Sum of Mulliken charges =  -0.00000

 Dipole moment (field-independent basis, Debye):
    X=              0.0780    Y=              0.0029    Z=              0.0006  Tot=              0.0781
 Quadrupole moment (field-independent basis, Debye-Ang):
   XX=            -85.6114   YY=            -85.3790   ZZ=            -84.1100
   XY=             -0.2306   XZ=              0.2792   YZ=              0.8003

 Normal termination of Gaussian 16 at Thu May  6 00:51:16 2021.
