 Gaussian 16, Revision A.03,
 Gaussian 16:  EM64L-G16RevA.03 25-Dec-2016

 -------------
 #p 6-31g* mp2
 -------------

 ------------------------------------------------------
 Input file generated by CHIRIPA (05-May-2021 14:57:25)
 ------------------------------------------------------
 Symbolic Z-matrix:
 Charge =  0 Multiplicity = 1

                         Standard orientation:
 ---------------------------------------------------------------------
 Center     Atomic      Atomic             Coordinates (Angstroms)
 Number     Number       Type             X           Y           Z
 ---------------------------------------------------------------------
      1          6           0       -4.957777    0.778352    0.414072
      2          6           0       -4.311874    1.109722   -0.781555
      3          6           0       -3.062212    0.563239   -1.088558
      4          6           0       -2.484774   -0.315203   -0.173028
      5          6           0       -3.103172   -0.664849    1.026398
      6          6           0       -4.352431   -0.106316    1.312648
      7          1           0       -5.928388    1.207554    0.644498
      8          1           0       -4.779618    1.796493   -1.481275
      9          1           0       -2.540001    0.802574   -2.006943
     10          1           0       -2.611873   -1.352355    1.704172
     11          1           0       -4.851724   -0.365466    2.241946
     12          7           0       -1.162026   -0.900118   -0.487053
     13          8           0       -0.674434   -1.671579    0.336196
     14          8           0       -0.637895   -0.576039   -1.550489
     15          6           0        2.731399   -2.296202   -0.078382
     16          6           0        2.707319   -1.694450    1.184090
     17          6           0        2.691301   -0.301876    1.306677
     18          6           0        2.700013    0.461943    0.140575
     19          6           0        2.723900   -0.107957   -1.131406
     20          6           0        2.739598   -1.502434   -1.230070
     21          1           0        2.743717   -3.378726   -0.164319
     22          1           0        2.700901   -2.308401    2.080231
     23          1           0        2.672569    0.190134    2.271557
     24          1           0        2.729770    0.530404   -2.006551
     25          1           0        2.758289   -1.967020   -2.211832
     26          7           0        2.683224    1.937206    0.257689
     27          8           0        2.691344    2.587890   -0.784991
     28          8           0        2.662264    2.414901    1.389946
 ---------------------------------------------------------------------

 SCF Done:  E(RHF) =  -868.338082798     A.U. after   16 cycles
 E2 =    -0.2602021712D+01 EUMP2 =    -0.87094010451068D+03

 The electronic state is 1-A.
 Alpha  occ. eigenvalues --  -20.61104 -20.61098 -20.59626 -20.59616 -15.86136
 Alpha  occ. eigenvalues --  -15.84661 -11.31332 -11.29545 -11.27903 -11.27863
 Alpha  occ. eigenvalues --  -11.27594 -11.26872 -11.26840 -11.26141 -11.26062
 Alpha  occ. eigenvalues --  -11.25750 -11.25046 -11.24943  -1.60167  -1.58712
 Alpha  occ. eigenvalues --   -1.39730  -1.38277  -1.19488  -1.17670  -1.08917
 Alpha  occ. eigenvalues --   -1.07165  -1.04867  -1.03028  -0.95783  -0.94093
 Alpha  occ. eigenvalues --   -0.86275  -0.84490  -0.82627  -0.80968  -0.77691
 Alpha  occ. eigenvalues --   -0.76064  -0.72384  -0.71488  -0.70904  -0.70601
 Alpha  occ. eigenvalues --   -0.70024  -0.68869  -0.65149  -0.64875  -0.63367
 Alpha  occ. eigenvalues --   -0.63115  -0.62221  -0.60455  -0.55391  -0.53615
 Alpha  occ. eigenvalues --   -0.53209  -0.52962  -0.51605  -0.51200  -0.49136
 Alpha  occ. eigenvalues --   -0.48767  -0.47673  -0.47613  -0.45202  -0.43788
 Alpha  occ. eigenvalues --   -0.37454  -0.36459  -0.35542  -0.34454
 Alpha virt. eigenvalues --    0.04790   0.06506   0.11198   0.13086   0.16373
 Alpha virt. eigenvalues --    0.18112   0.21338   0.22913   0.27250   0.28215
 Alpha virt. eigenvalues --    0.28781   0.29756   0.30900   0.32389   0.32422

 Mulliken charges:
               1
     1  C   -0.169902
     2  C   -0.218056
     3  C   -0.169306
     4  C    0.158746
     5  C   -0.170412
     6  C   -0.218207
     7  H    0.226627
     8  H    0.224994
     9  H    0.276473
    10  H    0.273322
    11  H    0.223608
    12  N    0.488675
    13  O   -0.461992
    14  O   -0.461543
    15  C   -0.156933
    16  C   -0.207629
    17  C   -0.173266
    18  C    0.151178
    19  C   -0.156154
    20  C   -0.205459
    21  H    0.219333
    22  H    0.215282
    23  H    0.267255
    24  H    0.270019
    25  H    0.218033
    26  N    0.487778
    27  O   -0.464850
    28  O   -0.467614
 Sum of Mulliken charges =  -0.00000

 Dipole moment (field-independent basis, Debye):
    X=             -4.9458    Y=             -3.3520    Z=              0.4992  Tot=              5.9955
 Quadrupole moment (field-independent basis, Debye-Ang):
   XX=            -83.2949   YY=           -111.1954   ZZ=            -97.0143
   XY=            -18.6066   XZ=             -3.7342   YZ=             -4.6479

 Normal termination of Gaussian 16 at Thu May  6 11:26:25 2021.
