 Gaussian 16, Revision A.03,
 Gaussian 16:  EM64L-G16RevA.03 25-Dec-2016

 -------------
 #p 6-31g* mp2
 -------------

 ------------------------------------------------------
 Input file generated by CHIRIPA (05-May-2021 14:57:26)
 ------------------------------------------------------
 Symbolic Z-matrix:
 Charge =  0 Multiplicity = 1

                         Standard orientation:
 ---------------------------------------------------------------------
 Center     Atomic      Atomic             Coordinates (Angstroms)
 Number     Number       Type             X           Y           Z
 ---------------------------------------------------------------------
      1          6           0       -1.420591    2.087431   -1.262900
      2          6           0       -1.095064    0.731186   -1.368510
      3          6           0       -1.913198   -0.242645   -0.788114
      4          6           0       -3.054378    0.177092   -0.106338
      5          6           0       -3.405530    1.520584    0.016176
      6          6           0       -2.572754    2.477114   -0.572111
      7          1           0       -0.779358    2.837206   -1.716830
      8          1           0       -0.200904    0.425641   -1.904387
      9          1           0       -1.684852   -1.299458   -0.854617
     10          1           0       -4.303450    1.794483    0.556673
     11          1           0       -2.828043    3.529673   -0.488493
     12          7           0       -3.928250   -0.844701    0.512279
     13          8           0       -4.928078   -0.449007    1.107599
     14          8           0       -3.596815   -2.021929    0.390117
     15          6           0        4.097172    1.792774    0.828928
     16          6           0        4.583778    0.999897   -0.215620
     17          6           0        3.934264   -0.186865   -0.568150
     18          6           0        2.795616   -0.552216    0.148292
     19          6           0        2.286343    0.216367    1.193859
     20          6           0        2.952026    1.399172    1.529101
     21          1           0        4.608011    2.713142    1.096066
     22          1           0        5.472901    1.303094   -0.761126
     23          1           0        4.289400   -0.819548   -1.372518
     24          1           0        1.397791   -0.111997    1.719283
     25          1           0        2.571860    2.012953    2.340759
     26          7           0        2.099445   -1.806492   -0.215763
     27          8           0        1.098178   -2.106313    0.430927
     28          8           0        2.568237   -2.466024   -1.140906
 ---------------------------------------------------------------------

 SCF Done:  E(RHF) =  -868.338372691     A.U. after   16 cycles
 E2 =    -0.2600276405D+01 EUMP2 =    -0.87093864909595D+03

 The electronic state is 1-A.
 Alpha  occ. eigenvalues --  -20.61450 -20.61443 -20.60283 -20.60238 -15.86478
 Alpha  occ. eigenvalues --  -15.85319 -11.31789 -11.30749 -11.28361 -11.28316
 Alpha  occ. eigenvalues --  -11.28077 -11.27434 -11.27343 -11.27311 -11.27221
 Alpha  occ. eigenvalues --  -11.27213 -11.26469 -11.26372  -1.60528  -1.59342
 Alpha  occ. eigenvalues --   -1.40074  -1.38888  -1.19960  -1.18973  -1.09366
 Alpha  occ. eigenvalues --   -1.08372  -1.05336  -1.04374  -0.96202  -0.95174
 Alpha  occ. eigenvalues --   -0.86736  -0.85775  -0.83021  -0.81997  -0.78081
 Alpha  occ. eigenvalues --   -0.77009  -0.72680  -0.71877  -0.71533  -0.71043
 Alpha  occ. eigenvalues --   -0.70672  -0.70075  -0.65598  -0.65322  -0.64621
 Alpha  occ. eigenvalues --   -0.64387  -0.62668  -0.61682  -0.55836  -0.54924
 Alpha  occ. eigenvalues --   -0.53703  -0.53413  -0.52729  -0.52453  -0.49451
 Alpha  occ. eigenvalues --   -0.49441  -0.48315  -0.48273  -0.45481  -0.44276
 Alpha  occ. eigenvalues --   -0.37961  -0.37084  -0.36880  -0.35958
 Alpha virt. eigenvalues --    0.04388   0.05514   0.10662   0.11694   0.15885
 Alpha virt. eigenvalues --    0.16953   0.20912   0.21703   0.26845   0.27379
 Alpha virt. eigenvalues --    0.27825   0.28727   0.30518   0.31180   0.32023

 Mulliken charges:
               1
     1  C   -0.172079
     2  C   -0.224193
     3  C   -0.167841
     4  C    0.155033
     5  C   -0.171820
     6  C   -0.220843
     7  H    0.222056
     8  H    0.222506
     9  H    0.291550
    10  H    0.274003
    11  H    0.220180
    12  N    0.487565
    13  O   -0.464499
    14  O   -0.453898
    15  C   -0.171242
    16  C   -0.219379
    17  C   -0.172815
    18  C    0.153268
    19  C   -0.169715
    20  C   -0.219787
    21  H    0.227019
    22  H    0.224810
    23  H    0.276409
    24  H    0.279648
    25  H    0.225713
    26  N    0.485390
    27  O   -0.458287
    28  O   -0.458754
 Sum of Mulliken charges =  -0.00000

 Dipole moment (field-independent basis, Debye):
    X=              5.6895    Y=              7.7927    Z=             -0.8233  Tot=              9.6837
 Quadrupole moment (field-independent basis, Debye-Ang):
   XX=           -106.8007   YY=           -106.7014   ZZ=           -101.9080
   XY=             -1.8800   XZ=              6.5971   YZ=              1.4229

 Normal termination of Gaussian 16 at Thu May  6 16:28:57 2021.
