 Gaussian 16, Revision A.03,
 Gaussian 16:  EM64L-G16RevA.03 25-Dec-2016

 -------------
 #p 6-31g* mp2
 -------------

 ------------------------------------------------------
 Input file generated by CHIRIPA (05-May-2021 14:53:16)
 ------------------------------------------------------
 Symbolic Z-matrix:
 Charge =  0 Multiplicity = 1

                         Standard orientation:
 ---------------------------------------------------------------------
 Center     Atomic      Atomic             Coordinates (Angstroms)
 Number     Number       Type             X           Y           Z
 ---------------------------------------------------------------------
      1          6           0       -2.590129   -0.453838   -0.135898
      2          6           0       -3.498271   -1.582261   -0.625717
      3          6           0       -2.874835   -2.965886   -0.439430
      4          1           0       -1.633464   -0.501973   -0.673874
      5          1           0       -2.359605   -0.613125    0.926590
      6          1           0       -3.728138   -1.420141   -1.686611
      7          1           0       -4.452958   -1.531317   -0.086649
      8          1           0       -2.661150   -3.152955    0.617899
      9          1           0       -1.932212   -3.041148   -0.991153
     10          1           0       -3.540902   -3.757679   -0.796192
     11          6           0       -3.199547    0.935444   -0.315442
     12          6           0       -2.291405    2.063867    0.174378
     13          6           0       -2.914841    3.447492   -0.011910
     14          1           0       -3.430072    1.094731   -1.377930
     15          1           0       -4.156213    0.983579    0.222535
     16          1           0       -1.336719    2.012923   -0.364690
     17          1           0       -2.061538    1.901747    1.235271
     18          1           0       -3.857465    3.522754    0.539813
     19          1           0       -3.128527    3.634561   -1.069239
     20          1           0       -2.248775    4.239285    0.344853
     21          6           0        3.564023    0.385252   -1.907163
     22          6           0        2.414132   -0.406181   -1.996094
     23          6           0        1.684662   -0.730148   -0.848286
     24          6           0        2.135679   -0.243559    0.377726
     25          6           0        3.277379    0.547095    0.498867
     26          6           0        3.991222    0.858530   -0.662162
     27          1           0        4.124623    0.632050   -2.803943
     28          1           0        2.080015   -0.775127   -2.961647
     29          1           0        0.790959   -1.340970   -0.888426
     30          1           0        3.585703    0.900210    1.475423
     31          1           0        4.883874    1.473365   -0.590086
     32          7           0        1.371692   -0.579896    1.599857
     33          8           0        1.789926   -0.138827    2.668115
     34          8           0        0.369113   -1.278216    1.466364
 ---------------------------------------------------------------------

 SCF Done:  E(RHF) =  -669.535390557     A.U. after   15 cycles
 E2 =    -0.2093031045D+01 EUMP2 =    -0.67162842160202D+03

 The electronic state is 1-A.
 Alpha  occ. eigenvalues --  -20.60861 -20.60836 -15.85883 -11.31251 -11.27810
 Alpha  occ. eigenvalues --  -11.27806 -11.27554 -11.26832 -11.26822 -11.21157
 Alpha  occ. eigenvalues --  -11.21050 -11.20861 -11.20746 -11.20566 -11.20519
 Alpha  occ. eigenvalues --   -1.59916  -1.39471  -1.19418  -1.08815  -1.07865
 Alpha  occ. eigenvalues --   -1.04821  -1.03034  -0.95658  -0.95465  -0.86489
 Alpha  occ. eigenvalues --   -0.86219  -0.82491  -0.79101  -0.77829  -0.77345
 Alpha  occ. eigenvalues --   -0.72107  -0.71225  -0.70530  -0.65073  -0.64856
 Alpha  occ. eigenvalues --   -0.64488  -0.62172  -0.60443  -0.58838  -0.57073
 Alpha  occ. eigenvalues --   -0.55325  -0.54764  -0.53147  -0.52920  -0.52204
 Alpha  occ. eigenvalues --   -0.51884  -0.49422  -0.48891  -0.48874  -0.47405
 Alpha  occ. eigenvalues --   -0.46137  -0.45477  -0.45114  -0.44482  -0.43255
 Alpha  occ. eigenvalues --   -0.37393  -0.36416
 Alpha virt. eigenvalues --    0.04969   0.11148   0.16461   0.20482   0.23184
 Alpha virt. eigenvalues --    0.24054   0.26023   0.27620   0.27722   0.28426
 Alpha virt. eigenvalues --    0.29203   0.30744   0.31501   0.32211   0.32391

 Mulliken charges:
               1
     1  C   -0.298826
     2  C   -0.300874
     3  C   -0.472984
     4  H    0.139294
     5  H    0.172006
     6  H    0.145540
     7  H    0.151486
     8  H    0.166640
     9  H    0.146104
    10  H    0.156281
    11  C   -0.298265
    12  C   -0.300014
    13  C   -0.475100
    14  H    0.144056
    15  H    0.149258
    16  H    0.146461
    17  H    0.158750
    18  H    0.155612
    19  H    0.152383
    20  H    0.158792
    21  C   -0.170534
    22  C   -0.219820
    23  C   -0.173239
    24  C    0.157740
    25  C   -0.170554
    26  C   -0.218482
    27  H    0.225845
    28  H    0.223777
    29  H    0.280415
    30  H    0.275738
    31  H    0.223702
    32  N    0.488985
    33  O   -0.460386
    34  O   -0.459789
 Sum of Mulliken charges =  -0.00000

 Dipole moment (field-independent basis, Debye):
    X=              2.7919    Y=              1.1201    Z=             -4.0505  Tot=              5.0454
 Quadrupole moment (field-independent basis, Debye-Ang):
   XX=            -81.6745   YY=            -96.0924   ZZ=            -96.1446
   XY=              4.4693   XZ=             -7.4203   YZ=              2.9680

 Normal termination of Gaussian 16 at Wed May  5 15:42:56 2021.
