 Gaussian 16, Revision A.03,
 Gaussian 16:  EM64L-G16RevA.03 25-Dec-2016

 -------------
 #p 6-31g* mp2
 -------------

 ------------------------------------------------------
 Input file generated by CHIRIPA (05-May-2021 14:55:23)
 ------------------------------------------------------
 Symbolic Z-matrix:
 Charge =  0 Multiplicity = 1

                         Standard orientation:
 ---------------------------------------------------------------------
 Center     Atomic      Atomic             Coordinates (Angstroms)
 Number     Number       Type             X           Y           Z
 ---------------------------------------------------------------------
      1          6           0        5.563134    1.438869   -0.500762
      2          6           0        4.638138    1.924273    0.429446
      3          6           0        3.509219    1.171893    0.767107
      4          6           0        3.335804   -0.067276    0.152552
      5          6           0        4.239429   -0.578139   -0.777917
      6          6           0        5.361183    0.191412   -1.100418
      7          1           0        6.437322    2.030005   -0.757177
      8          1           0        4.792406    2.892722    0.896729
      9          1           0        2.777261    1.523637    1.483997
     10          1           0        4.058560   -1.547147   -1.227059
     11          1           0        6.077884   -0.188079   -1.823170
     12          7           0        2.144461   -0.872876    0.501994
     13          8           0        2.014551   -1.961538   -0.053502
     14          8           0        1.363154   -0.400389    1.324765
     15          6           0       -4.898185    0.560720   -0.282263
     16          6           0       -6.393185    0.482380    0.028896
     17          6           0       -7.133797    1.779476   -0.297953
     18          1           0       -4.455052    1.390596    0.285085
     19          1           0       -4.764287    0.802496   -1.345753
     20          1           0       -6.524216    0.239461    1.091175
     21          1           0       -6.832774   -0.347526   -0.539112
     22          1           0       -7.032693    2.023591   -1.360397
     23          1           0       -6.722382    2.613914    0.279154
     24          1           0       -8.200950    1.701375   -0.067856
     25          6           0       -4.144125   -0.728390    0.039166
     26          6           0       -2.649124   -0.650051   -0.271993
     27          6           0       -1.908513   -1.947148    0.054856
     28          1           0       -4.278024   -0.970166    1.102655
     29          1           0       -4.587258   -1.558267   -0.528182
     30          1           0       -2.209536    0.179855    0.296015
     31          1           0       -2.518094   -0.407132   -1.334273
     32          1           0       -2.319928   -2.781585   -0.522252
     33          1           0       -2.009617   -2.191262    1.117299
     34          1           0       -0.841360   -1.869046   -0.175241
 ---------------------------------------------------------------------

 SCF Done:  E(RHF) =  -669.536630332     A.U. after   15 cycles
 E2 =    -0.2091504959D+01 EUMP2 =    -0.67162813529094D+03

 The electronic state is 1-A.
 Alpha  occ. eigenvalues --  -20.61065 -20.61056 -15.86062 -11.31356 -11.27909
 Alpha  occ. eigenvalues --  -11.27906 -11.27641 -11.26906 -11.26897 -11.20967
 Alpha  occ. eigenvalues --  -11.20587 -11.20571 -11.20326 -11.20198 -11.19097
 Alpha  occ. eigenvalues --   -1.60101  -1.39657  -1.19516  -1.08927  -1.07469
 Alpha  occ. eigenvalues --   -1.04905  -1.02448  -0.95774  -0.94868  -0.86307
 Alpha  occ. eigenvalues --   -0.85885  -0.82607  -0.78571  -0.77668  -0.77232
 Alpha  occ. eigenvalues --   -0.72265  -0.71413  -0.70624  -0.65169  -0.64908
 Alpha  occ. eigenvalues --   -0.64114  -0.62252  -0.59857  -0.58328  -0.56468
 Alpha  occ. eigenvalues --   -0.55407  -0.54182  -0.53240  -0.52996  -0.51552
 Alpha  occ. eigenvalues --   -0.51321  -0.49047  -0.48988  -0.48800  -0.46834
 Alpha  occ. eigenvalues --   -0.45645  -0.45082  -0.44765  -0.44676  -0.42642
 Alpha  occ. eigenvalues --   -0.37491  -0.36503
 Alpha virt. eigenvalues --    0.04829   0.11153   0.16337   0.21292   0.23737
 Alpha virt. eigenvalues --    0.25497   0.27214   0.27537   0.28165   0.28397
 Alpha virt. eigenvalues --    0.29216   0.30856   0.32374   0.32429   0.32607

 Mulliken charges:
               1
     1  C   -0.170396
     2  C   -0.218620
     3  C   -0.170698
     4  C    0.160160
     5  C   -0.170664
     6  C   -0.218609
     7  H    0.226239
     8  H    0.224054
     9  H    0.275940
    10  H    0.276063
    11  H    0.224066
    12  N    0.487436
    13  O   -0.459081
    14  O   -0.458245
    15  C   -0.297146
    16  C   -0.298831
    17  C   -0.475076
    18  H    0.148115
    19  H    0.147075
    20  H    0.151361
    21  H    0.150938
    22  H    0.153885
    23  H    0.154023
    24  H    0.158312
    25  C   -0.297039
    26  C   -0.300392
    27  C   -0.480209
    28  H    0.148697
    29  H    0.146897
    30  H    0.154086
    31  H    0.144796
    32  H    0.144180
    33  H    0.153713
    34  H    0.184970
 Sum of Mulliken charges =  -0.00000

 Dipole moment (field-independent basis, Debye):
    X=              4.6605    Y=              2.8307    Z=             -1.1557  Tot=              5.5740
 Quadrupole moment (field-independent basis, Debye-Ang):
   XX=            -68.5494   YY=            -93.7155   ZZ=            -92.8545
   XY=              8.8507   XZ=             -4.8812   YZ=              3.6223

 Normal termination of Gaussian 16 at Thu May  6 20:51:41 2021.
