 Gaussian 16, Revision A.03,
 Gaussian 16:  EM64L-G16RevA.03 25-Dec-2016

 -------------
 #p 6-31g* mp2
 -------------

 ------------------------------------------------------
 Input file generated by CHIRIPA (05-May-2021 14:57:22)
 ------------------------------------------------------
 Symbolic Z-matrix:
 Charge =  0 Multiplicity = 1

                         Standard orientation:
 ---------------------------------------------------------------------
 Center     Atomic      Atomic             Coordinates (Angstroms)
 Number     Number       Type             X           Y           Z
 ---------------------------------------------------------------------
      1          6           0        2.385855    1.804720    0.116937
      2          6           0        3.670592    2.119324   -0.338030
      3          6           0        4.672658    1.144811   -0.365126
      4          6           0        4.353767   -0.139912    0.072009
      5          6           0        3.083280   -0.484296    0.530869
      6          6           0        2.096809    0.506203    0.549173
      7          1           0        1.613483    2.567954    0.134571
      8          1           0        3.897927    3.126935   -0.674310
      9          1           0        5.675666    1.361071   -0.712437
     10          1           0        2.886782   -1.497525    0.859766
     11          1           0        1.099947    0.259015    0.903021
     12          7           0        5.406355   -1.180047    0.047978
     13          8           0        5.099982   -2.304466    0.438432
     14          8           0        6.517816   -0.851191   -0.360857
     15          6           0       -6.458168   -1.105317    0.079375
     16          6           0       -5.360396   -1.852786   -0.359606
     17          6           0       -4.093641   -1.268168   -0.449604
     18          6           0       -3.960071    0.072297   -0.090988
     19          6           0       -5.034472    0.843318    0.350009
     20          6           0       -6.291996    0.237981    0.432160
     21          1           0       -7.438629   -1.567511    0.146240
     22          1           0       -5.486489   -2.896204   -0.634243
     23          1           0       -3.226719   -1.823627   -0.786247
     24          1           0       -4.877598    1.881399    0.616834
     25          1           0       -7.142753    0.820909    0.773415
     26          7           0       -2.623900    0.702173   -0.182110
     27          8           0       -2.532548    1.884853    0.139696
     28          8           0       -1.693262    0.001263   -0.573614
 ---------------------------------------------------------------------

 SCF Done:  E(RHF) =  -868.340577208     A.U. after   16 cycles
 E2 =    -0.2598098823D+01 EUMP2 =    -0.87093867603136D+03

 The electronic state is 1-A.
 Alpha  occ. eigenvalues --  -20.61831 -20.61825 -20.59937 -20.59932 -15.86842
 Alpha  occ. eigenvalues --  -15.84979 -11.31895 -11.30097 -11.28428 -11.28417
 Alpha  occ. eigenvalues --  -11.28105 -11.27368 -11.27353 -11.26663 -11.26570
 Alpha  occ. eigenvalues --  -11.26177 -11.25618 -11.25374  -1.60897  -1.59018
 Alpha  occ. eigenvalues --   -1.40454  -1.38578  -1.20038  -1.18215  -1.09493
 Alpha  occ. eigenvalues --   -1.07628  -1.05391  -1.03574  -0.96378  -0.94518
 Alpha  occ. eigenvalues --   -0.86803  -0.84961  -0.83218  -0.81363  -0.78302
 Alpha  occ. eigenvalues --   -0.76466  -0.73073  -0.72192  -0.71204  -0.71138
 Alpha  occ. eigenvalues --   -0.70337  -0.69268  -0.65692  -0.65389  -0.63848
 Alpha  occ. eigenvalues --   -0.63529  -0.62740  -0.60924  -0.55901  -0.53995
 Alpha  occ. eigenvalues --   -0.53739  -0.53476  -0.51926  -0.51643  -0.49844
 Alpha  occ. eigenvalues --   -0.49808  -0.47974  -0.47932  -0.45921  -0.44041
 Alpha  occ. eigenvalues --   -0.37998  -0.36980  -0.36142  -0.35178
 Alpha virt. eigenvalues --    0.04188   0.06044   0.10680   0.12488   0.15745
 Alpha virt. eigenvalues --    0.17632   0.20863   0.22773   0.26797   0.27714
 Alpha virt. eigenvalues --    0.28636   0.29619   0.30474   0.31899   0.32426

 Mulliken charges:
               1
     1  C   -0.171922
     2  C   -0.219530
     3  C   -0.173321
     4  C    0.157672
     5  C   -0.174162
     6  C   -0.216640
     7  H    0.233897
     8  H    0.219780
     9  H    0.271415
    10  H    0.271618
    11  H    0.237411
    12  N    0.488265
    13  O   -0.463517
    14  O   -0.463719
    15  C   -0.169599
    16  C   -0.218525
    17  C   -0.170642
    18  C    0.157333
    19  C   -0.170498
    20  C   -0.218558
    21  H    0.228222
    22  H    0.226168
    23  H    0.276445
    24  H    0.275658
    25  H    0.225455
    26  N    0.488670
    27  O   -0.462561
    28  O   -0.464815
 Sum of Mulliken charges =  -0.00000

 Dipole moment (field-independent basis, Debye):
    X=             -9.0804    Y=              1.4699    Z=              0.4169  Tot=              9.2080
 Quadrupole moment (field-independent basis, Debye-Ang):
   XX=            -98.4232   YY=           -100.7076   ZZ=           -105.2521
   XY=             26.1401   XZ=             -2.8605   YZ=              0.8092

 Normal termination of Gaussian 16 at Fri May  7 01:45:42 2021.
