 Gaussian 16, Revision A.03,
 Gaussian 16:  EM64L-G16RevA.03 25-Dec-2016

 -------------
 #p 6-31g* mp2
 -------------

 ------------------------------------------------------
 Input file generated by CHIRIPA (05-May-2021 14:53:18)
 ------------------------------------------------------
 Symbolic Z-matrix:
 Charge =  0 Multiplicity = 1

                         Standard orientation:
 ---------------------------------------------------------------------
 Center     Atomic      Atomic             Coordinates (Angstroms)
 Number     Number       Type             X           Y           Z
 ---------------------------------------------------------------------
      1          6           0       -3.244783   -0.433048   -0.033267
      2          6           0       -2.615257   -1.825989    0.004101
      3          6           0       -1.097232   -1.793671   -0.175762
      4          1           0       -2.997557    0.048575   -0.989229
      5          1           0       -2.794383    0.186513    0.754564
      6          1           0       -3.067698   -2.443160   -0.782673
      7          1           0       -2.864171   -2.304427    0.960006
      8          1           0       -0.628021   -1.200801    0.616038
      9          1           0       -0.832704   -1.340322   -1.136543
     10          1           0       -0.667894   -2.799967   -0.145794
     11          6           0       -4.761897   -0.448899    0.145178
     12          6           0       -5.391424    0.944042    0.107809
     13          6           0       -6.909449    0.911724    0.287672
     14          1           0       -5.212297   -1.068460   -0.642654
     15          1           0       -5.009124   -0.930523    1.101139
     16          1           0       -5.142509    1.422479   -0.848096
     17          1           0       -4.938983    1.561212    0.894583
     18          1           0       -7.173977    0.458374    1.248453
     19          1           0       -7.378660    0.318853   -0.504128
     20          1           0       -7.338787    1.918019    0.257704
     21          6           0        4.173890   -1.938547    0.198908
     22          6           0        2.928580   -1.801768   -0.423198
     23          6           0        2.339389   -0.541681   -0.563130
     24          6           0        3.026459    0.565228   -0.067171
     25          6           0        4.268377    0.461422    0.557452
     26          6           0        4.838642   -0.808508    0.686389
     27          1           0        4.624236   -2.921237    0.303339
     28          1           0        2.410035   -2.677617   -0.802733
     29          1           0        1.376358   -0.407141   -1.040506
     30          1           0        4.761157    1.353004    0.925782
     31          1           0        5.805875   -0.911730    1.169969
     32          7           0        2.412727    1.904436   -0.209490
     33          8           0        3.038411    2.864011    0.235901
     34          8           0        1.317621    1.969175   -0.763735
 ---------------------------------------------------------------------

 SCF Done:  E(RHF) =  -669.535207510     A.U. after   15 cycles
 E2 =    -0.2091773944D+01 EUMP2 =    -0.67162698145437D+03

 The electronic state is 1-A.
 Alpha  occ. eigenvalues --  -20.60706 -20.60701 -15.85756 -11.31079 -11.27675
 Alpha  occ. eigenvalues --  -11.27586 -11.27415 -11.26684 -11.26647 -11.21803
 Alpha  occ. eigenvalues --  -11.21595 -11.21384 -11.21292 -11.21233 -11.20888
 Alpha  occ. eigenvalues --   -1.59782  -1.39336  -1.19264  -1.08670  -1.08390
 Alpha  occ. eigenvalues --   -1.04664  -1.03574  -0.96061  -0.95502  -0.87102
 Alpha  occ. eigenvalues --   -0.86058  -0.82337  -0.79664  -0.78157  -0.77370
 Alpha  occ. eigenvalues --   -0.71976  -0.71106  -0.70381  -0.65017  -0.64915
 Alpha  occ. eigenvalues --   -0.64676  -0.62033  -0.60969  -0.59434  -0.57634
 Alpha  occ. eigenvalues --   -0.55353  -0.55170  -0.53079  -0.52896  -0.52739
 Alpha  occ. eigenvalues --   -0.52271  -0.49996  -0.48733  -0.48731  -0.47934
 Alpha  occ. eigenvalues --   -0.46648  -0.45705  -0.45604  -0.44747  -0.43807
 Alpha  occ. eigenvalues --   -0.37258  -0.36241
 Alpha virt. eigenvalues --    0.05123   0.11363   0.16601   0.20790   0.22950
 Alpha virt. eigenvalues --    0.24156   0.25818   0.26758   0.27221   0.28111
 Alpha virt. eigenvalues --    0.29356   0.29665   0.31407   0.31748   0.32553

 Mulliken charges:
               1
     1  C   -0.299424
     2  C   -0.299626
     3  C   -0.482414
     4  H    0.154010
     5  H    0.154291
     6  H    0.151732
     7  H    0.152701
     8  H    0.162313
     9  H    0.152828
    10  H    0.154115
    11  C   -0.298725
    12  C   -0.300022
    13  C   -0.475813
    14  H    0.148350
    15  H    0.148601
    16  H    0.154089
    17  H    0.154190
    18  H    0.154363
    19  H    0.154313
    20  H    0.161031
    21  C   -0.170801
    22  C   -0.221672
    23  C   -0.172900
    24  C    0.157044
    25  C   -0.170705
    26  C   -0.219055
    27  H    0.225115
    28  H    0.224250
    29  H    0.283723
    30  H    0.275140
    31  H    0.222945
    32  N    0.487657
    33  O   -0.460863
    34  O   -0.460781
 Sum of Mulliken charges =  -0.00000

 Dipole moment (field-independent basis, Debye):
    X=              2.0422    Y=             -4.6507    Z=              0.5230  Tot=              5.1062
 Quadrupole moment (field-independent basis, Debye-Ang):
   XX=            -80.0393   YY=           -100.0729   ZZ=            -93.4795
   XY=            -11.4505   XZ=              3.7490   YZ=              1.7136

 Normal termination of Gaussian 16 at Thu May  6 12:19:28 2021.
