 Gaussian 16, Revision A.03,
 Gaussian 16:  EM64L-G16RevA.03 25-Dec-2016

 -------------
 #p 6-31g* mp2
 -------------

 ------------------------------------------------------
 Input file generated by CHIRIPA (05-May-2021 14:51:14)
 ------------------------------------------------------
 Symbolic Z-matrix:
 Charge =  0 Multiplicity = 1

                         Standard orientation:
 ---------------------------------------------------------------------
 Center     Atomic      Atomic             Coordinates (Angstroms)
 Number     Number       Type             X           Y           Z
 ---------------------------------------------------------------------
      1          6           0        2.886472   -1.099587    0.285917
      2          6           0        1.896835   -0.747467    1.397049
      3          6           0        0.973538   -1.911781    1.757176
      4          1           0        2.328940   -1.416720   -0.606008
      5          1           0        3.489070   -1.962674    0.601119
      6          1           0        1.297225    0.115564    1.080409
      7          1           0        2.456783   -0.430953    2.286370
      8          1           0        1.555791   -2.773917    2.098208
      9          1           0        0.389645   -2.224295    0.885394
     10          1           0        0.274311   -1.638203    2.553478
     11          6           0        3.816311    0.054262   -0.085242
     12          6           0        4.805949   -0.297858   -1.196374
     13          6           0        5.729245    0.866456   -1.556501
     14          1           0        3.213713    0.917349   -0.400444
     15          1           0        4.373843    0.371395    0.806683
     16          1           0        4.246000   -0.614372   -2.085695
     17          1           0        5.405558   -1.160889   -0.879733
     18          1           0        6.313139    1.178970   -0.684719
     19          1           0        5.146992    1.728592   -1.897533
     20          1           0        6.428472    0.592878   -2.352803
     21          6           0       -2.939731    0.754818    0.499722
     22          6           0       -1.889450    1.807525    0.143769
     23          6           0       -1.073968    2.262002    1.354650
     24          1           0       -3.613779    1.162812    1.265324
     25          1           0       -2.440339   -0.112607    0.953127
     26          1           0       -2.390529    2.672131   -0.310095
     27          1           0       -1.217940    1.397046   -0.621213
     28          1           0       -0.548181    1.414007    1.805268
     29          1           0       -1.727431    2.696338    2.118154
     30          1           0       -0.329163    3.014551    1.077531
     31          6           0       -3.763052    0.290506   -0.700397
     32          6           0       -4.813333   -0.762200   -0.344444
     33          6           0       -5.628816   -1.216676   -1.555325
     34          1           0       -4.262444    1.157932   -1.153802
     35          1           0       -3.089004   -0.117487   -1.465999
     36          1           0       -5.484843   -0.351721    0.420538
     37          1           0       -4.312255   -1.626807    0.109419
     38          1           0       -4.975352   -1.651012   -2.318829
     39          1           0       -6.154602   -0.368683   -2.005943
     40          1           0       -6.373620   -1.969227   -1.278207
 ---------------------------------------------------------------------

 SCF Done:  E(RHF) =  -470.733246685     A.U. after   11 cycles
 E2 =    -0.1582945959D+01 EUMP2 =    -0.47231619264415D+03

 The electronic state is 1-A.
 Alpha  occ. eigenvalues --  -11.21627 -11.21612 -11.21604 -11.21603 -11.21422
 Alpha  occ. eigenvalues --  -11.21412 -11.21362 -11.21352 -11.21141 -11.21078
 Alpha  occ. eigenvalues --  -11.21074 -11.21056  -1.08461  -1.08430  -1.03583
 Alpha  occ. eigenvalues --   -1.03515  -0.96021  -0.95977  -0.87036  -0.86993
 Alpha  occ. eigenvalues --   -0.79661  -0.79563  -0.78277  -0.78237  -0.65190
 Alpha  occ. eigenvalues --   -0.64980  -0.61158  -0.60762  -0.59389  -0.59340
 Alpha  occ. eigenvalues --   -0.57669  -0.57553  -0.55356  -0.55219  -0.52705
 Alpha  occ. eigenvalues --   -0.52681  -0.52432  -0.52412  -0.50070  -0.49839
 Alpha  occ. eigenvalues --   -0.47996  -0.47857  -0.46760  -0.46508  -0.45848
 Alpha  occ. eigenvalues --   -0.45775  -0.45736  -0.45608  -0.43808  -0.43793
 Alpha virt. eigenvalues --    0.20324   0.23242   0.23589   0.24897   0.26316
 Alpha virt. eigenvalues --    0.26586   0.26942   0.27330   0.28435   0.29018
 Alpha virt. eigenvalues --    0.30819   0.31058   0.31648   0.31706   0.32157

 Mulliken charges:
               1
     1  C   -0.297703
     2  C   -0.306754
     3  C   -0.476992
     4  H    0.149189
     5  H    0.149523
     6  H    0.159260
     7  H    0.152248
     8  H    0.155885
     9  H    0.154770
    10  H    0.160487
    11  C   -0.298397
    12  C   -0.299659
    13  C   -0.475723
    14  H    0.149693
    15  H    0.149831
    16  H    0.151846
    17  H    0.151958
    18  H    0.155243
    19  H    0.155218
    20  H    0.160278
    21  C   -0.299501
    22  C   -0.300157
    23  C   -0.481023
    24  H    0.149727
    25  H    0.151045
    26  H    0.152205
    27  H    0.151180
    28  H    0.161101
    29  H    0.155435
    30  H    0.159857
    31  C   -0.298199
    32  C   -0.299751
    33  C   -0.475698
    34  H    0.149519
    35  H    0.149294
    36  H    0.151980
    37  H    0.152212
    38  H    0.155090
    39  H    0.155155
    40  H    0.160329
 Sum of Mulliken charges =  -0.00000

 Dipole moment (field-independent basis, Debye):
    X=              0.0076    Y=              0.0013    Z=              0.0157  Tot=              0.0175
 Quadrupole moment (field-independent basis, Debye-Ang):
   XX=            -84.8281   YY=            -84.9083   ZZ=            -84.9949
   XY=             -1.5518   XZ=              0.1124   YZ=             -0.1423

 Normal termination of Gaussian 16 at Thu May  6 02:24:50 2021.
