 Gaussian 16, Revision A.03,
 Gaussian 16:  EM64L-G16RevA.03 25-Dec-2016

 -------------
 #p 6-31g* mp2
 -------------

 ------------------------------------------------------
 Input file generated by CHIRIPA (05-May-2021 14:51:09)
 ------------------------------------------------------
 Symbolic Z-matrix:
 Charge =  0 Multiplicity = 1

                         Standard orientation:
 ---------------------------------------------------------------------
 Center     Atomic      Atomic             Coordinates (Angstroms)
 Number     Number       Type             X           Y           Z
 ---------------------------------------------------------------------
      1          6           0        3.321081   -0.461443   -0.691688
      2          6           0        3.824158   -1.360992    0.437786
      3          6           0        4.557400   -2.600529   -0.075730
      4          1           0        2.652784   -1.040865   -1.343296
      5          1           0        4.173449   -0.153298   -1.312905
      6          1           0        2.971278   -1.666226    1.057499
      7          1           0        4.491184   -0.779308    1.086890
      8          1           0        5.425962   -2.312861   -0.676936
      9          1           0        3.897420   -3.204817   -0.706494
     10          1           0        4.908467   -3.229458    0.748321
     11          6           0        2.585952    0.781859   -0.194180
     12          6           0        2.082875    1.681408   -1.323653
     13          6           0        1.349633    2.920945   -0.810137
     14          1           0        1.733584    0.473714    0.427037
     15          1           0        3.254249    1.361281    0.457428
     16          1           0        1.415849    1.099724   -1.972757
     17          1           0        2.935755    1.986642   -1.943366
     18          1           0        2.009613    3.525233   -0.179374
     19          1           0        0.481071    2.633277   -0.208932
     20          1           0        0.998566    3.549874   -1.634189
     21          6           0       -2.631939   -0.130735    1.135141
     22          6           0       -1.338105    0.683431    1.168503
     23          6           0       -0.706640    0.733127    2.560113
     24          1           0       -3.347382    0.300252    1.848820
     25          1           0       -2.422909   -1.152653    1.480663
     26          1           0       -1.549237    1.703123    0.821708
     27          1           0       -0.625728    0.250571    0.454524
     28          1           0       -0.467776   -0.276033    2.911028
     29          1           0       -1.396531    1.184773    3.280299
     30          1           0        0.217075    1.320162    2.561096
     31          6           0       -3.275094   -0.189681   -0.249273
     32          6           0       -4.568928   -1.003846   -0.282636
     33          6           0       -5.200393   -1.053543   -1.674245
     34          1           0       -3.484124    0.832237   -0.594795
     35          1           0       -2.559651   -0.620668   -0.962952
     36          1           0       -5.281305   -0.570987    0.431344
     37          1           0       -4.357796   -2.023539    0.064160
     38          1           0       -4.510501   -1.505189   -2.394431
     39          1           0       -5.439258   -0.044384   -2.025161
     40          1           0       -6.124108   -1.640577   -1.675228
 ---------------------------------------------------------------------

 SCF Done:  E(RHF) =  -470.732338499     A.U. after   11 cycles
 E2 =    -0.1584424770D+01 EUMP2 =    -0.47231676326860D+03

 The electronic state is 1-A.
 Alpha  occ. eigenvalues --  -11.21689 -11.21643 -11.21596 -11.21550 -11.21467
 Alpha  occ. eigenvalues --  -11.21406 -11.21373 -11.21292 -11.21132 -11.21103
 Alpha  occ. eigenvalues --  -11.21071 -11.20941  -1.08516  -1.08388  -1.03631
 Alpha  occ. eigenvalues --   -1.03467  -0.96043  -0.95941  -0.87058  -0.86956
 Alpha  occ. eigenvalues --   -0.79739  -0.79516  -0.78390  -0.78149  -0.65245
 Alpha  occ. eigenvalues --   -0.64961  -0.61054  -0.60909  -0.59481  -0.59218
 Alpha  occ. eigenvalues --   -0.57664  -0.57531  -0.55401  -0.55167  -0.52737
 Alpha  occ. eigenvalues --   -0.52631  -0.52480  -0.52357  -0.50045  -0.49856
 Alpha  occ. eigenvalues --   -0.48085  -0.47796  -0.46717  -0.46604  -0.46018
 Alpha  occ. eigenvalues --   -0.45758  -0.45731  -0.45362  -0.43844  -0.43747
 Alpha virt. eigenvalues --    0.20778   0.23185   0.23511   0.24678   0.25884
 Alpha virt. eigenvalues --    0.26502   0.26772   0.27855   0.28004   0.29594
 Alpha virt. eigenvalues --    0.30576   0.31205   0.31501   0.31853   0.31997

 Mulliken charges:
               1
     1  C   -0.297859
     2  C   -0.299518
     3  C   -0.475663
     4  H    0.148799
     5  H    0.149635
     6  H    0.151538
     7  H    0.152093
     8  H    0.155267
     9  H    0.154933
    10  H    0.160215
    11  C   -0.307963
    12  C   -0.298557
    13  C   -0.484340
    14  H    0.159541
    15  H    0.149251
    16  H    0.151083
    17  H    0.151775
    18  H    0.154083
    19  H    0.165620
    20  H    0.159517
    21  C   -0.296804
    22  C   -0.307667
    23  C   -0.478807
    24  H    0.150026
    25  H    0.149517
    26  H    0.153918
    27  H    0.155357
    28  H    0.155194
    29  H    0.156041
    30  H    0.163515
    31  C   -0.298500
    32  C   -0.299706
    33  C   -0.475747
    34  H    0.149865
    35  H    0.149329
    36  H    0.152131
    37  H    0.151963
    38  H    0.155161
    39  H    0.155341
    40  H    0.160421
 Sum of Mulliken charges =  -0.00000

 Dipole moment (field-independent basis, Debye):
    X=             -0.0524    Y=             -0.0027    Z=              0.0352  Tot=              0.0632
 Quadrupole moment (field-independent basis, Debye-Ang):
   XX=            -84.3923   YY=            -84.7926   ZZ=            -85.6819
   XY=              0.3728   XZ=             -0.4831   YZ=             -0.0619

 Normal termination of Gaussian 16 at Thu May  6 03:44:38 2021.
