 Gaussian 16, Revision A.03,
 Gaussian 16:  EM64L-G16RevA.03 25-Dec-2016

 -------------
 #p 6-31g* mp2
 -------------

 ------------------------------------------------------
 Input file generated by CHIRIPA (05-May-2021 14:53:12)
 ------------------------------------------------------
 Symbolic Z-matrix:
 Charge =  0 Multiplicity = 1

                         Standard orientation:
 ---------------------------------------------------------------------
 Center     Atomic      Atomic             Coordinates (Angstroms)
 Number     Number       Type             X           Y           Z
 ---------------------------------------------------------------------
      1          6           0       -5.532459    0.453149    0.264643
      2          6           0       -6.784751    0.249099   -0.588653
      3          6           0       -7.910988    1.217813   -0.226746
      4          1           0       -5.795112    0.332777    1.324581
      5          1           0       -5.180430    1.487188    0.145334
      6          1           0       -7.133514   -0.784645   -0.468846
      7          1           0       -6.519046    0.369782   -1.646695
      8          1           0       -7.586473    2.254383   -0.363904
      9          1           0       -8.204432    1.093397    0.820638
     10          1           0       -8.796493    1.054396   -0.848869
     11          6           0       -4.397713   -0.507899   -0.085312
     12          6           0       -3.145421   -0.303849    0.767984
     13          6           0       -2.019184   -1.272562    0.406077
     14          1           0       -4.749743   -1.541937    0.033997
     15          1           0       -4.135060   -0.387526   -1.145250
     16          1           0       -3.411126   -0.424532    1.826026
     17          1           0       -2.796658    0.729895    0.648177
     18          1           0       -1.725740   -1.148147   -0.641307
     19          1           0       -2.343699   -2.309133    0.543234
     20          1           0       -1.133679   -1.109146    1.028200
     21          6           0        5.724921    1.738216    0.034337
     22          6           0        4.387239    2.146461    0.055874
     23          6           0        3.356246    1.203957   -0.001465
     24          6           0        3.700514   -0.144590   -0.080143
     25          6           0        5.023696   -0.582695   -0.103463
     26          6           0        6.038327    0.377341   -0.045123
     27          1           0        6.519465    2.477186    0.079268
     28          1           0        4.140882    3.202658    0.117538
     29          1           0        2.312202    1.492336    0.013565
     30          1           0        5.238078   -1.642705   -0.165410
     31          1           0        7.076303    0.057392   -0.062021
     32          7           0        2.617709   -1.151657   -0.141375
     33          8           0        2.947349   -2.333700   -0.210287
     34          8           0        1.459870   -0.739884   -0.119298
 ---------------------------------------------------------------------

 SCF Done:  E(RHF) =  -669.535602664     A.U. after   15 cycles
 E2 =    -0.2090749475D+01 EUMP2 =    -0.67162635213909D+03

 The electronic state is 1-A.
 Alpha  occ. eigenvalues --  -20.60875 -20.60865 -15.85912 -11.31264 -11.27832
 Alpha  occ. eigenvalues --  -11.27828 -11.27574 -11.26845 -11.26836 -11.21100
 Alpha  occ. eigenvalues --  -11.20761 -11.20676 -11.20558 -11.20493 -11.19375
 Alpha  occ. eigenvalues --   -1.59941  -1.39496  -1.19436  -1.08835  -1.07668
 Alpha  occ. eigenvalues --   -1.04837  -1.02661  -0.95676  -0.95065  -0.86238
 Alpha  occ. eigenvalues --   -0.86070  -0.82504  -0.78756  -0.77557  -0.77448
 Alpha  occ. eigenvalues --   -0.72136  -0.71260  -0.70545  -0.65092  -0.64840
 Alpha  occ. eigenvalues --   -0.64313  -0.62184  -0.60070  -0.58501  -0.56673
 Alpha  occ. eigenvalues --   -0.55340  -0.54369  -0.53168  -0.52930  -0.51709
 Alpha  occ. eigenvalues --   -0.51497  -0.49086  -0.48891  -0.48801  -0.47052
 Alpha  occ. eigenvalues --   -0.45824  -0.44995  -0.44921  -0.44880  -0.42866
 Alpha  occ. eigenvalues --   -0.37417  -0.36440
 Alpha virt. eigenvalues --    0.04961   0.11215   0.16443   0.21342   0.23555
 Alpha virt. eigenvalues --    0.25219   0.27262   0.27352   0.28154   0.28211
 Alpha virt. eigenvalues --    0.29042   0.30916   0.32220   0.32428   0.32480

 Mulliken charges:
               1
     1  C   -0.297213
     2  C   -0.299018
     3  C   -0.475193
     4  H    0.148187
     5  H    0.147186
     6  H    0.151626
     7  H    0.151237
     8  H    0.153894
     9  H    0.154437
    10  H    0.158798
    11  C   -0.297269
    12  C   -0.300742
    13  C   -0.473067
    14  H    0.148600
    15  H    0.148726
    16  H    0.147027
    17  H    0.146856
    18  H    0.159136
    19  H    0.148823
    20  H    0.174971
    21  C   -0.170701
    22  C   -0.218521
    23  C   -0.170964
    24  C    0.157776
    25  C   -0.170675
    26  C   -0.218569
    27  H    0.225867
    28  H    0.223696
    29  H    0.275612
    30  H    0.275837
    31  H    0.223707
    32  N    0.491057
    33  O   -0.459242
    34  O   -0.461881
 Sum of Mulliken charges =  -0.00000

 Dipole moment (field-independent basis, Debye):
    X=              4.1531    Y=              3.4923    Z=              0.1935  Tot=              5.4298
 Quadrupole moment (field-independent basis, Debye-Ang):
   XX=            -66.5316   YY=            -93.3731   ZZ=            -95.3478
   XY=             10.8794   XZ=              0.3244   YZ=             -0.6917

 Normal termination of Gaussian 16 at Thu May  6 04:06:18 2021.
