 Gaussian 16, Revision A.03,
 Gaussian 16:  EM64L-G16RevA.03 25-Dec-2016

 -------------
 #p 6-31g* mp2
 -------------

 ------------------------------------------------------
 Input file generated by CHIRIPA (05-May-2021 14:53:14)
 ------------------------------------------------------
 Symbolic Z-matrix:
 Charge =  0 Multiplicity = 1

                         Standard orientation:
 ---------------------------------------------------------------------
 Center     Atomic      Atomic             Coordinates (Angstroms)
 Number     Number       Type             X           Y           Z
 ---------------------------------------------------------------------
      1          6           0       -3.909688   -0.528986    0.310764
      2          6           0       -2.864085   -1.635735    0.170026
      3          6           0       -3.321919   -2.962202    0.777206
      4          1           0       -4.141991   -0.385964    1.374965
      5          1           0       -4.842424   -0.851803   -0.172132
      6          1           0       -1.933167   -1.310364    0.651838
      7          1           0       -2.634103   -1.776008   -0.893952
      8          1           0       -4.237714   -3.312954    0.290490
      9          1           0       -3.532796   -2.844666    1.845062
     10          1           0       -2.559350   -3.739293    0.665506
     11          6           0       -3.466578    0.803195   -0.291461
     12          6           0       -4.512181    1.909943   -0.150724
     13          6           0       -4.054347    3.236410   -0.757904
     14          1           0       -2.533842    1.126012    0.191434
     15          1           0       -3.234275    0.660172   -1.355663
     16          1           0       -4.742163    2.050216    0.913254
     17          1           0       -5.443098    1.584573   -0.632536
     18          1           0       -3.843470    3.118874   -1.825760
     19          1           0       -3.138552    3.587163   -0.271188
     20          1           0       -4.816916    4.013501   -0.646204
     21          6           0        4.379414    1.820521    0.629617
     22          6           0        4.674015    1.048352   -0.498870
     23          6           0        3.851000   -0.022074   -0.861340
     24          6           0        2.736527   -0.293469   -0.069138
     25          6           0        2.416482    0.457369    1.060952
     26          6           0        3.253572    1.523090    1.404561
     27          1           0        5.024218    2.650226    0.903867
     28          1           0        5.547689    1.277034   -1.102561
     29          1           0        4.055664   -0.636180   -1.729905
     30          1           0        1.538513    0.205099    1.643145
     31          1           0        3.022328    2.121056    2.281492
     32          7           0        1.857787   -1.424191   -0.442885
     33          8           0        0.881885   -1.642767    0.271591
     34          8           0        2.161574   -2.070462   -1.443227
 ---------------------------------------------------------------------

 SCF Done:  E(RHF) =  -669.535873476     A.U. after   15 cycles
 E2 =    -0.2091002153D+01 EUMP2 =    -0.67162687562865D+03

 The electronic state is 1-A.
 Alpha  occ. eigenvalues --  -20.60903 -20.60896 -15.85941 -11.31279 -11.27849
 Alpha  occ. eigenvalues --  -11.27840 -11.27583 -11.26857 -11.26846 -11.21190
 Alpha  occ. eigenvalues --  -11.20806 -11.20788 -11.20538 -11.20249 -11.19920
 Alpha  occ. eigenvalues --   -1.59965  -1.39521  -1.19449  -1.08849  -1.07688
 Alpha  occ. eigenvalues --   -1.04849  -1.02733  -0.95690  -0.95238  -0.86266
 Alpha  occ. eigenvalues --   -0.86248  -0.82527  -0.78838  -0.77599  -0.77389
 Alpha  occ. eigenvalues --   -0.72165  -0.71280  -0.70559  -0.65107  -0.64853
 Alpha  occ. eigenvalues --   -0.64332  -0.62198  -0.60138  -0.58632  -0.56790
 Alpha  occ. eigenvalues --   -0.55351  -0.54560  -0.53178  -0.52942  -0.51926
 Alpha  occ. eigenvalues --   -0.51656  -0.49227  -0.48926  -0.48919  -0.47139
 Alpha  occ. eigenvalues --   -0.45897  -0.45151  -0.44923  -0.44639  -0.43001
 Alpha  occ. eigenvalues --   -0.37427  -0.36451
 Alpha virt. eigenvalues --    0.04943   0.11203   0.16423   0.21262   0.23479
 Alpha virt. eigenvalues --    0.25068   0.26862   0.27423   0.27843   0.28632
 Alpha virt. eigenvalues --    0.28785   0.30846   0.31951   0.32257   0.32863

 Mulliken charges:
               1
     1  C   -0.298570
     2  C   -0.302411
     3  C   -0.476279
     4  H    0.145175
     5  H    0.146424
     6  H    0.168991
     7  H    0.153700
     8  H    0.149479
     9  H    0.149228
    10  H    0.167645
    11  C   -0.296193
    12  C   -0.298901
    13  C   -0.474833
    14  H    0.145920
    15  H    0.150333
    16  H    0.149968
    17  H    0.151775
    18  H    0.155218
    19  H    0.152083
    20  H    0.158497
    21  C   -0.170652
    22  C   -0.218498
    23  C   -0.170769
    24  C    0.158113
    25  C   -0.170563
    26  C   -0.218454
    27  H    0.225962
    28  H    0.223792
    29  H    0.275849
    30  H    0.274898
    31  H    0.223700
    32  N    0.492300
    33  O   -0.463518
    34  O   -0.459407
 Sum of Mulliken charges =  -0.00000

 Dipole moment (field-independent basis, Debye):
    X=              3.3675    Y=              3.8861    Z=              1.2772  Tot=              5.2984
 Quadrupole moment (field-independent basis, Debye-Ang):
   XX=            -77.4214   YY=            -98.7993   ZZ=            -91.5732
   XY=              9.6276   XZ=              1.3448   YZ=              1.0609

 Normal termination of Gaussian 16 at Thu May  6 04:11:59 2021.
