 Gaussian 16, Revision A.03,
 Gaussian 16:  EM64L-G16RevA.03 25-Dec-2016

 -------------
 #p 6-31g* mp2
 -------------

 ------------------------------------------------------
 Input file generated by CHIRIPA (05-May-2021 14:57:27)
 ------------------------------------------------------
 Symbolic Z-matrix:
 Charge =  0 Multiplicity = 1

                         Standard orientation:
 ---------------------------------------------------------------------
 Center     Atomic      Atomic             Coordinates (Angstroms)
 Number     Number       Type             X           Y           Z
 ---------------------------------------------------------------------
      1          6           0       -5.227198    0.882728    0.157841
      2          6           0       -4.952526   -0.060937   -0.837434
      3          6           0       -3.740790   -0.758244   -0.839724
      4          6           0       -2.822315   -0.485703    0.172904
      5          6           0       -3.066737    0.448551    1.178249
      6          6           0       -4.285087    1.134017    1.160738
      7          1           0       -6.171073    1.419814    0.151929
      8          1           0       -5.682316   -0.258142   -1.617538
      9          1           0       -3.502348   -1.494041   -1.598121
     10          1           0       -2.319585    0.623524    1.942819
     11          1           0       -4.495696    1.866330    1.934952
     12          7           0       -1.536003   -1.217643    0.180961
     13          8           0       -0.743425   -0.959288    1.084128
     14          8           0       -1.344726   -2.035833   -0.716043
     15          6           0        4.354908   -1.700486    0.424608
     16          6           0        4.809371   -0.439481    0.824420
     17          6           0        4.085784    0.711831    0.499685
     18          6           0        2.906644    0.564761   -0.229213
     19          6           0        2.427823   -0.677682   -0.641952
     20          6           0        3.167677   -1.815360   -0.306015
     21          1           0        4.923326   -2.589556    0.681221
     22          1           0        5.731045   -0.347251    1.391920
     23          1           0        4.414646    1.700347    0.796504
     24          1           0        1.505418   -0.737833   -1.206727
     25          1           0        2.812328   -2.793385   -0.617845
     26          7           0        2.132005    1.776386   -0.578926
     27          8           0        1.096250    1.619979   -1.221877
     28          8           0        2.575265    2.859521   -0.203458
 ---------------------------------------------------------------------

 SCF Done:  E(RHF) =  -868.340769091     A.U. after   16 cycles
 E2 =    -0.2599219795D+01 EUMP2 =    -0.87093998888565D+03

 The electronic state is 1-A.
 Alpha  occ. eigenvalues --  -20.60964 -20.60935 -20.59905 -20.59900 -15.85955
 Alpha  occ. eigenvalues --  -15.84947 -11.31002 -11.29971 -11.27567 -11.27529
 Alpha  occ. eigenvalues --  -11.27271 -11.26648 -11.26528 -11.26496 -11.26412
 Alpha  occ. eigenvalues --  -11.26333 -11.25620 -11.25408  -1.60001  -1.58979
 Alpha  occ. eigenvalues --   -1.39562  -1.38543  -1.19153  -1.18155  -1.08617
 Alpha  occ. eigenvalues --   -1.07637  -1.04522  -1.03503  -0.95506  -0.94513
 Alpha  occ. eigenvalues --   -0.85940  -0.84943  -0.82358  -0.81356  -0.77431
 Alpha  occ. eigenvalues --   -0.76418  -0.72200  -0.71320  -0.71153  -0.70291
 Alpha  occ. eigenvalues --   -0.70273  -0.69308  -0.64827  -0.64546  -0.63828
 Alpha  occ. eigenvalues --   -0.63536  -0.61883  -0.60854  -0.55065  -0.54105
 Alpha  occ. eigenvalues --   -0.52849  -0.52629  -0.51867  -0.51616  -0.48972
 Alpha  occ. eigenvalues --   -0.48920  -0.47946  -0.47913  -0.45049  -0.44017
 Alpha  occ. eigenvalues --   -0.37117  -0.36168  -0.36098  -0.35047
 Alpha virt. eigenvalues --    0.05074   0.06104   0.11561   0.12577   0.16638
 Alpha virt. eigenvalues --    0.17627   0.21643   0.22603   0.27569   0.28426
 Alpha virt. eigenvalues --    0.28631   0.29454   0.31203   0.32093   0.32745

 Mulliken charges:
               1
     1  C   -0.169437
     2  C   -0.218457
     3  C   -0.169273
     4  C    0.162394
     5  C   -0.166490
     6  C   -0.218153
     7  H    0.225624
     8  H    0.222885
     9  H    0.273855
    10  H    0.276181
    11  H    0.224091
    12  N    0.490616
    13  O   -0.460363
    14  O   -0.469696
    15  C   -0.170777
    16  C   -0.220048
    17  C   -0.172111
    18  C    0.156171
    19  C   -0.156627
    20  C   -0.218743
    21  H    0.221591
    22  H    0.218135
    23  H    0.270520
    24  H    0.282674
    25  H    0.226954
    26  N    0.489243
    27  O   -0.464718
    28  O   -0.466040
 Sum of Mulliken charges =  -0.00000

 Dipole moment (field-independent basis, Debye):
    X=             -2.1691    Y=             -1.7824    Z=              1.2186  Tot=              3.0605
 Quadrupole moment (field-independent basis, Debye-Ang):
   XX=            -62.6199   YY=           -110.7273   ZZ=           -101.9048
   XY=            -13.9677   XZ=              5.2372   YZ=              6.1809

 Normal termination of Gaussian 16 at Thu May  6 16:31:04 2021.
