 Gaussian 16, Revision A.03,
 Gaussian 16:  EM64L-G16RevA.03 25-Dec-2016

 -------------
 #p 6-31g* mp2
 -------------

 ------------------------------------------------------
 Input file generated by CHIRIPA (05-May-2021 14:53:18)
 ------------------------------------------------------
 Symbolic Z-matrix:
 Charge =  0 Multiplicity = 1

                         Standard orientation:
 ---------------------------------------------------------------------
 Center     Atomic      Atomic             Coordinates (Angstroms)
 Number     Number       Type             X           Y           Z
 ---------------------------------------------------------------------
      1          6           0       -2.859910    1.053505    0.077543
      2          6           0       -2.500411    2.216858   -0.847311
      3          6           0       -2.262976    3.523215   -0.089123
      4          1           0       -3.759338    1.314454    0.651895
      5          1           0       -2.052037    0.912455    0.808871
      6          1           0       -3.308090    2.354782   -1.577549
      7          1           0       -1.601845    1.953033   -1.419667
      8          1           0       -1.443270    3.409152    0.627586
      9          1           0       -3.159209    3.813183    0.468807
     10          1           0       -2.007345    4.341511   -0.769494
     11          6           0       -3.100256   -0.259338   -0.665696
     12          6           0       -3.459755   -1.422691    0.259158
     13          6           0       -3.697191   -2.729048   -0.499030
     14          1           0       -3.908129   -0.118288   -1.397024
     15          1           0       -2.200828   -0.520287   -1.240048
     16          1           0       -4.358321   -1.158866    0.831514
     17          1           0       -2.652076   -1.560615    0.989396
     18          1           0       -2.800957   -3.019016   -1.056960
     19          1           0       -4.516897   -2.614985   -1.215739
     20          1           0       -3.952821   -3.547345    0.181341
     21          6           0        0.262032   -0.820611    1.584892
     22          6           0        0.477260   -1.470347    0.365039
     23          6           0        1.618541   -1.195389   -0.394188
     24          6           0        2.527939   -0.260879    0.098736
     25          6           0        2.341644    0.402970    1.310301
     26          6           0        1.193269    0.112330    2.052805
     27          1           0       -0.627297   -1.040296    2.168183
     28          1           0       -0.244247   -2.195343   -0.000819
     29          1           0        1.809996   -1.683835   -1.341914
     30          1           0        3.078825    1.120810    1.648956
     31          1           0        1.028722    0.618450    2.999806
     32          7           0        3.739916    0.038508   -0.696171
     33          8           0        4.525944    0.865926   -0.239908
     34          8           0        3.880886   -0.559920   -1.760430
 ---------------------------------------------------------------------

 SCF Done:  E(RHF) =  -669.534587600     A.U. after   15 cycles
 E2 =    -0.2094483095D+01 EUMP2 =    -0.67162907069509D+03

 The electronic state is 1-A.
 Alpha  occ. eigenvalues --  -20.60822 -20.60817 -15.85877 -11.31269 -11.27846
 Alpha  occ. eigenvalues --  -11.27842 -11.27572 -11.26863 -11.26843 -11.22700
 Alpha  occ. eigenvalues --  -11.22145 -11.22104 -11.22018 -11.21943 -11.21432
 Alpha  occ. eigenvalues --   -1.59898  -1.39450  -1.19454  -1.09194  -1.08818
 Alpha  occ. eigenvalues --   -1.04859  -1.04253  -0.96679  -0.95675  -0.87703
 Alpha  occ. eigenvalues --   -0.86253  -0.82508  -0.80353  -0.78942  -0.77543
 Alpha  occ. eigenvalues --   -0.72096  -0.71222  -0.70602  -0.65972  -0.65094
 Alpha  occ. eigenvalues --   -0.64742  -0.62270  -0.61544  -0.60075  -0.58282
 Alpha  occ. eigenvalues --   -0.56002  -0.55386  -0.53384  -0.53217  -0.53041
 Alpha  occ. eigenvalues --   -0.52934  -0.50651  -0.48857  -0.48849  -0.48645
 Alpha  occ. eigenvalues --   -0.47408  -0.46469  -0.46368  -0.44850  -0.44478
 Alpha  occ. eigenvalues --   -0.37369  -0.36448
 Alpha virt. eigenvalues --    0.04956   0.11088   0.16328   0.19009   0.22974
 Alpha virt. eigenvalues --    0.23267   0.25028   0.25793   0.27201   0.28224
 Alpha virt. eigenvalues --    0.29272   0.29792   0.31057   0.31461   0.32027

 Mulliken charges:
               1
     1  C   -0.301379
     2  C   -0.300089
     3  C   -0.476053
     4  H    0.149162
     5  H    0.148637
     6  H    0.152953
     7  H    0.155712
     8  H    0.154177
     9  H    0.154534
    10  H    0.163341
    11  C   -0.299357
    12  C   -0.304329
    13  C   -0.477051
    14  H    0.153562
    15  H    0.149998
    16  H    0.157144
    17  H    0.139591
    18  H    0.150573
    19  H    0.161678
    20  H    0.162450
    21  C   -0.173181
    22  C   -0.220766
    23  C   -0.172652
    24  C    0.158610
    25  C   -0.170422
    26  C   -0.220022
    27  H    0.229953
    28  H    0.228936
    29  H    0.276136
    30  H    0.276052
    31  H    0.224332
    32  N    0.488073
    33  O   -0.460128
    34  O   -0.460176
 Sum of Mulliken charges =  -0.00000

 Dipole moment (field-independent basis, Debye):
    X=             -4.3249    Y=             -0.9979    Z=              2.7308  Tot=              5.2113
 Quadrupole moment (field-independent basis, Debye-Ang):
   XX=           -115.2015   YY=            -93.4002   ZZ=            -92.2322
   XY=             -0.8153   XZ=              8.1763   YZ=              1.3438

 Normal termination of Gaussian 16 at Thu May  6 15:41:31 2021.
