 Gaussian 16, Revision A.03,
 Gaussian 16:  EM64L-G16RevA.03 25-Dec-2016

 -------------
 #p 6-31g* mp2
 -------------

 ------------------------------------------------------
 Input file generated by CHIRIPA (05-May-2021 14:57:27)
 ------------------------------------------------------
 Symbolic Z-matrix:
 Charge =  0 Multiplicity = 1

                         Standard orientation:
 ---------------------------------------------------------------------
 Center     Atomic      Atomic             Coordinates (Angstroms)
 Number     Number       Type             X           Y           Z
 ---------------------------------------------------------------------
      1          6           0        3.573651    2.457246    0.236467
      2          6           0        4.561640    1.489923    0.025080
      3          6           0        4.210943    0.161075   -0.231284
      4          6           0        2.856597   -0.166933   -0.269306
      5          6           0        1.848986    0.773996   -0.062758
      6          6           0        2.222858    2.096830    0.191952
      7          1           0        3.855082    3.487191    0.434974
      8          1           0        5.611471    1.766952    0.059065
      9          1           0        4.955295   -0.607945   -0.398518
     10          1           0        0.810764    0.467549   -0.102806
     11          1           0        1.453422    2.845954    0.355742
     12          7           0        2.473062   -1.570542   -0.539831
     13          8           0        1.272872   -1.833944   -0.568121
     14          8           0        3.379900   -2.380712   -0.718457
     15          6           0       -4.420629    1.431505   -1.144855
     16          6           0       -4.342102    0.065155   -1.433723
     17          6           0       -3.513866   -0.773130   -0.681489
     18          6           0       -2.774714   -0.209017    0.357126
     19          6           0       -2.831454    1.148381    0.669448
     20          6           0       -3.666384    1.967811   -0.096041
     21          1           0       -5.066621    2.075380   -1.734357
     22          1           0       -4.926718   -0.354102   -2.247659
     23          1           0       -3.434103   -1.834379   -0.883487
     24          1           0       -2.236672    1.537295    1.487004
     25          1           0       -3.725381    3.028572    0.130565
     26          7           0       -1.894355   -1.086490    1.160498
     27          8           0       -1.253297   -0.565006    2.070299
     28          8           0       -1.862057   -2.279124    0.865169
 ---------------------------------------------------------------------

 SCF Done:  E(RHF) =  -868.336711482     A.U. after   16 cycles
 E2 =    -0.2601282790D+01 EUMP2 =    -0.87093799427164D+03

 The electronic state is 1-A.
 Alpha  occ. eigenvalues --  -20.60544 -20.60402 -20.60065 -20.59998 -15.85515
 Alpha  occ. eigenvalues --  -15.85085 -11.31168 -11.30613 -11.27826 -11.27670
 Alpha  occ. eigenvalues --  -11.27519 -11.27237 -11.27218 -11.27046 -11.26867
 Alpha  occ. eigenvalues --  -11.26762 -11.26311 -11.26290  -1.59516  -1.59098
 Alpha  occ. eigenvalues --   -1.39072  -1.38649  -1.19350  -1.18821  -1.08688
 Alpha  occ. eigenvalues --   -1.08193  -1.04788  -1.04259  -0.95478  -0.94996
 Alpha  occ. eigenvalues --   -0.86171  -0.85656  -0.82307  -0.81834  -0.77319
 Alpha  occ. eigenvalues --   -0.76854  -0.71735  -0.71390  -0.70763  -0.70441
 Alpha  occ. eigenvalues --   -0.70401  -0.69950  -0.64992  -0.64785  -0.64482
 Alpha  occ. eigenvalues --   -0.64289  -0.62131  -0.61612  -0.55264  -0.54786
 Alpha  occ. eigenvalues --   -0.53105  -0.52876  -0.52567  -0.52377  -0.48522
 Alpha  occ. eigenvalues --   -0.48467  -0.48080  -0.48052  -0.44390  -0.44005
 Alpha  occ. eigenvalues --   -0.37336  -0.36821  -0.36407  -0.35854
 Alpha virt. eigenvalues --    0.05212   0.05736   0.11190   0.11795   0.16662
 Alpha virt. eigenvalues --    0.17156   0.21189   0.21830   0.26775   0.27555
 Alpha virt. eigenvalues --    0.28426   0.28547   0.30987   0.31134   0.32493

 Mulliken charges:
               1
     1  C   -0.171025
     2  C   -0.219028
     3  C   -0.170553
     4  C    0.158588
     5  C   -0.162183
     6  C   -0.218799
     7  H    0.222671
     8  H    0.221436
     9  H    0.274861
    10  H    0.272531
    11  H    0.217432
    12  N    0.488747
    13  O   -0.454759
    14  O   -0.463376
    15  C   -0.171540
    16  C   -0.218259
    17  C   -0.168331
    18  C    0.157877
    19  C   -0.178900
    20  C   -0.218337
    21  H    0.225170
    22  H    0.224767
    23  H    0.280564
    24  H    0.271144
    25  H    0.220891
    26  N    0.490482
    27  O   -0.468257
    28  O   -0.443814
 Sum of Mulliken charges =  -0.00000

 Dipole moment (field-independent basis, Debye):
    X=             -1.9204    Y=              7.6176    Z=             -1.9238  Tot=              8.0881
 Quadrupole moment (field-independent basis, Debye-Ang):
   XX=            -75.7924   YY=           -105.1373   ZZ=           -107.3952
   XY=              6.2748   XZ=             10.1574   YZ=              2.7147

 Normal termination of Gaussian 16 at Thu May  6 06:51:47 2021.
