 Gaussian 16, Revision A.03,
 Gaussian 16:  EM64L-G16RevA.03 25-Dec-2016

 -------------
 #p 6-31g* mp2
 -------------

 ------------------------------------------------------
 Input file generated by CHIRIPA (05-May-2021 14:53:12)
 ------------------------------------------------------
 Symbolic Z-matrix:
 Charge =  0 Multiplicity = 1

                         Standard orientation:
 ---------------------------------------------------------------------
 Center     Atomic      Atomic             Coordinates (Angstroms)
 Number     Number       Type             X           Y           Z
 ---------------------------------------------------------------------
      1          6           0       -4.352964    0.931070    0.007669
      2          6           0       -2.824807    0.901935    0.050948
      3          6           0       -2.202479    2.289994   -0.103301
      4          1           0       -4.678100    1.376727   -0.942396
      5          1           0       -4.722907    1.590448    0.805013
      6          1           0       -2.457904    0.241721   -0.745365
      7          1           0       -2.503273    0.456121    1.000938
      8          1           0       -2.540260    2.954856    0.698237
      9          1           0       -2.494633    2.739238   -1.057988
     10          1           0       -1.109422    2.245910   -0.069491
     11          6           0       -4.989773   -0.449083    0.160571
     12          6           0       -6.517930   -0.419948    0.117292
     13          6           0       -7.140259   -1.808007    0.271541
     14          1           0       -4.619831   -1.108461   -0.636774
     15          1           0       -4.664638   -0.894740    1.110635
     16          1           0       -6.839464    0.025867   -0.832698
     17          1           0       -6.884834    0.240267    0.913605
     18          1           0       -6.848105   -2.257251    1.226228
     19          1           0       -6.802477   -2.472869   -0.529998
     20          1           0       -8.233316   -1.763923    0.237730
     21          6           0        6.100407   -0.434992    0.480304
     22          6           0        5.498989    0.827374    0.515663
     23          6           0        4.141761    0.975906    0.214971
     24          6           0        3.412563   -0.164425   -0.118506
     25          6           0        3.983089   -1.435590   -0.162424
     26          6           0        5.341875   -1.560461    0.141971
     27          1           0        7.155340   -0.541185    0.715327
     28          1           0        6.085620    1.703185    0.778082
     29          1           0        3.650855    1.941329    0.234675
     30          1           0        3.372435   -2.290127   -0.427539
     31          1           0        5.806291   -2.542074    0.113707
     32          7           0        1.974901   -0.019705   -0.438795
     33          8           0        1.354320   -1.039970   -0.729615
     34          8           0        1.495866    1.111250   -0.392953
 ---------------------------------------------------------------------

 SCF Done:  E(RHF) =  -669.536353540     A.U. after   15 cycles
 E2 =    -0.2090881852D+01 EUMP2 =    -0.67162723539182D+03

 The electronic state is 1-A.
 Alpha  occ. eigenvalues --  -20.60997 -20.60987 -15.86023 -11.31324 -11.27883
 Alpha  occ. eigenvalues --  -11.27879 -11.27617 -11.26886 -11.26876 -11.20840
 Alpha  occ. eigenvalues --  -11.20437 -11.20418 -11.20212 -11.20027 -11.19293
 Alpha  occ. eigenvalues --   -1.60048  -1.39606  -1.19488  -1.08897  -1.07340
 Alpha  occ. eigenvalues --   -1.04882  -1.02359  -0.95743  -0.94820  -0.86283
 Alpha  occ. eigenvalues --   -0.85851  -0.82576  -0.78474  -0.77631  -0.77089
 Alpha  occ. eigenvalues --   -0.72247  -0.71360  -0.70597  -0.65145  -0.64884
 Alpha  occ. eigenvalues --   -0.63987  -0.62229  -0.59777  -0.58233  -0.56377
 Alpha  occ. eigenvalues --   -0.55384  -0.54147  -0.53215  -0.52974  -0.51491
 Alpha  occ. eigenvalues --   -0.51260  -0.48995  -0.48950  -0.48822  -0.46752
 Alpha  occ. eigenvalues --   -0.45540  -0.45022  -0.44643  -0.44540  -0.42590
 Alpha  occ. eigenvalues --   -0.37467  -0.36482
 Alpha virt. eigenvalues --    0.04896   0.11174   0.16396   0.21307   0.23866
 Alpha virt. eigenvalues --    0.25534   0.27231   0.27685   0.28163   0.28566
 Alpha virt. eigenvalues --    0.29212   0.30876   0.32377   0.32480   0.32752

 Mulliken charges:
               1
     1  C   -0.297604
     2  C   -0.296647
     3  C   -0.486934
     4  H    0.146804
     5  H    0.145234
     6  H    0.160332
     7  H    0.149076
     8  H    0.144437
     9  H    0.148204
    10  H    0.187823
    11  C   -0.297320
    12  C   -0.298722
    13  C   -0.475053
    14  H    0.150276
    15  H    0.148153
    16  H    0.150681
    17  H    0.150071
    18  H    0.154057
    19  H    0.154768
    20  H    0.157637
    21  C   -0.170523
    22  C   -0.218560
    23  C   -0.170759
    24  C    0.157506
    25  C   -0.170441
    26  C   -0.218619
    27  H    0.226097
    28  H    0.223952
    29  H    0.275887
    30  H    0.275953
    31  H    0.223916
    32  N    0.491412
    33  O   -0.458621
    34  O   -0.462473
 Sum of Mulliken charges =  -0.00000

 Dipole moment (field-independent basis, Debye):
    X=              5.5056    Y=             -0.5829    Z=              1.0766  Tot=              5.6401
 Quadrupole moment (field-independent basis, Debye-Ang):
   XX=            -62.6713   YY=            -90.9358   ZZ=            -94.8555
   XY=             -2.5432   XZ=              3.6532   YZ=              0.9787

 Normal termination of Gaussian 16 at Thu May  6 10:25:14 2021.
