 Gaussian 16, Revision A.03,
 Gaussian 16:  EM64L-G16RevA.03 25-Dec-2016

 -------------
 #p 6-31g* mp2
 -------------

 ------------------------------------------------------
 Input file generated by CHIRIPA (05-May-2021 14:55:24)
 ------------------------------------------------------
 Symbolic Z-matrix:
 Charge =  0 Multiplicity = 1

                         Standard orientation:
 ---------------------------------------------------------------------
 Center     Atomic      Atomic             Coordinates (Angstroms)
 Number     Number       Type             X           Y           Z
 ---------------------------------------------------------------------
      1          6           0       -0.516071   -1.075884    1.283610
      2          6           0       -0.927079    0.260812    1.312526
      3          6           0       -2.121559    0.649782    0.698956
      4          6           0       -2.883941   -0.328523    0.062572
      5          6           0       -2.501325   -1.668218    0.016628
      6          6           0       -1.303119   -2.034443    0.636893
      7          1           0        0.413277   -1.369211    1.762846
      8          1           0       -0.317861    1.007394    1.814039
      9          1           0       -2.463466    1.677626    0.706224
     10          1           0       -3.129842   -2.389771   -0.491058
     11          1           0       -0.986411   -3.073271    0.612852
     12          7           0       -4.150456    0.071223   -0.590531
     13          8           0       -4.804201   -0.809809   -1.144641
     14          8           0       -4.465423    1.258006   -0.535958
     15          6           0        4.089665    0.188168   -0.418840
     16          6           0        4.143220   -1.319598   -0.170323
     17          6           0        5.480691   -1.938682   -0.577387
     18          1           0        4.277524    0.384812   -1.483257
     19          1           0        4.903755    0.673518    0.137115
     20          1           0        3.328425   -1.801809   -0.725479
     21          1           0        3.955021   -1.512690    0.893591
     22          1           0        6.302610   -1.484528   -0.014542
     23          1           0        5.672453   -1.775289   -1.642812
     24          1           0        5.497152   -3.017069   -0.391188
     25          6           0        2.758857    0.821510   -0.016900
     26          6           0        2.705302    2.329276   -0.265418
     27          6           0        1.367831    2.948359    0.141646
     28          1           0        1.944766    0.336159   -0.572855
     29          1           0        2.570997    0.624865    1.047516
     30          1           0        2.893501    2.522367   -1.329332
     31          1           0        3.520097    2.811487    0.289738
     32          1           0        1.176067    2.784967    1.207071
     33          1           0        0.545912    2.494205   -0.421198
     34          1           0        1.351369    4.026747   -0.044552
 ---------------------------------------------------------------------

 SCF Done:  E(RHF) =  -669.534807824     A.U. after   15 cycles
 E2 =    -0.2093199417D+01 EUMP2 =    -0.67162800724088D+03

 The electronic state is 1-A.
 Alpha  occ. eigenvalues --  -20.60723 -20.60717 -15.85775 -11.31128 -11.27688
 Alpha  occ. eigenvalues --  -11.27663 -11.27393 -11.26709 -11.26626 -11.22401
 Alpha  occ. eigenvalues --  -11.22362 -11.22226 -11.22100 -11.21921 -11.21707
 Alpha  occ. eigenvalues --   -1.59799  -1.39352  -1.19294  -1.09224  -1.08682
 Alpha  occ. eigenvalues --   -1.04702  -1.04292  -0.96754  -0.95523  -0.87776
 Alpha  occ. eigenvalues --   -0.86089  -0.82358  -0.80381  -0.79066  -0.77398
 Alpha  occ. eigenvalues --   -0.71992  -0.71123  -0.70383  -0.65850  -0.64938
 Alpha  occ. eigenvalues --   -0.64707  -0.62083  -0.61679  -0.60095  -0.58372
 Alpha  occ. eigenvalues --   -0.56048  -0.55173  -0.53431  -0.53296  -0.53034
 Alpha  occ. eigenvalues --   -0.52671  -0.50688  -0.48787  -0.48749  -0.48624
 Alpha  occ. eigenvalues --   -0.47398  -0.46588  -0.46481  -0.44761  -0.44549
 Alpha  occ. eigenvalues --   -0.37235  -0.36257
 Alpha virt. eigenvalues --    0.05086   0.11301   0.16498   0.19827   0.22517
 Alpha virt. eigenvalues --    0.23396   0.25025   0.25697   0.26413   0.28828
 Alpha virt. eigenvalues --    0.28949   0.30118   0.31154   0.31437   0.31809

 Mulliken charges:
               1
     1  C   -0.171888
     2  C   -0.216316
     3  C   -0.175338
     4  C    0.158445
     5  C   -0.171611
     6  C   -0.219580
     7  H    0.227029
     8  H    0.229145
     9  H    0.275968
    10  H    0.275196
    11  H    0.223177
    12  N    0.488082
    13  O   -0.460744
    14  O   -0.460477
    15  C   -0.298446
    16  C   -0.300421
    17  C   -0.475867
    18  H    0.153300
    19  H    0.151158
    20  H    0.151640
    21  H    0.146665
    22  H    0.156781
    23  H    0.157777
    24  H    0.160797
    25  C   -0.301612
    26  C   -0.299469
    27  C   -0.480975
    28  H    0.156326
    29  H    0.138774
    30  H    0.156674
    31  H    0.153683
    32  H    0.145082
    33  H    0.161196
    34  H    0.165850
 Sum of Mulliken charges =  -0.00000

 Dipole moment (field-independent basis, Debye):
    X=              4.6184    Y=             -1.3530    Z=              2.1687  Tot=              5.2786
 Quadrupole moment (field-independent basis, Debye-Ang):
   XX=           -121.4415   YY=            -89.5411   ZZ=            -94.0126
   XY=              4.1088   XZ=             -5.9862   YZ=              0.5151

 Normal termination of Gaussian 16 at Thu May  6 01:35:54 2021.
