 Gaussian 16, Revision A.03,
 Gaussian 16:  EM64L-G16RevA.03 25-Dec-2016

 -------------
 #p 6-31g* mp2
 -------------

 ------------------------------------------------------
 Input file generated by CHIRIPA (05-May-2021 14:57:25)
 ------------------------------------------------------
 Symbolic Z-matrix:
 Charge =  0 Multiplicity = 1

                         Standard orientation:
 ---------------------------------------------------------------------
 Center     Atomic      Atomic             Coordinates (Angstroms)
 Number     Number       Type             X           Y           Z
 ---------------------------------------------------------------------
      1          6           0        1.663583    1.186042    0.128150
      2          6           0        2.757569    2.047293   -0.005877
      3          6           0        4.053519    1.536054   -0.122905
      4          6           0        4.219828    0.152148   -0.101991
      5          6           0        3.150048   -0.731811    0.030209
      6          6           0        1.862962   -0.198320    0.145735
      7          1           0        0.660301    1.591828    0.218477
      8          1           0        2.605719    3.122835   -0.019848
      9          1           0        4.918258    2.179974   -0.227842
     10          1           0        3.332935   -1.799452    0.040827
     11          1           0        1.015225   -0.869572    0.249699
     12          7           0        5.587100   -0.400856   -0.225088
     13          8           0        5.707010   -1.623888   -0.203870
     14          8           0        6.512968    0.399203   -0.340459
     15          6           0       -5.959910    1.163983   -0.641213
     16          6           0       -5.740519   -0.086368   -1.228591
     17          6           0       -4.654736   -0.874637   -0.835842
     18          6           0       -3.804475   -0.379340    0.151592
     19          6           0       -3.996488    0.862240    0.755660
     20          6           0       -5.088730    1.633469    0.347296
     21          1           0       -6.805882    1.769710   -0.952375
     22          1           0       -6.415450   -0.453523   -1.996516
     23          1           0       -4.461445   -1.846300   -1.273939
     24          1           0       -3.306416    1.201403    1.518673
     25          1           0       -5.256655    2.604120    0.805205
     26          7           0       -2.651585   -1.204825    0.575644
     27          8           0       -1.917081   -0.745811    1.447680
     28          8           0       -2.504284   -2.295225    0.027950
 ---------------------------------------------------------------------

 SCF Done:  E(RHF) =  -868.340099449     A.U. after   16 cycles
 E2 =    -0.2598608492D+01 EUMP2 =    -0.87093870794086D+03

 The electronic state is 1-A.
 Alpha  occ. eigenvalues --  -20.61986 -20.61949 -20.60111 -20.60099 -15.86978
 Alpha  occ. eigenvalues --  -15.85152 -11.32088 -11.30377 -11.28645 -11.28593
 Alpha  occ. eigenvalues --  -11.28294 -11.27577 -11.27543 -11.26964 -11.26821
 Alpha  occ. eigenvalues --  -11.26591 -11.25990 -11.25671  -1.61032  -1.59186
 Alpha  occ. eigenvalues --   -1.40589  -1.38743  -1.20231  -1.18513  -1.09671
 Alpha  occ. eigenvalues --   -1.07931  -1.05591  -1.03874  -0.96547  -0.94799
 Alpha  occ. eigenvalues --   -0.86999  -0.85271  -0.83384  -0.81623  -0.78469
 Alpha  occ. eigenvalues --   -0.76692  -0.73191  -0.72342  -0.71374  -0.71325
 Alpha  occ. eigenvalues --   -0.70506  -0.69624  -0.65881  -0.65583  -0.64153
 Alpha  occ. eigenvalues --   -0.63831  -0.62940  -0.61204  -0.56088  -0.54385
 Alpha  occ. eigenvalues --   -0.53937  -0.53673  -0.52240  -0.51937  -0.49968
 Alpha  occ. eigenvalues --   -0.49932  -0.48138  -0.48115  -0.46042  -0.44180
 Alpha  occ. eigenvalues --   -0.38190  -0.37184  -0.36496  -0.35477
 Alpha virt. eigenvalues --    0.04008   0.05803   0.10471   0.12174   0.15557
 Alpha virt. eigenvalues --    0.17347   0.20626   0.22364   0.26553   0.27403
 Alpha virt. eigenvalues --    0.28411   0.28969   0.30435   0.31528   0.32339

 Mulliken charges:
               1
     1  C   -0.171677
     2  C   -0.218870
     3  C   -0.173139
     4  C    0.158347
     5  C   -0.173021
     6  C   -0.223427
     7  H    0.223341
     8  H    0.218364
     9  H    0.272214
    10  H    0.275976
    11  H    0.244467
    12  N    0.488063
    13  O   -0.460931
    14  O   -0.463444
    15  C   -0.169693
    16  C   -0.218345
    17  C   -0.170197
    18  C    0.157526
    19  C   -0.172739
    20  C   -0.218376
    21  H    0.228669
    22  H    0.226607
    23  H    0.277488
    24  H    0.273778
    25  H    0.225420
    26  N    0.487560
    27  O   -0.467456
    28  O   -0.456506
 Sum of Mulliken charges =  -0.00000

 Dipole moment (field-independent basis, Debye):
    X=             -9.4516    Y=              4.7032    Z=             -1.0971  Tot=             10.6140
 Quadrupole moment (field-independent basis, Debye-Ang):
   XX=           -114.3990   YY=           -100.0510   ZZ=           -104.5703
   XY=              0.4056   XZ=              8.8597   YZ=              3.2810

 Normal termination of Gaussian 16 at Wed May  5 21:06:56 2021.
