 Gaussian 16, Revision A.03,
 Gaussian 16:  EM64L-G16RevA.03 25-Dec-2016

 -------------
 #p 6-31g* mp2
 -------------

 ------------------------------------------------------
 Input file generated by CHIRIPA (05-May-2021 14:55:25)
 ------------------------------------------------------
 Symbolic Z-matrix:
 Charge =  0 Multiplicity = 1

                         Standard orientation:
 ---------------------------------------------------------------------
 Center     Atomic      Atomic             Coordinates (Angstroms)
 Number     Number       Type             X           Y           Z
 ---------------------------------------------------------------------
      1          6           0        3.904353    2.517672    0.336762
      2          6           0        2.583942    2.177991    0.649254
      3          6           0        2.117896    0.876143    0.443002
      4          6           0        3.003357   -0.065173   -0.079660
      5          6           0        4.324500    0.242463   -0.400958
      6          6           0        4.768894    1.550529   -0.186425
      7          1           0        4.257979    3.531394    0.500200
      8          1           0        1.910299    2.927028    1.055697
      9          1           0        1.100605    0.585999    0.676140
     10          1           0        4.972535   -0.525921   -0.804758
     11          1           0        5.794859    1.811481   -0.430031
     12          7           0        2.521436   -1.446673   -0.302394
     13          8           0        3.321355   -2.257646   -0.764009
     14          8           0        1.352913   -1.692360   -0.011139
     15          6           0       -4.379204    0.186920   -0.434673
     16          6           0       -5.105441    1.366243    0.213217
     17          6           0       -5.968132    2.146583   -0.779068
     18          1           0       -3.751141    0.557830   -1.256201
     19          1           0       -5.119824   -0.486980   -0.887149
     20          1           0       -4.363754    2.037006    0.665536
     21          1           0       -5.731701    0.992505    1.033422
     22          1           0       -6.729467    1.496411   -1.222064
     23          1           0       -5.353749    2.546847   -1.592040
     24          1           0       -6.478180    2.985143   -0.294789
     25          6           0       -3.512722   -0.602959    0.544627
     26          6           0       -2.786483   -1.782281   -0.103264
     27          6           0       -1.923793   -2.562622    0.889022
     28          1           0       -2.772100    0.070942    0.997102
     29          1           0       -4.140783   -0.973869    1.366155
     30          1           0       -2.160225   -1.408544   -0.923468
     31          1           0       -3.528170   -2.453046   -0.555582
     32          1           0       -2.538176   -2.962885    1.701994
     33          1           0       -1.162458   -1.912450    1.332018
     34          1           0       -1.413745   -3.401183    0.404743
 ---------------------------------------------------------------------

 SCF Done:  E(RHF) =  -669.535655332     A.U. after   15 cycles
 E2 =    -0.2091206129D+01 EUMP2 =    -0.67162686146029D+03

 The electronic state is 1-A.
 Alpha  occ. eigenvalues --  -20.60889 -20.60882 -15.85928 -11.31281 -11.27855
 Alpha  occ. eigenvalues --  -11.27842 -11.27586 -11.26861 -11.26851 -11.21435
 Alpha  occ. eigenvalues --  -11.21061 -11.20958 -11.20900 -11.20705 -11.19756
 Alpha  occ. eigenvalues --   -1.59957  -1.39512  -1.19452  -1.08850  -1.07973
 Alpha  occ. eigenvalues --   -1.04853  -1.02947  -0.95697  -0.95369  -0.86400
 Alpha  occ. eigenvalues --   -0.86251  -0.82521  -0.79058  -0.77755  -0.77564
 Alpha  occ. eigenvalues --   -0.72158  -0.71273  -0.70561  -0.65112  -0.64857
 Alpha  occ. eigenvalues --   -0.64611  -0.62203  -0.60334  -0.58814  -0.56973
 Alpha  occ. eigenvalues --   -0.55354  -0.54660  -0.53183  -0.52946  -0.52026
 Alpha  occ. eigenvalues --   -0.51817  -0.49377  -0.48907  -0.48864  -0.47346
 Alpha  occ. eigenvalues --   -0.46116  -0.45284  -0.45219  -0.44886  -0.43209
 Alpha  occ. eigenvalues --   -0.37431  -0.36456
 Alpha virt. eigenvalues --    0.04955   0.11198   0.16445   0.20824   0.23006
 Alpha virt. eigenvalues --    0.24318   0.26460   0.27446   0.27793   0.28222
 Alpha virt. eigenvalues --    0.29059   0.30622   0.31606   0.32207   0.32632

 Mulliken charges:
               1
     1  C   -0.170650
     2  C   -0.218627
     3  C   -0.170893
     4  C    0.157884
     5  C   -0.170790
     6  C   -0.218532
     7  H    0.225973
     8  H    0.223817
     9  H    0.275279
    10  H    0.275869
    11  H    0.223797
    12  N    0.493816
    13  O   -0.459576
    14  O   -0.464931
    15  C   -0.297702
    16  C   -0.298538
    17  C   -0.475313
    18  H    0.148172
    19  H    0.150117
    20  H    0.147967
    21  H    0.152012
    22  H    0.155874
    23  H    0.154089
    24  H    0.158740
    25  C   -0.296216
    26  C   -0.301050
    27  C   -0.471574
    28  H    0.141802
    29  H    0.148553
    30  H    0.155601
    31  H    0.148593
    32  H    0.144960
    33  H    0.161289
    34  H    0.170189
 Sum of Mulliken charges =  -0.00000

 Dipole moment (field-independent basis, Debye):
    X=              1.9356    Y=              4.7668    Z=              0.7333  Tot=              5.1968
 Quadrupole moment (field-independent basis, Debye-Ang):
   XX=            -81.0213   YY=            -95.5797   ZZ=            -95.5633
   XY=             14.4390   XZ=              0.0240   YZ=              0.5000

 Normal termination of Gaussian 16 at Thu May  6 01:36:27 2021.
