 Gaussian 16, Revision A.03,
 Gaussian 16:  EM64L-G16RevA.03 25-Dec-2016

 -------------
 #p 6-31g* mp2
 -------------

 ------------------------------------------------------
 Input file generated by CHIRIPA (05-May-2021 14:57:23)
 ------------------------------------------------------
 Symbolic Z-matrix:
 Charge =  0 Multiplicity = 1

                         Standard orientation:
 ---------------------------------------------------------------------
 Center     Atomic      Atomic             Coordinates (Angstroms)
 Number     Number       Type             X           Y           Z
 ---------------------------------------------------------------------
      1          6           0       -2.666203    2.584152   -0.202135
      2          6           0       -1.734023    1.579155   -0.480601
      3          6           0       -2.089101    0.231361   -0.371433
      4          6           0       -3.390873   -0.076971    0.020502
      5          6           0       -4.342225    0.901500    0.304781
      6          6           0       -3.965039    2.242719    0.188978
      7          1           0       -2.381782    3.628597   -0.289516
      8          1           0       -0.724617    1.841372   -0.784553
      9          1           0       -1.387379   -0.566820   -0.580981
     10          1           0       -5.340939    0.609073    0.605572
     11          1           0       -4.691072    3.021100    0.405871
     12          7           0       -3.778481   -1.500340    0.139586
     13          8           0       -4.931685   -1.745777    0.486741
     14          8           0       -2.921744   -2.343587   -0.116488
     15          6           0        3.955898    2.277531    0.200255
     16          6           0        2.664918    1.918831   -0.201275
     17          6           0        2.305386    0.572692   -0.316145
     18          6           0        3.266190   -0.393039   -0.020321
     19          6           0        4.560506   -0.067399    0.382165
     20          6           0        4.897911    1.285020    0.490182
     21          1           0        4.226597    3.325683    0.286827
     22          1           0        1.931280    2.687487   -0.427080
     23          1           0        1.313083    0.266991   -0.624852
     24          1           0        5.270146   -0.856177    0.600472
     25          1           0        5.901249    1.560656    0.802241
     26          7           0        2.897281   -1.821460   -0.138301
     27          8           0        3.762060   -2.653237    0.128049
     28          8           0        1.750338   -2.082232   -0.494891
 ---------------------------------------------------------------------

 SCF Done:  E(RHF) =  -868.335423810     A.U. after   16 cycles
 E2 =    -0.2601246443D+01 EUMP2 =    -0.87093667025377D+03

 The electronic state is 1-A.
 Alpha  occ. eigenvalues --  -20.61126 -20.61116 -20.60566 -20.60518 -15.86178
 Alpha  occ. eigenvalues --  -15.85609 -11.31743 -11.31238 -11.28464 -11.28267
 Alpha  occ. eigenvalues --  -11.28088 -11.27867 -11.27856 -11.27749 -11.27493
 Alpha  occ. eigenvalues --  -11.27311 -11.27098 -11.26923  -1.60184  -1.59622
 Alpha  occ. eigenvalues --   -1.39737  -1.39163  -1.19931  -1.19474  -1.09276
 Alpha  occ. eigenvalues --   -1.08832  -1.05395  -1.04935  -0.96085  -0.95606
 Alpha  occ. eigenvalues --   -0.86770  -0.86327  -0.82941  -0.82451  -0.77993
 Alpha  occ. eigenvalues --   -0.77407  -0.72387  -0.71819  -0.71508  -0.71054
 Alpha  occ. eigenvalues --   -0.70955  -0.70580  -0.65609  -0.65429  -0.65129
 Alpha  occ. eigenvalues --   -0.64995  -0.62910  -0.62103  -0.55853  -0.55444
 Alpha  occ. eigenvalues --   -0.53667  -0.53506  -0.53227  -0.53051  -0.49155
 Alpha  occ. eigenvalues --   -0.49137  -0.48615  -0.48551  -0.45095  -0.44511
 Alpha  occ. eigenvalues --   -0.37886  -0.37483  -0.36991  -0.36528
 Alpha virt. eigenvalues --    0.04612   0.05132   0.10674   0.11105   0.16072
 Alpha virt. eigenvalues --    0.16504   0.17706   0.22320   0.24600   0.25160
 Alpha virt. eigenvalues --    0.27904   0.28975   0.30674   0.31283   0.33594

 Mulliken charges:
               1
     1  C   -0.170904
     2  C   -0.221327
     3  C   -0.177334
     4  C    0.158740
     5  C   -0.169456
     6  C   -0.218889
     7  H    0.222632
     8  H    0.211864
     9  H    0.289896
    10  H    0.276891
    11  H    0.223678
    12  N    0.487323
    13  O   -0.462106
    14  O   -0.451774
    15  C   -0.170071
    16  C   -0.219712
    17  C   -0.172090
    18  C    0.159875
    19  C   -0.168887
    20  C   -0.218233
    21  H    0.226720
    22  H    0.215999
    23  H    0.270858
    24  H    0.278408
    25  H    0.225967
    26  N    0.489019
    27  O   -0.456491
    28  O   -0.460598
 Sum of Mulliken charges =  -0.00000

 Dipole moment (field-independent basis, Debye):
    X=              2.7897    Y=              9.7416    Z=              0.0839  Tot=             10.1336
 Quadrupole moment (field-independent basis, Debye-Ang):
   XX=            -95.6858   YY=           -109.9336   ZZ=           -105.7645
   XY=             -3.8944   XZ=              3.0401   YZ=              0.0482

 Normal termination of Gaussian 16 at Fri May  7 06:28:43 2021.
