 Gaussian 16, Revision A.03,
 Gaussian 16:  EM64L-G16RevA.03 25-Dec-2016

 -------------
 #p 6-31g* mp2
 -------------

 ------------------------------------------------------
 Input file generated by CHIRIPA (05-May-2021 14:53:14)
 ------------------------------------------------------
 Symbolic Z-matrix:
 Charge =  0 Multiplicity = 1

                         Standard orientation:
 ---------------------------------------------------------------------
 Center     Atomic      Atomic             Coordinates (Angstroms)
 Number     Number       Type             X           Y           Z
 ---------------------------------------------------------------------
      1          6           0       -3.981508   -0.529556   -0.056286
      2          6           0       -3.550525   -1.977380   -0.293024
      3          6           0       -4.630776   -2.986936    0.096393
      4          1           0       -4.241917   -0.399752    1.003093
      5          1           0       -4.896743   -0.328276   -0.630068
      6          1           0       -2.635600   -2.175459    0.279946
      7          1           0       -3.290928   -2.103703   -1.351923
      8          1           0       -5.543435   -2.817745   -0.484149
      9          1           0       -4.884384   -2.889908    1.156992
     10          1           0       -4.301652   -4.015560   -0.081007
     11          6           0       -2.912185    0.491431   -0.440811
     12          6           0       -3.343169    1.939255   -0.204073
     13          6           0       -2.262917    2.948811   -0.593490
     14          1           0       -1.996950    0.290151    0.132971
     15          1           0       -2.651776    0.361627   -1.500190
     16          1           0       -3.602765    2.065578    0.854826
     17          1           0       -4.258093    2.137334   -0.777043
     18          1           0       -2.009309    2.851783   -1.654089
     19          1           0       -1.350258    2.779620   -0.012948
     20          1           0       -2.592041    3.977435   -0.416090
     21          6           0        1.022132    1.605363    1.216447
     22          6           0        1.723113    1.972584    0.063062
     23          6           0        2.651185    1.099339   -0.511980
     24          6           0        2.854367   -0.138868    0.095349
     25          6           0        2.171562   -0.533642    1.244793
     26          6           0        1.248196    0.355626    1.802598
     27          1           0        0.303011    2.289944    1.656458
     28          1           0        1.549588    2.942504   -0.394309
     29          1           0        3.207623    1.358126   -1.404630
     30          1           0        2.366028   -1.507268    1.677982
     31          1           0        0.705247    0.067764    2.698359
     32          7           0        3.834385   -1.071814   -0.504298
     33          8           0        3.995248   -2.156969    0.049959
     34          8           0        4.423103   -0.700238   -1.517204
 ---------------------------------------------------------------------

 SCF Done:  E(RHF) =  -669.535088541     A.U. after   15 cycles
 E2 =    -0.2092513280D+01 EUMP2 =    -0.67162760182162D+03

 The electronic state is 1-A.
 Alpha  occ. eigenvalues --  -20.60796 -20.60791 -15.85851 -11.31239 -11.27814
 Alpha  occ. eigenvalues --  -11.27795 -11.27559 -11.26850 -11.26809 -11.22287
 Alpha  occ. eigenvalues --  -11.21935 -11.21929 -11.21878 -11.21790 -11.21340
 Alpha  occ. eigenvalues --   -1.59871  -1.39424  -1.19418  -1.08939  -1.08806
 Alpha  occ. eigenvalues --   -1.04819  -1.04059  -0.96520  -0.95643  -0.87543
 Alpha  occ. eigenvalues --   -0.86216  -0.82472  -0.80126  -0.78709  -0.77507
 Alpha  occ. eigenvalues --   -0.72069  -0.71194  -0.70566  -0.65577  -0.65074
 Alpha  occ. eigenvalues --   -0.64819  -0.62166  -0.61471  -0.59886  -0.58109
 Alpha  occ. eigenvalues --   -0.55932  -0.55242  -0.53217  -0.53190  -0.52936
 Alpha  occ. eigenvalues --   -0.52868  -0.50468  -0.48829  -0.48822  -0.48429
 Alpha  occ. eigenvalues --   -0.47155  -0.46256  -0.46172  -0.44825  -0.44291
 Alpha  occ. eigenvalues --   -0.37345  -0.36411
 Alpha virt. eigenvalues --    0.04984   0.11135   0.16379   0.20377   0.22656
 Alpha virt. eigenvalues --    0.23960   0.26088   0.26258   0.27025   0.27797
 Alpha virt. eigenvalues --    0.28741   0.30436   0.31054   0.31564   0.32142

 Mulliken charges:
               1
     1  C   -0.298594
     2  C   -0.299614
     3  C   -0.476035
     4  H    0.147705
     5  H    0.150789
     6  H    0.151101
     7  H    0.154299
     8  H    0.155913
     9  H    0.154231
    10  H    0.162311
    11  C   -0.300704
    12  C   -0.299713
    13  C   -0.479303
    14  H    0.149548
    15  H    0.152316
    16  H    0.149433
    17  H    0.155279
    18  H    0.158749
    19  H    0.146686
    20  H    0.160894
    21  C   -0.170543
    22  C   -0.216608
    23  C   -0.171218
    24  C    0.158835
    25  C   -0.170880
    26  C   -0.220304
    27  H    0.226922
    28  H    0.225414
    29  H    0.275964
    30  H    0.275843
    31  H    0.223668
    32  N    0.488075
    33  O   -0.460286
    34  O   -0.460176
 Sum of Mulliken charges =  -0.00000

 Dipole moment (field-independent basis, Debye):
    X=             -3.4660    Y=              3.2242    Z=              2.0443  Tot=              5.1563
 Quadrupole moment (field-independent basis, Debye-Ang):
   XX=           -115.1584   YY=            -94.6176   ZZ=            -91.2173
   XY=             10.2661   XZ=              5.6356   YZ=             -2.6369

 Normal termination of Gaussian 16 at Thu May  6 13:48:00 2021.
