 Gaussian 16, Revision A.03,
 Gaussian 16:  EM64L-G16RevA.03 25-Dec-2016

 -------------
 #p 6-31g* mp2
 -------------

 ------------------------------------------------------
 Input file generated by CHIRIPA (05-May-2021 14:53:11)
 ------------------------------------------------------
 Symbolic Z-matrix:
 Charge =  0 Multiplicity = 1

                         Standard orientation:
 ---------------------------------------------------------------------
 Center     Atomic      Atomic             Coordinates (Angstroms)
 Number     Number       Type             X           Y           Z
 ---------------------------------------------------------------------
      1          6           0       -2.968623    0.826679   -0.028688
      2          6           0       -3.587036    2.225008   -0.013702
      3          6           0       -2.562539    3.321360    0.279918
      4          1           0       -2.490733    0.633616    0.941514
      5          1           0       -2.169767    0.794702   -0.782479
      6          1           0       -4.385417    2.253936    0.738873
      7          1           0       -4.063676    2.414691   -0.983986
      8          1           0       -1.770892    3.321384   -0.476320
      9          1           0       -2.094461    3.159717    1.256327
     10          1           0       -3.026069    4.312806    0.285863
     11          6           0       -3.980304   -0.280052   -0.320883
     12          6           0       -3.361891   -1.678381   -0.335869
     13          6           0       -4.386388   -2.774733   -0.629489
     14          1           0       -4.779160   -0.248075    0.432909
     15          1           0       -4.458195   -0.086989   -1.291085
     16          1           0       -2.885251   -1.868064    0.634415
     17          1           0       -2.563511   -1.707309   -1.088443
     18          1           0       -4.854466   -2.613090   -1.605898
     19          1           0       -5.178035   -2.774757    0.126750
     20          1           0       -3.922858   -3.766179   -0.635434
     21          6           0        0.479154   -0.981866    1.019240
     22          6           0        0.673970    0.361288    0.680855
     23          6           0        1.908286    0.798211    0.190844
     24          6           0        2.930522   -0.139246    0.051216
     25          6           0        2.767385   -1.484157    0.379682
     26          6           0        1.524639   -1.898686    0.867840
     27          1           0       -0.482967   -1.312581    1.399171
     28          1           0       -0.136174    1.075522    0.797397
     29          1           0        2.086426    1.832130   -0.078776
     30          1           0        3.593888   -2.172745    0.252576
     31          1           0        1.376206   -2.942416    1.129830
     32          7           0        4.241699    0.311451   -0.466556
     33          8           0        5.126324   -0.534202   -0.580341
     34          8           0        4.359948    1.501827   -0.748796
 ---------------------------------------------------------------------

 SCF Done:  E(RHF) =  -669.534619547     A.U. after   15 cycles
 E2 =    -0.2093429841D+01 EUMP2 =    -0.67162804938737D+03

 The electronic state is 1-A.
 Alpha  occ. eigenvalues --  -20.60665 -20.60660 -15.85716 -11.31046 -11.27615
 Alpha  occ. eigenvalues --  -11.27584 -11.27299 -11.26625 -11.26497 -11.22699
 Alpha  occ. eigenvalues --  -11.22644 -11.22583 -11.22407 -11.22129 -11.21929
 Alpha  occ. eigenvalues --   -1.59742  -1.39296  -1.19208  -1.09546  -1.08601
 Alpha  occ. eigenvalues --   -1.04626  -1.04546  -0.97012  -0.95451  -0.88029
 Alpha  occ. eigenvalues --   -0.86013  -0.82290  -0.80640  -0.79446  -0.77319
 Alpha  occ. eigenvalues --   -0.71935  -0.71065  -0.70319  -0.66158  -0.64853
 Alpha  occ. eigenvalues --   -0.64612  -0.62003  -0.61933  -0.60369  -0.58637
 Alpha  occ. eigenvalues --   -0.56293  -0.55116  -0.53666  -0.53465  -0.52936
 Alpha  occ. eigenvalues --   -0.52699  -0.50946  -0.48959  -0.48693  -0.48652
 Alpha  occ. eigenvalues --   -0.47667  -0.46871  -0.46788  -0.44831  -0.44710
 Alpha  occ. eigenvalues --   -0.37165  -0.36201
 Alpha virt. eigenvalues --    0.05175   0.11371   0.16622   0.19554   0.21957
 Alpha virt. eigenvalues --    0.22636   0.24797   0.26083   0.26169   0.28504
 Alpha virt. eigenvalues --    0.29312   0.30158   0.30858   0.31606   0.31778

 Mulliken charges:
               1
     1  C   -0.306720
     2  C   -0.298885
     3  C   -0.481370
     4  H    0.139890
     5  H    0.155193
     6  H    0.155104
     7  H    0.157035
     8  H    0.155581
     9  H    0.152142
    10  H    0.167680
    11  C   -0.297828
    12  C   -0.303450
    13  C   -0.475994
    14  H    0.152168
    15  H    0.154860
    16  H    0.143078
    17  H    0.156889
    18  H    0.159057
    19  H    0.157006
    20  H    0.161515
    21  C   -0.174999
    22  C   -0.225620
    23  C   -0.173925
    24  C    0.158653
    25  C   -0.171469
    26  C   -0.219916
    27  H    0.230095
    28  H    0.235287
    29  H    0.275104
    30  H    0.274888
    31  H    0.222730
    32  N    0.487996
    33  O   -0.460950
    34  O   -0.460825
 Sum of Mulliken charges =  -0.00000

 Dipole moment (field-independent basis, Debye):
    X=             -4.9593    Y=             -1.5231    Z=              1.6871  Tot=              5.4554
 Quadrupole moment (field-independent basis, Debye-Ang):
   XX=           -121.2497   YY=            -90.3543   ZZ=            -94.4023
   XY=             -6.6580   XZ=              5.4009   YZ=             -1.0031

 Normal termination of Gaussian 16 at Thu May  6 02:29:37 2021.
