 Gaussian 16, Revision A.03,
 Gaussian 16:  EM64L-G16RevA.03 25-Dec-2016

 -------------
 #p 6-31g* mp2
 -------------

 ------------------------------------------------------
 Input file generated by CHIRIPA (05-May-2021 14:51:14)
 ------------------------------------------------------
 Symbolic Z-matrix:
 Charge =  0 Multiplicity = 1

                         Standard orientation:
 ---------------------------------------------------------------------
 Center     Atomic      Atomic             Coordinates (Angstroms)
 Number     Number       Type             X           Y           Z
 ---------------------------------------------------------------------
      1          6           0       -4.063563   -0.640636   -0.143393
      2          6           0       -4.759269    0.720954   -0.150588
      3          6           0       -6.243316    0.624657   -0.505729
      4          1           0       -4.176072   -1.107986   -1.131255
      5          1           0       -4.571178   -1.300175    0.574054
      6          1           0       -4.249636    1.378171   -0.866797
      7          1           0       -4.644927    1.185201    0.837348
      8          1           0       -6.771331   -0.009182    0.214027
      9          1           0       -6.373795    0.184885   -1.499800
     10          1           0       -6.721003    1.609378   -0.505027
     11          6           0       -2.579468   -0.560788    0.209896
     12          6           0       -1.883762   -1.922377    0.217091
     13          6           0       -0.399715   -1.826081    0.572232
     14          1           0       -2.071854    0.098752   -0.507551
     15          1           0       -2.466959   -0.093437    1.197758
     16          1           0       -1.998104   -2.386625   -0.770845
     17          1           0       -2.393395   -2.579595    0.933300
     18          1           0       -0.269237   -1.386308    1.566303
     19          1           0        0.128300   -1.192241   -0.147524
     20          1           0        0.077971   -2.810802    0.571530
     21          6           0        4.083946    0.569557    0.000809
     22          6           0        4.655299   -0.782556   -0.427364
     23          6           0        6.181799   -0.829307   -0.353835
     24          1           0        4.507476    1.357829   -0.636525
     25          1           0        4.409416    0.788874    1.027145
     26          1           0        4.327709   -0.999896   -1.452090
     27          1           0        4.230214   -1.567723    0.210939
     28          1           0        6.524295   -0.637808    0.668234
     29          1           0        6.622346   -0.066754   -1.004244
     30          1           0        6.568992   -1.804811   -0.664213
     31          6           0        2.559084    0.631866   -0.067311
     32          6           0        1.987732    1.983979    0.360861
     33          6           0        0.461232    2.030730    0.287332
     34          1           0        2.233616    0.412549   -1.093648
     35          1           0        2.135555   -0.156406    0.570022
     36          1           0        2.412818    2.769147   -0.277442
     37          1           0        2.315322    2.201319    1.385587
     38          1           0        0.020686    1.268177    0.937741
     39          1           0        0.118735    1.839232   -0.734738
     40          1           0        0.074039    3.006234    0.597710
 ---------------------------------------------------------------------

 SCF Done:  E(RHF) =  -470.731485991     A.U. after   11 cycles
 E2 =    -0.1584745933D+01 EUMP2 =    -0.47231623192366D+03

 The electronic state is 1-A.
 Alpha  occ. eigenvalues --  -11.21561 -11.21555 -11.21549 -11.21537 -11.21341
 Alpha  occ. eigenvalues --  -11.21336 -11.21272 -11.21259 -11.21041 -11.21038
 Alpha  occ. eigenvalues --  -11.20977 -11.20954  -1.08419  -1.08343  -1.03547
 Alpha  occ. eigenvalues --   -1.03425  -0.95960  -0.95910  -0.87023  -0.86895
 Alpha  occ. eigenvalues --   -0.79751  -0.79421  -0.78344  -0.78002  -0.65026
 Alpha  occ. eigenvalues --   -0.65003  -0.60916  -0.60871  -0.59425  -0.59219
 Alpha  occ. eigenvalues --   -0.57562  -0.57527  -0.55245  -0.55209  -0.52747
 Alpha  occ. eigenvalues --   -0.52628  -0.52489  -0.52157  -0.49897  -0.49866
 Alpha  occ. eigenvalues --   -0.48309  -0.47634  -0.46654  -0.46556  -0.46003
 Alpha  occ. eigenvalues --   -0.45755  -0.45551  -0.45018  -0.43740  -0.43721
 Alpha virt. eigenvalues --    0.21812   0.22923   0.23555   0.24959   0.25151
 Alpha virt. eigenvalues --    0.26490   0.26594   0.27204   0.28371   0.29683
 Alpha virt. eigenvalues --    0.30119   0.31360   0.31649   0.31683   0.32235

 Mulliken charges:
               1
     1  C   -0.298169
     2  C   -0.299448
     3  C   -0.475667
     4  H    0.149265
     5  H    0.149149
     6  H    0.152041
     7  H    0.151942
     8  H    0.155055
     9  H    0.155015
    10  H    0.160127
    11  C   -0.301643
    12  C   -0.299615
    13  C   -0.481889
    14  H    0.154667
    15  H    0.149095
    16  H    0.151476
    17  H    0.151131
    18  H    0.152550
    19  H    0.165202
    20  H    0.159489
    21  C   -0.297435
    22  C   -0.299645
    23  C   -0.475649
    24  H    0.149157
    25  H    0.149249
    26  H    0.151565
    27  H    0.152229
    28  H    0.155106
    29  H    0.155061
    30  H    0.160098
    31  C   -0.305220
    32  C   -0.299048
    33  C   -0.480770
    34  H    0.147418
    35  H    0.159361
    36  H    0.151135
    37  H    0.151300
    38  H    0.163666
    39  H    0.153212
    40  H    0.159439
 Sum of Mulliken charges =  -0.00000

 Dipole moment (field-independent basis, Debye):
    X=              0.0015    Y=             -0.0069    Z=              0.0072  Tot=              0.0101
 Quadrupole moment (field-independent basis, Debye-Ang):
   XX=            -87.4015   YY=            -84.8957   ZZ=            -82.9138
   XY=              0.2277   XZ=             -0.4838   YZ=             -0.3632

 Normal termination of Gaussian 16 at Wed May  5 15:22:48 2021.
