 Gaussian 16, Revision A.03,
 Gaussian 16:  EM64L-G16RevA.03 25-Dec-2016

 -------------
 #p 6-31g* mp2
 -------------

 ------------------------------------------------------
 Input file generated by CHIRIPA (05-May-2021 14:53:17)
 ------------------------------------------------------
 Symbolic Z-matrix:
 Charge =  0 Multiplicity = 1

                         Standard orientation:
 ---------------------------------------------------------------------
 Center     Atomic      Atomic             Coordinates (Angstroms)
 Number     Number       Type             X           Y           Z
 ---------------------------------------------------------------------
      1          6           0       -3.726898   -0.555014    0.049717
      2          6           0       -5.039696   -1.266498   -0.279430
      3          6           0       -5.106801   -2.680470    0.298475
      4          1           0       -2.887906   -1.150392   -0.335719
      5          1           0       -3.604625   -0.512340    1.140874
      6          1           0       -5.160127   -1.306591   -1.369616
      7          1           0       -5.875671   -0.669261    0.106666
      8          1           0       -5.011997   -2.655876    1.388891
      9          1           0       -4.292388   -3.296827   -0.095779
     10          1           0       -6.053579   -3.170712    0.051222
     11          6           0       -3.644805    0.859573   -0.521189
     12          6           0       -2.332008    1.571057   -0.192042
     13          6           0       -2.264902    2.985029   -0.769946
     14          1           0       -3.767079    0.816899   -1.612345
     15          1           0       -4.483798    1.454952   -0.135753
     16          1           0       -1.496033    0.973820   -0.578138
     17          1           0       -2.211577    1.611150    0.898144
     18          1           0       -3.079316    3.601387   -0.375693
     19          1           0       -2.359706    2.960436   -1.860363
     20          1           0       -1.318124    3.475272   -0.522693
     21          6           0        1.038304    1.321657    1.132986
     22          6           0        2.208008    1.912680    0.644104
     23          6           0        3.234756    1.124268    0.116143
     24          6           0        3.057579   -0.258243    0.092440
     25          6           0        1.903969   -0.876784    0.571900
     26          6           0        0.890279   -0.068737    1.095391
     27          1           0        0.245773    1.941741    1.541382
     28          1           0        2.325713    2.992222    0.672029
     29          1           0        4.150709    1.555621   -0.269061
     30          1           0        1.815575   -1.955627    0.530658
     31          1           0       -0.017038   -0.530480    1.474357
     32          7           0        4.137639   -1.103293   -0.464121
     33          8           0        3.957112   -2.319004   -0.473685
     34          8           0        5.144266   -0.533929   -0.880253
 ---------------------------------------------------------------------

 SCF Done:  E(RHF) =  -669.534987798     A.U. after   15 cycles
 E2 =    -0.2092776134D+01 EUMP2 =    -0.67162776393210D+03

 The electronic state is 1-A.
 Alpha  occ. eigenvalues --  -20.60740 -20.60734 -15.85794 -11.31147 -11.27728
 Alpha  occ. eigenvalues --  -11.27716 -11.27419 -11.26725 -11.26691 -11.22561
 Alpha  occ. eigenvalues --  -11.22229 -11.22183 -11.22136 -11.21989 -11.21590
 Alpha  occ. eigenvalues --   -1.59816  -1.39370  -1.19326  -1.09233  -1.08711
 Alpha  occ. eigenvalues --   -1.04728  -1.04300  -0.96736  -0.95551  -0.87749
 Alpha  occ. eigenvalues --   -0.86122  -0.82389  -0.80396  -0.79061  -0.77431
 Alpha  occ. eigenvalues --   -0.72011  -0.71140  -0.70428  -0.65846  -0.64972
 Alpha  occ. eigenvalues --   -0.64726  -0.62073  -0.61689  -0.60139  -0.58382
 Alpha  occ. eigenvalues --   -0.56003  -0.55176  -0.53447  -0.53162  -0.53048
 Alpha  occ. eigenvalues --   -0.52808  -0.50660  -0.48774  -0.48770  -0.48679
 Alpha  occ. eigenvalues --   -0.47408  -0.46576  -0.46491  -0.44778  -0.44559
 Alpha  occ. eigenvalues --   -0.37239  -0.36323
 Alpha virt. eigenvalues --    0.05079   0.11238   0.16504   0.19877   0.22497
 Alpha virt. eigenvalues --    0.23592   0.25141   0.25519   0.26554   0.28491
 Alpha virt. eigenvalues --    0.28864   0.30485   0.30858   0.31091   0.32117

 Mulliken charges:
               1
     1  C   -0.300098
     2  C   -0.300027
     3  C   -0.476459
     4  H    0.149139
     5  H    0.145693
     6  H    0.154524
     7  H    0.153363
     8  H    0.154579
     9  H    0.155984
    10  H    0.162975
    11  C   -0.297826
    12  C   -0.307296
    13  C   -0.475727
    14  H    0.153595
    15  H    0.151384
    16  H    0.161414
    17  H    0.139899
    18  H    0.157437
    19  H    0.160935
    20  H    0.154449
    21  C   -0.168500
    22  C   -0.220439
    23  C   -0.170799
    24  C    0.158172
    25  C   -0.172369
    26  C   -0.220512
    27  H    0.229620
    28  H    0.223130
    29  H    0.275447
    30  H    0.275387
    31  H    0.226058
    32  N    0.488117
    33  O   -0.460651
    34  O   -0.460599
 Sum of Mulliken charges =  -0.00000

 Dipole moment (field-independent basis, Debye):
    X=             -3.9692    Y=              2.9572    Z=              1.8538  Tot=              5.2855
 Quadrupole moment (field-independent basis, Debye-Ang):
   XX=           -116.4190   YY=            -94.0651   ZZ=            -94.3436
   XY=             12.4938   XZ=              5.1650   YZ=             -0.5314

 Normal termination of Gaussian 16 at Thu May  6 10:42:51 2021.
