 Gaussian 16, Revision A.03,
 Gaussian 16:  EM64L-G16RevA.03 25-Dec-2016

 -------------
 #p 6-31g* mp2
 -------------

 ------------------------------------------------------
 Input file generated by CHIRIPA (05-May-2021 14:55:21)
 ------------------------------------------------------
 Symbolic Z-matrix:
 Charge =  0 Multiplicity = 1

                         Standard orientation:
 ---------------------------------------------------------------------
 Center     Atomic      Atomic             Coordinates (Angstroms)
 Number     Number       Type             X           Y           Z
 ---------------------------------------------------------------------
      1          6           0        0.851752   -1.259827    2.008233
      2          6           0        1.240049    0.083562    1.975827
      3          6           0        2.096051    0.551254    0.974291
      4          6           0        2.546792   -0.356008    0.016691
      5          6           0        2.177886   -1.700318    0.022114
      6          6           0        1.321082   -2.145918    1.032993
      7          1           0        0.186477   -1.614561    2.789879
      8          1           0        0.877121    0.773971    2.731911
      9          1           0        2.412509    1.586093    0.925499
     10          1           0        2.556106   -2.364744   -0.745288
     11          1           0        1.021186   -3.189754    1.055675
     12          7           0        3.453427    0.127422   -1.048535
     13          8           0        3.836655   -0.691977   -1.880616
     14          8           0        3.763652    1.316581   -1.031209
     15          6           0       -2.979182    1.306891   -0.127320
     16          6           0       -1.521406    1.717764    0.082586
     17          6           0       -1.358672    3.219578    0.318948
     18          1           0       -3.390096    1.860758   -0.982496
     19          1           0       -3.567449    1.606639    0.751024
     20          1           0       -0.935802    1.416094   -0.795297
     21          1           0       -1.113858    1.162714    0.937243
     22          1           0       -1.918292    3.532774    1.206266
     23          1           0       -1.739226    3.787594   -0.536117
     24          1           0       -0.308802    3.491308    0.466584
     25          6           0       -3.158079   -0.191542   -0.364849
     26          6           0       -4.615854   -0.602415   -0.574755
     27          6           0       -4.778590   -2.104228   -0.811117
     28          1           0       -2.569812   -0.491289   -1.243193
     29          1           0       -2.747164   -0.745408    0.490327
     30          1           0       -5.023403   -0.047364   -1.429412
     31          1           0       -5.201458   -0.300744    0.303128
     32          1           0       -4.398035   -2.672245    0.043948
     33          1           0       -4.218968   -2.417424   -1.698436
     34          1           0       -5.828459   -2.375958   -0.958753
 ---------------------------------------------------------------------

 SCF Done:  E(RHF) =  -669.534638011     A.U. after   15 cycles
 E2 =    -0.2093291077D+01 EUMP2 =    -0.67162792908829D+03

 The electronic state is 1-A.
 Alpha  occ. eigenvalues --  -20.60803 -20.60798 -15.85856 -11.31238 -11.27785
 Alpha  occ. eigenvalues --  -11.27782 -11.27538 -11.26822 -11.26807 -11.21922
 Alpha  occ. eigenvalues --  -11.21773 -11.21724 -11.21637 -11.21425 -11.21388
 Alpha  occ. eigenvalues --   -1.59878  -1.39431  -1.19406  -1.08815  -1.08722
 Alpha  occ. eigenvalues --   -1.04818  -1.03833  -0.96302  -0.95632  -0.87313
 Alpha  occ. eigenvalues --   -0.86214  -0.82468  -0.79896  -0.78551  -0.77506
 Alpha  occ. eigenvalues --   -0.72074  -0.71200  -0.70511  -0.65393  -0.65060
 Alpha  occ. eigenvalues --   -0.64811  -0.62172  -0.61236  -0.59678  -0.57920
 Alpha  occ. eigenvalues --   -0.55598  -0.55310  -0.53226  -0.52956  -0.52897
 Alpha  occ. eigenvalues --   -0.52708  -0.50240  -0.48835  -0.48828  -0.48200
 Alpha  occ. eigenvalues --   -0.46935  -0.46082  -0.46019  -0.44832  -0.44092
 Alpha  occ. eigenvalues --   -0.37350  -0.36310
 Alpha virt. eigenvalues --    0.04998   0.11137   0.16438   0.20631   0.22774
 Alpha virt. eigenvalues --    0.23837   0.26259   0.26509   0.27013   0.28161
 Alpha virt. eigenvalues --    0.28649   0.30147   0.31200   0.31436   0.31791

 Mulliken charges:
               1
     1  C   -0.170699
     2  C   -0.218503
     3  C   -0.167736
     4  C    0.158398
     5  C   -0.171150
     6  C   -0.217367
     7  H    0.225519
     8  H    0.224355
     9  H    0.275739
    10  H    0.275700
    11  H    0.223819
    12  N    0.487928
    13  O   -0.460282
    14  O   -0.460274
    15  C   -0.298474
    16  C   -0.303245
    17  C   -0.476492
    18  H    0.151488
    19  H    0.147234
    20  H    0.155377
    21  H    0.151413
    22  H    0.152567
    23  H    0.159381
    24  H    0.157009
    25  C   -0.296858
    26  C   -0.299841
    27  C   -0.475395
    28  H    0.151919
    29  H    0.143793
    30  H    0.153979
    31  H    0.151196
    32  H    0.151764
    33  H    0.156262
    34  H    0.161475
 Sum of Mulliken charges =  -0.00000

 Dipole moment (field-independent basis, Debye):
    X=             -3.1587    Y=             -1.7245    Z=              3.6929  Tot=              5.1564
 Quadrupole moment (field-independent basis, Debye-Ang):
   XX=           -112.0220   YY=            -90.5895   ZZ=            -93.4473
   XY=             -3.6993   XZ=              9.5442   YZ=              0.2139

 Normal termination of Gaussian 16 at Thu May  6 07:45:28 2021.
