 Gaussian 16, Revision A.03,
 Gaussian 16:  EM64L-G16RevA.03 25-Dec-2016

 -------------
 #p 6-31g* mp2
 -------------

 ------------------------------------------------------
 Input file generated by CHIRIPA (05-May-2021 14:51:11)
 ------------------------------------------------------
 Symbolic Z-matrix:
 Charge =  0 Multiplicity = 1

                         Standard orientation:
 ---------------------------------------------------------------------
 Center     Atomic      Atomic             Coordinates (Angstroms)
 Number     Number       Type             X           Y           Z
 ---------------------------------------------------------------------
      1          6           0        2.715459   -0.278688    0.435570
      2          6           0        3.908842    0.489992   -0.132720
      3          6           0        4.348489    1.647005    0.764957
      4          1           0        1.875754    0.414871    0.579854
      5          1           0        2.976859   -0.664346    1.430725
      6          1           0        3.645747    0.872909   -1.127090
      7          1           0        4.745741   -0.205515   -0.275847
      8          1           0        4.637400    1.278508    1.754574
      9          1           0        3.531156    2.363060    0.898495
     10          1           0        5.202860    2.182811    0.339724
     11          6           0        2.264250   -1.438385   -0.450568
     12          6           0        1.070867   -2.207064    0.117722
     13          6           0        0.631220   -3.364078   -0.779956
     14          1           0        2.002850   -1.052727   -1.445723
     15          1           0        3.103955   -2.131944   -0.594852
     16          1           0        0.233967   -1.511557    0.260849
     17          1           0        1.333962   -2.589981    1.112092
     18          1           0        1.448553   -4.080132   -0.913493
     19          1           0        0.342309   -2.995581   -1.769573
     20          1           0       -0.223151   -3.899883   -0.354722
     21          6           0       -2.313332    1.570434    0.220744
     22          6           0       -1.518294    2.340003   -0.834559
     23          6           0       -1.172664    3.762551   -0.393321
     24          1           0       -3.237070    2.120092    0.447744
     25          1           0       -1.733302    1.535335    1.153336
     26          1           0       -2.099055    2.372448   -1.765301
     27          1           0       -0.596433    1.788352   -1.059211
     28          1           0       -0.572346    3.746818    0.522087
     29          1           0       -2.083504    4.334233   -0.188014
     30          1           0       -0.604354    4.294591   -1.162618
     31          6           0       -2.666377    0.146639   -0.205746
     32          6           0       -3.461414   -0.622930    0.849557
     33          6           0       -3.807045   -2.045479    0.408319
     34          1           0       -3.246407    0.181738   -1.138338
     35          1           0       -1.742639   -0.403019   -0.432745
     36          1           0       -4.383276   -0.071280    1.074210
     37          1           0       -2.880655   -0.655375    1.780299
     38          1           0       -2.896205   -2.617161    0.203013
     39          1           0       -4.407363   -2.029746   -0.507088
     40          1           0       -4.375355   -2.577518    1.177617
 ---------------------------------------------------------------------

 SCF Done:  E(RHF) =  -470.733385248     A.U. after   11 cycles
 E2 =    -0.1583735127D+01 EUMP2 =    -0.47231712037565D+03

 The electronic state is 1-A.
 Alpha  occ. eigenvalues --  -11.21666 -11.21661 -11.21641 -11.21614 -11.21467
 Alpha  occ. eigenvalues --  -11.21438 -11.21408 -11.21372 -11.21136 -11.21123
 Alpha  occ. eigenvalues --  -11.21099 -11.21069  -1.08507  -1.08452  -1.03596
 Alpha  occ. eigenvalues --   -1.03550  -0.96032  -0.96009  -0.87061  -0.87012
 Alpha  occ. eigenvalues --   -0.79663  -0.79613  -0.78356  -0.78232  -0.65340
 Alpha  occ. eigenvalues --   -0.64908  -0.61110  -0.60849  -0.59421  -0.59350
 Alpha  occ. eigenvalues --   -0.57653  -0.57608  -0.55336  -0.55287  -0.52730
 Alpha  occ. eigenvalues --   -0.52703  -0.52497  -0.52390  -0.50063  -0.49872
 Alpha  occ. eigenvalues --   -0.47990  -0.47920  -0.46824  -0.46590  -0.46096
 Alpha  occ. eigenvalues --   -0.45801  -0.45776  -0.45371  -0.43838  -0.43817
 Alpha virt. eigenvalues --    0.18992   0.21917   0.23716   0.25023   0.25862
 Alpha virt. eigenvalues --    0.26350   0.26910   0.27657   0.28456   0.29901
 Alpha virt. eigenvalues --    0.30301   0.31507   0.31655   0.31744   0.32039

 Mulliken charges:
               1
     1  C   -0.299499
     2  C   -0.299644
     3  C   -0.475790
     4  H    0.149779
     5  H    0.149795
     6  H    0.152115
     7  H    0.152150
     8  H    0.155182
     9  H    0.155299
    10  H    0.160501
    11  C   -0.298061
    12  C   -0.307584
    13  C   -0.477258
    14  H    0.149628
    15  H    0.150158
    16  H    0.157875
    17  H    0.152462
    18  H    0.155786
    19  H    0.155868
    20  H    0.161392
    21  C   -0.298330
    22  C   -0.300704
    23  C   -0.475738
    24  H    0.150088
    25  H    0.149576
    26  H    0.152323
    27  H    0.151565
    28  H    0.155024
    29  H    0.155604
    30  H    0.160387
    31  C   -0.305887
    32  C   -0.299434
    33  C   -0.478186
    34  H    0.149902
    35  H    0.156363
    36  H    0.152096
    37  H    0.152209
    38  H    0.157470
    39  H    0.155249
    40  H    0.160266
 Sum of Mulliken charges =  -0.00000

 Dipole moment (field-independent basis, Debye):
    X=              0.0080    Y=             -0.0077    Z=             -0.0049  Tot=              0.0122
 Quadrupole moment (field-independent basis, Debye-Ang):
   XX=            -83.8115   YY=            -86.0695   ZZ=            -84.6910
   XY=             -1.4756   XZ=              0.3922   YZ=             -1.1002

 Normal termination of Gaussian 16 at Wed May  5 19:50:49 2021.
