 Gaussian 16, Revision A.03,
 Gaussian 16:  EM64L-G16RevA.03 25-Dec-2016

 -------------
 #p 6-31g* mp2
 -------------

 ------------------------------------------------------
 Input file generated by CHIRIPA (05-May-2021 14:53:13)
 ------------------------------------------------------
 Symbolic Z-matrix:
 Charge =  0 Multiplicity = 1

                         Standard orientation:
 ---------------------------------------------------------------------
 Center     Atomic      Atomic             Coordinates (Angstroms)
 Number     Number       Type             X           Y           Z
 ---------------------------------------------------------------------
      1          6           0        2.533305   -0.578683   -0.358405
      2          6           0        3.333980   -1.612752    0.433812
      3          6           0        2.969105   -3.051257    0.065896
      4          1           0        1.461064   -0.742542   -0.184065
      5          1           0        2.703283   -0.737857   -1.432261
      6          1           0        3.163630   -1.450798    1.505898
      7          1           0        4.404446   -1.446291    0.257717
      8          1           0        3.156038   -3.236332   -0.996838
      9          1           0        1.908172   -3.240864    0.258435
     10          1           0        3.553283   -3.774011    0.644017
     11          6           0        2.886827    0.864076   -0.001760
     12          6           0        2.086152    1.898145   -0.793977
     13          6           0        2.451027    3.336651   -0.426061
     14          1           0        2.716849    1.023250    1.072096
     15          1           0        3.959068    1.027935   -0.176100
     16          1           0        1.015686    1.731685   -0.617882
     17          1           0        2.256502    1.736191   -1.866062
     18          1           0        3.511960    3.526257   -0.618600
     19          1           0        2.264094    3.521725    0.636673
     20          1           0        1.866850    4.059404   -1.004182
     21          6           0       -2.084505    2.371624    0.586824
     22          6           0       -3.067997    1.822294   -0.242332
     23          6           0       -3.095790    0.447826   -0.496519
     24          6           0       -2.120404   -0.351539    0.097559
     25          6           0       -1.127658    0.165898    0.928224
     26          6           0       -1.119176    1.543134    1.168430
     27          1           0       -2.070415    3.440419    0.778852
     28          1           0       -3.818942    2.463298   -0.695367
     29          1           0       -3.845823   -0.003807   -1.134404
     30          1           0       -0.392338   -0.498504    1.365594
     31          1           0       -0.354193    1.966988    1.812786
     32          7           0       -2.139606   -1.808093   -0.164137
     33          8           0       -1.269095   -2.490874    0.371265
     34          8           0       -3.024803   -2.239376   -0.899702
 ---------------------------------------------------------------------

 SCF Done:  E(RHF) =  -669.534501395     A.U. after   15 cycles
 E2 =    -0.2095328307D+01 EUMP2 =    -0.67162982970224D+03

 The electronic state is 1-A.
 Alpha  occ. eigenvalues --  -20.60969 -20.60963 -15.86002 -11.31351 -11.27900
 Alpha  occ. eigenvalues --  -11.27896 -11.27636 -11.26917 -11.26906 -11.21744
 Alpha  occ. eigenvalues --  -11.21612 -11.21548 -11.21404 -11.21300 -11.20440
 Alpha  occ. eigenvalues --   -1.60024  -1.39581  -1.19530  -1.08920  -1.08504
 Alpha  occ. eigenvalues --   -1.04935  -1.03521  -0.95984  -0.95752  -0.86990
 Alpha  occ. eigenvalues --   -0.86320  -0.82592  -0.79608  -0.78307  -0.77623
 Alpha  occ. eigenvalues --   -0.72222  -0.71337  -0.70630  -0.65251  -0.65152
 Alpha  occ. eigenvalues --   -0.64944  -0.62234  -0.60942  -0.59396  -0.57566
 Alpha  occ. eigenvalues --   -0.55440  -0.55261  -0.53312  -0.53018  -0.52639
 Alpha  occ. eigenvalues --   -0.52365  -0.49908  -0.48986  -0.48972  -0.47893
 Alpha  occ. eigenvalues --   -0.46659  -0.45830  -0.45782  -0.44886  -0.43791
 Alpha  occ. eigenvalues --   -0.37480  -0.36401
 Alpha virt. eigenvalues --    0.04846   0.10972   0.16296   0.19550   0.23256
 Alpha virt. eigenvalues --    0.23514   0.25879   0.27231   0.27787   0.28455
 Alpha virt. eigenvalues --    0.29503   0.30138   0.31518   0.31869   0.32467

 Mulliken charges:
               1
     1  C   -0.305024
     2  C   -0.298662
     3  C   -0.482425
     4  H    0.153259
     5  H    0.152407
     6  H    0.146748
     7  H    0.150426
     8  H    0.154236
     9  H    0.174520
    10  H    0.158053
    11  C   -0.297561
    12  C   -0.309395
    13  C   -0.474917
    14  H    0.139483
    15  H    0.151729
    16  H    0.160164
    17  H    0.154127
    18  H    0.158292
    19  H    0.146650
    20  H    0.158529
    21  C   -0.170360
    22  C   -0.217933
    23  C   -0.170788
    24  C    0.159693
    25  C   -0.170575
    26  C   -0.221064
    27  H    0.227041
    28  H    0.224297
    29  H    0.276147
    30  H    0.277465
    31  H    0.226699
    32  N    0.490033
    33  O   -0.462886
    34  O   -0.458410
 Sum of Mulliken charges =  -0.00000

 Dipole moment (field-independent basis, Debye):
    X=             -0.1482    Y=              4.9962    Z=              0.8396  Tot=              5.0685
 Quadrupole moment (field-independent basis, Debye-Ang):
   XX=            -91.8014   YY=           -100.0469   ZZ=            -92.9699
   XY=            -11.9895   XZ=             -0.0198   YZ=             -0.3651

 Normal termination of Gaussian 16 at Thu May  6 17:04:19 2021.
