 Gaussian 16, Revision A.03,
 Gaussian 16:  EM64L-G16RevA.03 25-Dec-2016

 -------------
 #p 6-31g* mp2
 -------------

 ------------------------------------------------------
 Input file generated by CHIRIPA (05-May-2021 14:55:24)
 ------------------------------------------------------
 Symbolic Z-matrix:
 Charge =  0 Multiplicity = 1

                         Standard orientation:
 ---------------------------------------------------------------------
 Center     Atomic      Atomic             Coordinates (Angstroms)
 Number     Number       Type             X           Y           Z
 ---------------------------------------------------------------------
      1          6           0       -5.229158    1.732249    0.551189
      2          6           0       -3.906387    1.885263    0.979424
      3          6           0       -2.923939    0.969550    0.591077
      4          6           0       -3.301018   -0.092236   -0.229723
      5          6           0       -4.610461   -0.271781   -0.672908
      6          6           0       -5.576361    0.656112   -0.272159
      7          1           0       -5.985919    2.448327    0.857684
      8          1           0       -3.633863    2.720043    1.618891
      9          1           0       -1.892424    1.064102    0.908022
     10          1           0       -4.851767   -1.114062   -1.309895
     11          1           0       -6.602859    0.534774   -0.606260
     12          7           0       -2.269704   -1.068108   -0.647414
     13          8           0       -2.627543   -1.994988   -1.370933
     14          8           0       -1.123049   -0.887637   -0.243372
     15          6           0        5.057778    0.052121   -0.225045
     16          6           0        5.472622    1.523808   -0.230004
     17          6           0        6.704300    1.787892   -1.096618
     18          1           0        5.898029   -0.557895    0.133849
     19          1           0        4.856975   -0.268496   -1.256684
     20          1           0        5.671242    1.841930    0.801482
     21          1           0        4.631220    2.130410   -0.588745
     22          1           0        6.514154    1.497658   -2.134988
     23          1           0        7.560085    1.207539   -0.736860
     24          1           0        6.983383    2.846124   -1.085809
     25          6           0        3.827959   -0.227735    0.636905
     26          6           0        3.413117   -1.699423    0.641864
     27          6           0        2.181437   -1.963506    1.508478
     28          1           0        4.028762    0.092881    1.668543
     29          1           0        2.987709    0.382281    0.278012
     30          1           0        4.254517   -2.306025    1.000605
     31          1           0        3.214495   -2.017545   -0.389623
     32          1           0        1.325653   -1.383155    1.148719
     33          1           0        2.371584   -1.673273    2.546846
     34          1           0        1.902356   -3.021739    1.497669
 ---------------------------------------------------------------------

 SCF Done:  E(RHF) =  -669.536071062     A.U. after   15 cycles
 E2 =    -0.2090686068D+01 EUMP2 =    -0.67162675712945D+03

 The electronic state is 1-A.
 Alpha  occ. eigenvalues --  -20.60928 -20.60918 -15.85973 -11.31288 -11.27852
 Alpha  occ. eigenvalues --  -11.27848 -11.27589 -11.26860 -11.26850 -11.21120
 Alpha  occ. eigenvalues --  -11.20739 -11.20671 -11.20584 -11.20523 -11.19701
 Alpha  occ. eigenvalues --   -1.59991  -1.39548  -1.19457  -1.08861  -1.07681
 Alpha  occ. eigenvalues --   -1.04854  -1.02721  -0.95706  -0.95160  -0.86255
 Alpha  occ. eigenvalues --   -0.86181  -0.82541  -0.78822  -0.77598  -0.77468
 Alpha  occ. eigenvalues --   -0.72202  -0.71307  -0.70567  -0.65115  -0.64857
 Alpha  occ. eigenvalues --   -0.64308  -0.62201  -0.60100  -0.58585  -0.56772
 Alpha  occ. eigenvalues --   -0.55358  -0.54428  -0.53185  -0.52946  -0.51857
 Alpha  occ. eigenvalues --   -0.51594  -0.49167  -0.48949  -0.48868  -0.47123
 Alpha  occ. eigenvalues --   -0.45855  -0.45036  -0.44970  -0.44865  -0.42992
 Alpha  occ. eigenvalues --   -0.37436  -0.36455
 Alpha virt. eigenvalues --    0.04936   0.11200   0.16428   0.21287   0.23578
 Alpha virt. eigenvalues --    0.25127   0.27137   0.27374   0.27960   0.28301
 Alpha virt. eigenvalues --    0.28986   0.30806   0.31959   0.32416   0.32640

 Mulliken charges:
               1
     1  C   -0.170629
     2  C   -0.218522
     3  C   -0.170498
     4  C    0.157526
     5  C   -0.170650
     6  C   -0.218568
     7  H    0.225984
     8  H    0.223897
     9  H    0.275465
    10  H    0.275855
    11  H    0.223792
    12  N    0.495171
    13  O   -0.458961
    14  O   -0.467139
    15  C   -0.297871
    16  C   -0.298948
    17  C   -0.475280
    18  H    0.148064
    19  H    0.150498
    20  H    0.150016
    21  H    0.150863
    22  H    0.155287
    23  H    0.154560
    24  H    0.158054
    25  C   -0.298245
    26  C   -0.298363
    27  C   -0.484083
    28  H    0.145329
    29  H    0.151602
    30  H    0.146607
    31  H    0.155756
    32  H    0.179154
    33  H    0.145050
    34  H    0.159229
 Sum of Mulliken charges =  -0.00000

 Dipole moment (field-independent basis, Debye):
    X=             -3.9354    Y=              3.4192    Z=              1.3858  Tot=              5.3943
 Quadrupole moment (field-independent basis, Debye-Ang):
   XX=            -70.0502   YY=            -94.8853   ZZ=            -94.7183
   XY=             -9.6927   XZ=             -1.3245   YZ=              0.9701

 Normal termination of Gaussian 16 at Wed May  5 16:05:30 2021.
