 Gaussian 16, Revision A.03,
 Gaussian 16:  EM64L-G16RevA.03 25-Dec-2016

 -------------
 #p 6-31g* mp2
 -------------

 ------------------------------------------------------
 Input file generated by CHIRIPA (05-May-2021 14:55:24)
 ------------------------------------------------------
 Symbolic Z-matrix:
 Charge =  0 Multiplicity = 1

                         Standard orientation:
 ---------------------------------------------------------------------
 Center     Atomic      Atomic             Coordinates (Angstroms)
 Number     Number       Type             X           Y           Z
 ---------------------------------------------------------------------
      1          6           0       -6.056988   -0.421801    0.001053
      2          6           0       -5.238832   -1.511299    0.317497
      3          6           0       -3.846716   -1.389561    0.275776
      4          6           0       -3.304021   -0.158174   -0.088173
      5          6           0       -4.092540    0.945734   -0.408977
      6          6           0       -5.482244    0.801082   -0.360536
      7          1           0       -7.137480   -0.525270    0.036073
      8          1           0       -5.682417   -2.462208    0.598654
      9          1           0       -3.189830   -2.216765    0.515884
     10          1           0       -3.621177    1.880980   -0.685652
     11          1           0       -6.115172    1.648903   -0.606802
     12          7           0       -1.831527   -0.017166   -0.135898
     13          8           0       -1.378043    1.078381   -0.459573
     14          8           0       -1.158751   -1.004862    0.151273
     15          6           0        4.131544    0.875423    0.047567
     16          6           0        2.733871    0.760728    0.656943
     17          6           0        1.929354    2.055553    0.538717
     18          1           0        4.674353    1.692509    0.542211
     19          1           0        4.040572    1.156326   -1.010834
     20          1           0        2.827411    0.478773    1.713526
     21          1           0        2.194393   -0.056304    0.160923
     22          1           0        1.806490    2.338196   -0.511814
     23          1           0        2.443104    2.876314    1.049611
     24          1           0        0.933537    1.951240    0.980675
     25          6           0        4.948023   -0.411003    0.158021
     26          6           0        6.345696   -0.296309   -0.451356
     27          6           0        7.150212   -1.591133   -0.333130
     28          1           0        5.038995   -0.691907    1.216422
     29          1           0        4.405213   -1.228088   -0.336623
     30          1           0        6.885174    0.520723    0.044665
     31          1           0        6.252156   -0.014354   -1.507940
     32          1           0        6.636463   -2.411894   -0.844024
     33          1           0        7.273077   -1.873776    0.717402
     34          1           0        8.146030   -1.486820   -0.775088
 ---------------------------------------------------------------------

 SCF Done:  E(RHF) =  -669.536212891     A.U. after   15 cycles
 E2 =    -0.2091292501D+01 EUMP2 =    -0.67162750539173D+03

 The electronic state is 1-A.
 Alpha  occ. eigenvalues --  -20.61010 -20.61003 -15.86022 -11.31332 -11.27890
 Alpha  occ. eigenvalues --  -11.27887 -11.27625 -11.26893 -11.26883 -11.20765
 Alpha  occ. eigenvalues --  -11.20380 -11.20325 -11.20079 -11.19839 -11.19096
 Alpha  occ. eigenvalues --   -1.60059  -1.39615  -1.19497  -1.08904  -1.07224
 Alpha  occ. eigenvalues --   -1.04889  -1.02228  -0.95750  -0.94687  -0.86291
 Alpha  occ. eigenvalues --   -0.85718  -0.82580  -0.78358  -0.77636  -0.76960
 Alpha  occ. eigenvalues --   -0.72234  -0.71373  -0.70604  -0.65151  -0.64893
 Alpha  occ. eigenvalues --   -0.63866  -0.62236  -0.59630  -0.58137  -0.56270
 Alpha  occ. eigenvalues --   -0.55390  -0.54002  -0.53223  -0.52981  -0.51395
 Alpha  occ. eigenvalues --   -0.51134  -0.49017  -0.48968  -0.48605  -0.46648
 Alpha  occ. eigenvalues --   -0.45415  -0.45027  -0.44512  -0.44382  -0.42462
 Alpha  occ. eigenvalues --   -0.37475  -0.36489
 Alpha virt. eigenvalues --    0.04872   0.11166   0.16371   0.21304   0.23975
 Alpha virt. eigenvalues --    0.25670   0.27225   0.27798   0.28189   0.28667
 Alpha virt. eigenvalues --    0.29318   0.30880   0.32411   0.32624   0.32840

 Mulliken charges:
               1
     1  C   -0.170509
     2  C   -0.218594
     3  C   -0.170714
     4  C    0.158085
     5  C   -0.170823
     6  C   -0.218573
     7  H    0.226131
     8  H    0.223946
     9  H    0.275931
    10  H    0.276054
    11  H    0.223988
    12  N    0.488225
    13  O   -0.458186
    14  O   -0.459535
    15  C   -0.297536
    16  C   -0.302239
    17  C   -0.471118
    18  H    0.144678
    19  H    0.147583
    20  H    0.144728
    21  H    0.166801
    22  H    0.154774
    23  H    0.140589
    24  H    0.172954
    25  C   -0.297362
    26  C   -0.298633
    27  C   -0.474992
    28  H    0.147267
    29  H    0.150536
    30  H    0.149968
    31  H    0.150714
    32  H    0.154562
    33  H    0.153890
    34  H    0.157411
 Sum of Mulliken charges =  -0.00000

 Dipole moment (field-independent basis, Debye):
    X=             -5.6568    Y=             -0.5735    Z=              0.1086  Tot=              5.6868
 Quadrupole moment (field-independent basis, Debye-Ang):
   XX=            -63.0315   YY=            -91.1033   ZZ=            -94.5882
   XY=              2.3908   XZ=              0.2164   YZ=             -1.4361

 Normal termination of Gaussian 16 at Thu May  6 17:40:33 2021.
