 Gaussian 16, Revision A.03,
 Gaussian 16:  EM64L-G16RevA.03 25-Dec-2016

 -------------
 #p 6-31g* mp2
 -------------

 ------------------------------------------------------
 Input file generated by CHIRIPA (05-May-2021 14:53:14)
 ------------------------------------------------------
 Symbolic Z-matrix:
 Charge =  0 Multiplicity = 1

                         Standard orientation:
 ---------------------------------------------------------------------
 Center     Atomic      Atomic             Coordinates (Angstroms)
 Number     Number       Type             X           Y           Z
 ---------------------------------------------------------------------
      1          6           0        3.061544    0.732078   -0.367326
      2          6           0        2.699302    1.934601    0.504857
      3          6           0        1.539120    2.750721   -0.065862
      4          1           0        3.319506    1.083111   -1.375878
      5          1           0        2.178020    0.088063   -0.476983
      6          1           0        3.583627    2.575442    0.613976
      7          1           0        2.442358    1.580681    1.511503
      8          1           0        0.641294    2.131143   -0.158776
      9          1           0        1.789048    3.131557   -1.061403
     10          1           0        1.296830    3.605440    0.573365
     11          6           0        4.219640   -0.093658    0.190082
     12          6           0        4.581882   -1.296181   -0.682101
     13          6           0        5.742064   -2.112301   -0.111382
     14          1           0        5.103164    0.550356    0.299739
     15          1           0        3.961678   -0.444692    1.198634
     16          1           0        4.838826   -0.942261   -1.688747
     17          1           0        3.697557   -1.937022   -0.791221
     18          1           0        5.492136   -2.493137    0.884158
     19          1           0        6.639890   -1.492724   -0.018468
     20          1           0        5.984354   -2.967020   -0.750609
     21          6           0       -2.604574    2.258699   -0.065007
     22          6           0       -3.465703    1.589895   -0.941180
     23          6           0       -3.606357    0.200472   -0.875849
     24          6           0       -2.867380   -0.491855    0.082214
     25          6           0       -2.001321    0.145865    0.969088
     26          6           0       -1.876415    1.535825    0.885654
     27          1           0       -2.501427    3.338244   -0.122789
     28          1           0       -4.032449    2.148710   -1.680484
     29          1           0       -4.265872   -0.342552   -1.541869
     30          1           0       -1.449512   -0.438370    1.695444
     31          1           0       -1.206903    2.052579    1.567390
     32          7           0       -3.007948   -1.963058    0.160959
     33          8           0       -2.345805   -2.550051    1.013979
     34          8           0       -3.777607   -2.501337   -0.631832
 ---------------------------------------------------------------------

 SCF Done:  E(RHF) =  -669.534929075     A.U. after   15 cycles
 E2 =    -0.2092153670D+01 EUMP2 =    -0.67162708274452D+03

 The electronic state is 1-A.
 Alpha  occ. eigenvalues --  -20.60811 -20.60805 -15.85864 -11.31242 -11.27803
 Alpha  occ. eigenvalues --  -11.27798 -11.27530 -11.26817 -11.26786 -11.22093
 Alpha  occ. eigenvalues --  -11.21676 -11.21651 -11.21638 -11.21536 -11.21073
 Alpha  occ. eigenvalues --   -1.59886  -1.39439  -1.19417  -1.08809  -1.08686
 Alpha  occ. eigenvalues --   -1.04826  -1.03811  -0.96275  -0.95634  -0.87310
 Alpha  occ. eigenvalues --   -0.86204  -0.82468  -0.79890  -0.78470  -0.77516
 Alpha  occ. eigenvalues --   -0.72082  -0.71209  -0.70503  -0.65355  -0.65062
 Alpha  occ. eigenvalues --   -0.64809  -0.62196  -0.61186  -0.59667  -0.57871
 Alpha  occ. eigenvalues --   -0.55624  -0.55278  -0.53246  -0.53011  -0.52857
 Alpha  occ. eigenvalues --   -0.52609  -0.50177  -0.48839  -0.48836  -0.48194
 Alpha  occ. eigenvalues --   -0.46911  -0.46020  -0.45921  -0.44842  -0.44064
 Alpha  occ. eigenvalues --   -0.37355  -0.36377
 Alpha virt. eigenvalues --    0.05009   0.11158   0.16463   0.20688   0.22804
 Alpha virt. eigenvalues --    0.24040   0.26347   0.26892   0.27316   0.28068
 Alpha virt. eigenvalues --    0.28762   0.30742   0.31235   0.31387   0.31917

 Mulliken charges:
               1
     1  C   -0.299053
     2  C   -0.298598
     3  C   -0.486927
     4  H    0.150513
     5  H    0.151758
     6  H    0.153744
     7  H    0.148152
     8  H    0.162387
     9  H    0.157564
    10  H    0.152544
    11  C   -0.298513
    12  C   -0.300500
    13  C   -0.475962
    14  H    0.149311
    15  H    0.149988
    16  H    0.151713
    17  H    0.155120
    18  H    0.156158
    19  H    0.154408
    20  H    0.161618
    21  C   -0.170498
    22  C   -0.218242
    23  C   -0.170884
    24  C    0.158873
    25  C   -0.173369
    26  C   -0.219742
    27  H    0.227059
    28  H    0.223843
    29  H    0.275814
    30  H    0.275548
    31  H    0.228763
    32  N    0.488088
    33  O   -0.460537
    34  O   -0.460141
 Sum of Mulliken charges =  -0.00000

 Dipole moment (field-independent basis, Debye):
    X=              0.4871    Y=              5.1194    Z=             -0.3286  Tot=              5.1530
 Quadrupole moment (field-independent basis, Debye-Ang):
   XX=            -95.8564   YY=           -100.8551   ZZ=            -92.1481
   XY=            -14.7273   XZ=              3.0749   YZ=              0.2695

 Normal termination of Gaussian 16 at Thu May  6 01:02:07 2021.
