 Gaussian 16, Revision A.03,
 Gaussian 16:  EM64L-G16RevA.03 25-Dec-2016

 -------------
 #p 6-31g* mp2
 -------------

 ------------------------------------------------------
 Input file generated by CHIRIPA (05-May-2021 14:51:11)
 ------------------------------------------------------
 Symbolic Z-matrix:
 Charge =  0 Multiplicity = 1

                         Standard orientation:
 ---------------------------------------------------------------------
 Center     Atomic      Atomic             Coordinates (Angstroms)
 Number     Number       Type             X           Y           Z
 ---------------------------------------------------------------------
      1          6           0        3.685699    0.877520    0.308004
      2          6           0        2.930699    1.934515   -0.498669
      3          6           0        3.005245    3.324950    0.132938
      4          1           0        3.276326    0.841421    1.326854
      5          1           0        4.737192    1.181654    0.404230
      6          1           0        1.881247    1.627794   -0.594525
      7          1           0        3.341788    1.967968   -1.515774
      8          1           0        4.045649    3.656021    0.213888
      9          1           0        2.576808    3.313914    1.140372
     10          1           0        2.458867    4.065055   -0.459999
     11          6           0        3.620389   -0.517698   -0.310727
     12          6           0        4.375389   -1.574693    0.495946
     13          6           0        4.300842   -2.965128   -0.135662
     14          1           0        2.568895   -0.821832   -0.406954
     15          1           0        4.029761   -0.481599   -1.329578
     16          1           0        3.964299   -1.608146    1.513051
     17          1           0        5.424841   -1.267972    0.591802
     18          1           0        4.729279   -2.954092   -1.143095
     19          1           0        3.260439   -3.296199   -0.216612
     20          1           0        4.847220   -3.705233    0.457276
     21          6           0       -2.997359   -0.285162   -0.376039
     22          6           0       -1.757950   -0.120845    0.504216
     23          6           0       -0.453968   -0.334432   -0.265074
     24          1           0       -2.992751   -1.289649   -0.820929
     25          1           0       -2.942409    0.426829   -1.211171
     26          1           0       -1.815894   -0.831981    1.338209
     27          1           0       -1.765608    0.883300    0.947215
     28          1           0       -0.369532    0.383802   -1.087030
     29          1           0       -0.420105   -1.341226   -0.693813
     30          1           0        0.419283   -0.212242    0.383280
     31          6           0       -4.308729   -0.074661    0.378763
     32          6           0       -5.548137   -0.238977   -0.501493
     33          6           0       -6.852119   -0.025390    0.267796
     34          1           0       -4.363679   -0.786652    1.213894
     35          1           0       -4.313336    0.929827    0.823653
     36          1           0       -5.540480   -1.243124   -0.944491
     37          1           0       -5.490192    0.472159   -1.335485
     38          1           0       -6.885982    0.981404    0.696538
     39          1           0       -6.936554   -0.743624    1.089753
     40          1           0       -7.725370   -0.147580   -0.380556
 ---------------------------------------------------------------------

 SCF Done:  E(RHF) =  -470.732361170     A.U. after   11 cycles
 E2 =    -0.1583652048D+01 EUMP2 =    -0.47231601321748D+03

 The electronic state is 1-A.
 Alpha  occ. eigenvalues --  -11.21687 -11.21636 -11.21535 -11.21461 -11.21461
 Alpha  occ. eigenvalues --  -11.21399 -11.21316 -11.21224 -11.21182 -11.21098
 Alpha  occ. eigenvalues --  -11.21023 -11.21010  -1.08495  -1.08348  -1.03605
 Alpha  occ. eigenvalues --   -1.03453  -0.96069  -0.95905  -0.87090  -0.86926
 Alpha  occ. eigenvalues --   -0.79694  -0.79515  -0.78316  -0.78131  -0.65134
 Alpha  occ. eigenvalues --   -0.65025  -0.61071  -0.60803  -0.59438  -0.59266
 Alpha  occ. eigenvalues --   -0.57676  -0.57508  -0.55373  -0.55191  -0.52827
 Alpha  occ. eigenvalues --   -0.52564  -0.52477  -0.52329  -0.50082  -0.49793
 Alpha  occ. eigenvalues --   -0.47985  -0.47833  -0.46784  -0.46444  -0.45887
 Alpha  occ. eigenvalues --   -0.45769  -0.45689  -0.45597  -0.43756  -0.43661
 Alpha virt. eigenvalues --    0.21257   0.23008   0.24135   0.24706   0.26006
 Alpha virt. eigenvalues --    0.26555   0.26900   0.27530   0.27774   0.29356
 Alpha virt. eigenvalues --    0.30560   0.31457   0.31798   0.31939   0.32334

 Mulliken charges:
               1
     1  C   -0.298118
     2  C   -0.307010
     3  C   -0.475195
     4  H    0.148091
     5  H    0.149461
     6  H    0.160559
     7  H    0.151204
     8  H    0.154871
     9  H    0.154512
    10  H    0.159550
    11  C   -0.306529
    12  C   -0.299069
    13  C   -0.475591
    14  H    0.159060
    15  H    0.149231
    16  H    0.151132
    17  H    0.151667
    18  H    0.155114
    19  H    0.155039
    20  H    0.159908
    21  C   -0.298972
    22  C   -0.300335
    23  C   -0.481062
    24  H    0.149852
    25  H    0.149860
    26  H    0.152154
    27  H    0.152365
    28  H    0.157664
    29  H    0.155529
    30  H    0.164510
    31  C   -0.298352
    32  C   -0.299671
    33  C   -0.475739
    34  H    0.149608
    35  H    0.149788
    36  H    0.152019
    37  H    0.152030
    38  H    0.155248
    39  H    0.155225
    40  H    0.160391
 Sum of Mulliken charges =  -0.00000

 Dipole moment (field-independent basis, Debye):
    X=             -0.0815    Y=             -0.0207    Z=             -0.0206  Tot=              0.0866
 Quadrupole moment (field-independent basis, Debye-Ang):
   XX=            -85.3805   YY=            -85.0121   ZZ=            -84.7573
   XY=              0.3072   XZ=             -0.0616   YZ=             -0.7450

 Normal termination of Gaussian 16 at Wed May  5 16:45:31 2021.
