 Gaussian 16, Revision A.03,
 Gaussian 16:  EM64L-G16RevA.03 25-Dec-2016

 -------------
 #p 6-31g* mp2
 -------------

 ------------------------------------------------------
 Input file generated by CHIRIPA (05-May-2021 14:51:09)
 ------------------------------------------------------
 Symbolic Z-matrix:
 Charge =  0 Multiplicity = 1

                         Standard orientation:
 ---------------------------------------------------------------------
 Center     Atomic      Atomic             Coordinates (Angstroms)
 Number     Number       Type             X           Y           Z
 ---------------------------------------------------------------------
      1          6           0        2.863420    1.106948   -0.297074
      2          6           0        3.277813    2.449520    0.306054
      3          6           0        2.492634    3.625994   -0.274632
      4          1           0        3.004696    1.142146   -1.385994
      5          1           0        1.789093    0.952059   -0.126114
      6          1           0        4.351324    2.601197    0.135220
      7          1           0        3.135714    2.411057    1.393687
      8          1           0        1.420470    3.501543   -0.091390
      9          1           0        2.642987    3.692763   -1.357008
     10          1           0        2.804880    4.575850    0.170492
     11          6           0        3.639472   -0.078816    0.273394
     12          6           0        3.225079   -1.421387   -0.329735
     13          6           0        4.010258   -2.597861    0.250952
     14          1           0        4.713799    0.076074    0.102434
     15          1           0        3.498196   -0.114013    1.362314
     16          1           0        3.367178   -1.382924   -1.417367
     17          1           0        2.151568   -1.573064   -0.158900
     18          1           0        3.859905   -2.664631    1.333328
     19          1           0        5.082422   -2.473410    0.067710
     20          1           0        3.698012   -3.547717   -0.194173
     21          6           0       -2.895648   -1.124962   -0.277375
     22          6           0       -1.527474   -1.385100    0.353825
     23          6           0       -0.828067   -2.610529   -0.235199
     24          1           0       -3.529796   -2.011661   -0.141126
     25          1           0       -2.772444   -0.992343   -1.361178
     26          1           0       -1.653049   -1.515815    1.436305
     27          1           0       -0.896573   -0.497607    0.216225
     28          1           0       -0.673687   -2.485575   -1.311839
     29          1           0       -1.434461   -3.509570   -0.084827
     30          1           0        0.148196   -2.778011    0.230334
     31          6           0       -3.607245    0.096830    0.301056
     32          6           0       -4.975418    0.356967   -0.330145
     33          6           0       -5.674825    1.582396    0.258879
     34          1           0       -3.730448   -0.035790    1.384858
     35          1           0       -2.973096    0.983528    0.164806
     36          1           0       -5.606319   -0.530526   -0.192545
     37          1           0       -4.849844    0.487682   -1.412624
     38          1           0       -5.068431    2.481437    0.108507
     39          1           0       -5.829204    1.457442    1.335520
     40          1           0       -6.651089    1.749879   -0.206654
 ---------------------------------------------------------------------

 SCF Done:  E(RHF) =  -470.733231952     A.U. after   11 cycles
 E2 =    -0.1582977687D+01 EUMP2 =    -0.47231620963837D+03

 The electronic state is 1-A.
 Alpha  occ. eigenvalues --  -11.21664 -11.21621 -11.21608 -11.21536 -11.21439
 Alpha  occ. eigenvalues --  -11.21404 -11.21379 -11.21339 -11.21093 -11.21086
 Alpha  occ. eigenvalues --  -11.21085 -11.21056  -1.08468  -1.08419  -1.03576
 Alpha  occ. eigenvalues --   -1.03510  -0.96019  -0.95968  -0.87040  -0.86980
 Alpha  occ. eigenvalues --   -0.79658  -0.79553  -0.78283  -0.78233  -0.65142
 Alpha  occ. eigenvalues --   -0.65019  -0.61015  -0.60906  -0.59470  -0.59252
 Alpha  occ. eigenvalues --   -0.57672  -0.57534  -0.55298  -0.55263  -0.52739
 Alpha  occ. eigenvalues --   -0.52651  -0.52454  -0.52384  -0.49983  -0.49881
 Alpha  occ. eigenvalues --   -0.48014  -0.47832  -0.46691  -0.46562  -0.45867
 Alpha  occ. eigenvalues --   -0.45777  -0.45755  -0.45612  -0.43812  -0.43753
 Alpha virt. eigenvalues --    0.20460   0.23162   0.23568   0.24309   0.25789
 Alpha virt. eigenvalues --    0.26848   0.27160   0.27190   0.28041   0.29046
 Alpha virt. eigenvalues --    0.30923   0.31523   0.31589   0.31806   0.32098

 Mulliken charges:
               1
     1  C   -0.300553
     2  C   -0.299592
     3  C   -0.475658
     4  H    0.149625
     5  H    0.150923
     6  H    0.152095
     7  H    0.152112
     8  H    0.154805
     9  H    0.155120
    10  H    0.160378
    11  C   -0.297507
    12  C   -0.308132
    13  C   -0.475881
    14  H    0.149443
    15  H    0.149450
    16  H    0.151672
    17  H    0.160958
    18  H    0.154706
    19  H    0.155306
    20  H    0.160491
    21  C   -0.298227
    22  C   -0.303060
    23  C   -0.479250
    24  H    0.149987
    25  H    0.149939
    26  H    0.152016
    27  H    0.153417
    28  H    0.155974
    29  H    0.155612
    30  H    0.163708
    31  C   -0.298302
    32  C   -0.299707
    33  C   -0.475748
    34  H    0.149515
    35  H    0.149486
    36  H    0.152001
    37  H    0.152089
    38  H    0.155259
    39  H    0.155170
    40  H    0.160361
 Sum of Mulliken charges =  -0.00000

 Dipole moment (field-independent basis, Debye):
    X=             -0.0209    Y=             -0.0139    Z=             -0.0072  Tot=              0.0261
 Quadrupole moment (field-independent basis, Debye-Ang):
   XX=            -84.7401   YY=            -86.0492   ZZ=            -83.9432
   XY=              1.3676   XZ=             -0.7910   YZ=             -0.4693

 Normal termination of Gaussian 16 at Wed May  5 18:09:37 2021.
