 Gaussian 16, Revision A.03,
 Gaussian 16:  EM64L-G16RevA.03 25-Dec-2016

 -------------
 #p 6-31g* mp2
 -------------

 ------------------------------------------------------
 Input file generated by CHIRIPA (05-May-2021 14:57:24)
 ------------------------------------------------------
 Symbolic Z-matrix:
 Charge =  0 Multiplicity = 1

                         Standard orientation:
 ---------------------------------------------------------------------
 Center     Atomic      Atomic             Coordinates (Angstroms)
 Number     Number       Type             X           Y           Z
 ---------------------------------------------------------------------
      1          6           0        5.449172   -1.571050   -0.101431
      2          6           0        4.257522   -1.718763   -0.818836
      3          6           0        3.286052   -0.713629   -0.796465
      4          6           0        3.540286    0.431199   -0.042791
      5          6           0        4.717574    0.607827    0.682527
      6          6           0        5.674997   -0.410273    0.645644
      7          1           0        6.198377   -2.356899   -0.124446
      8          1           0        4.079439   -2.619157   -1.399888
      9          1           0        2.354707   -0.801990   -1.342547
     10          1           0        4.866600    1.516771    1.252642
     11          1           0        6.599525   -0.292833    1.203766
     12          7           0        2.519270    1.502153   -0.011426
     13          8           0        2.767308    2.501135    0.660250
     14          8           0        1.490292    1.322306   -0.659113
     15          6           0       -6.175935    0.264784   -0.042253
     16          6           0       -5.622563   -0.306947    1.108149
     17          6           0       -4.256729   -0.599018    1.169287
     18          6           0       -3.470025   -0.304914    0.056682
     19          6           0       -3.991781    0.264671   -1.103763
     20          6           0       -5.360215    0.548268   -1.142598
     21          1           0       -7.237958    0.488380   -0.081083
     22          1           0       -6.253656   -0.528183    1.964200
     23          1           0       -3.802226   -1.041672    2.047298
     24          1           0       -3.337320    0.473845   -1.941227
     25          1           0       -5.787234    0.992277   -2.037336
     26          7           0       -2.022701   -0.609631    0.109601
     27          8           0       -1.351022   -0.340930   -0.884022
     28          8           0       -1.587374   -1.111400    1.143696
 ---------------------------------------------------------------------

 SCF Done:  E(RHF) =  -868.337073157     A.U. after   16 cycles
 E2 =    -0.2599812508D+01 EUMP2 =    -0.87093688566510D+03

 The electronic state is 1-A.
 Alpha  occ. eigenvalues --  -20.60183 -20.60085 -20.59574 -20.59453 -15.85177
 Alpha  occ. eigenvalues --  -15.84558 -11.30682 -11.30094 -11.27285 -11.27251
 Alpha  occ. eigenvalues --  -11.27058 -11.26762 -11.26610 -11.26546 -11.26336
 Alpha  occ. eigenvalues --  -11.26314 -11.25822 -11.25746  -1.59194  -1.58596
 Alpha  occ. eigenvalues --   -1.38745  -1.38134  -1.18871  -1.18306  -1.08244
 Alpha  occ. eigenvalues --   -1.07686  -1.04298  -1.03735  -0.95057  -0.94481
 Alpha  occ. eigenvalues --   -0.85690  -0.85128  -0.81891  -0.81303  -0.76911
 Alpha  occ. eigenvalues --   -0.76307  -0.71432  -0.70779  -0.70477  -0.69989
 Alpha  occ. eigenvalues --   -0.69913  -0.69428  -0.64526  -0.64310  -0.63958
 Alpha  occ. eigenvalues --   -0.63758  -0.61644  -0.61068  -0.54807  -0.54272
 Alpha  occ. eigenvalues --   -0.52617  -0.52397  -0.52062  -0.51835  -0.48199
 Alpha  occ. eigenvalues --   -0.48159  -0.47590  -0.47492  -0.44134  -0.43458
 Alpha  occ. eigenvalues --   -0.36863  -0.36322  -0.35906  -0.35344
 Alpha virt. eigenvalues --    0.05627   0.06237   0.11746   0.12307   0.17088
 Alpha virt. eigenvalues --    0.17669   0.21839   0.22361   0.27738   0.28256
 Alpha virt. eigenvalues --    0.28747   0.29312   0.31375   0.31863   0.32999

 Mulliken charges:
               1
     1  C   -0.171475
     2  C   -0.219394
     3  C   -0.168860
     4  C    0.158011
     5  C   -0.171661
     6  C   -0.219269
     7  H    0.221695
     8  H    0.221329
     9  H    0.286440
    10  H    0.272734
    11  H    0.219397
    12  N    0.487426
    13  O   -0.469538
    14  O   -0.447676
    15  C   -0.171283
    16  C   -0.218613
    17  C   -0.171064
    18  C    0.159545
    19  C   -0.170038
    20  C   -0.218640
    21  H    0.223928
    22  H    0.221713
    23  H    0.274440
    24  H    0.277190
    25  H    0.222382
    26  N    0.488948
    27  O   -0.452123
    28  O   -0.465544
 Sum of Mulliken charges =  -0.00000

 Dipole moment (field-independent basis, Debye):
    X=             -1.7165    Y=             -2.6916    Z=             -0.4725  Tot=              3.2271
 Quadrupole moment (field-independent basis, Debye-Ang):
   XX=            -45.7617   YY=           -108.4013   ZZ=            -99.3902
   XY=            -12.4753   XZ=              1.1984   YZ=              0.1451

 Normal termination of Gaussian 16 at Thu May  6 18:01:01 2021.
