 Gaussian 16, Revision A.03,
 Gaussian 16:  EM64L-G16RevA.03 25-Dec-2016

 -------------
 #p 6-31g* mp2
 -------------

 ------------------------------------------------------
 Input file generated by CHIRIPA (05-May-2021 14:51:14)
 ------------------------------------------------------
 Symbolic Z-matrix:
 Charge =  0 Multiplicity = 1

                         Standard orientation:
 ---------------------------------------------------------------------
 Center     Atomic      Atomic             Coordinates (Angstroms)
 Number     Number       Type             X           Y           Z
 ---------------------------------------------------------------------
      1          6           0        2.514901    0.100851    1.110093
      2          6           0        1.026812   -0.234230    1.216374
      3          6           0        0.448199    0.075819    2.597269
      4          1           0        3.066596   -0.462263    1.875260
      5          1           0        2.661170    1.165483    1.339353
      6          1           0        0.883228   -1.297601    0.985630
      7          1           0        0.478619    0.329601    0.450741
      8          1           0        0.562239    1.138864    2.832919
      9          1           0        0.969147   -0.497583    3.370848
     10          1           0       -0.616654   -0.171271    2.651080
     11          6           0        3.107764   -0.203590   -0.264518
     12          6           0        4.595853    0.131491   -0.370800
     13          6           0        5.174466   -0.178559   -1.751694
     14          1           0        2.961495   -1.268222   -0.493778
     15          1           0        2.556069    0.359524   -1.029685
     16          1           0        5.144046   -0.432340    0.394834
     17          1           0        4.739438    1.194862   -0.140055
     18          1           0        4.653518    0.394843   -2.525273
     19          1           0        5.060426   -1.241604   -1.987345
     20          1           0        6.239319    0.068531   -1.805505
     21          6           0       -2.399619    0.693532   -0.383407
     22          6           0       -3.242172    1.962912   -0.512881
     23          6           0       -2.404324    3.239348   -0.432166
     24          1           0       -1.856324    0.717471    0.571162
     25          1           0       -1.638648    0.684475   -1.176021
     26          1           0       -4.002214    1.968896    0.278899
     27          1           0       -3.783673    1.935858   -1.467167
     28          1           0       -1.655912    3.260060   -1.230948
     29          1           0       -1.875695    3.293286    0.525040
     30          1           0       -3.026593    4.134696   -0.526992
     31          6           0       -3.223047   -0.590793   -0.462168
     32          6           0       -2.380493   -1.860172   -0.332694
     33          6           0       -3.218341   -3.136608   -0.413409
     34          1           0       -3.984017   -0.581735    0.330447
     35          1           0       -3.766342   -0.614732   -1.416737
     36          1           0       -1.838992   -1.833120    0.621592
     37          1           0       -1.620451   -1.866157   -1.124475
     38          1           0       -3.746970   -3.190547   -1.370614
     39          1           0       -3.966753   -3.157321    0.385373
     40          1           0       -2.596072   -4.031957   -0.318583
 ---------------------------------------------------------------------

 SCF Done:  E(RHF) =  -470.732161718     A.U. after   11 cycles
 E2 =    -0.1584644894D+01 EUMP2 =    -0.47231680661241D+03

 The electronic state is 1-A.
 Alpha  occ. eigenvalues --  -11.21604 -11.21581 -11.21571 -11.21459 -11.21389
 Alpha  occ. eigenvalues --  -11.21365 -11.21319 -11.21299 -11.21102 -11.21101
 Alpha  occ. eigenvalues --  -11.21062 -11.21060  -1.08472  -1.08355  -1.03532
 Alpha  occ. eigenvalues --   -1.03507  -0.96018  -0.95942  -0.87003  -0.86983
 Alpha  occ. eigenvalues --   -0.79613  -0.79588  -0.78457  -0.77982  -0.65114
 Alpha  occ. eigenvalues --   -0.65001  -0.61016  -0.60842  -0.59400  -0.59308
 Alpha  occ. eigenvalues --   -0.57719  -0.57472  -0.55332  -0.55198  -0.52714
 Alpha  occ. eigenvalues --   -0.52639  -0.52426  -0.52385  -0.49932  -0.49904
 Alpha  occ. eigenvalues --   -0.47967  -0.47924  -0.46706  -0.46550  -0.46087
 Alpha  occ. eigenvalues --   -0.45687  -0.45657  -0.45202  -0.43783  -0.43753
 Alpha virt. eigenvalues --    0.20949   0.23064   0.23878   0.24086   0.25469
 Alpha virt. eigenvalues --    0.26353   0.26786   0.27793   0.28494   0.29870
 Alpha virt. eigenvalues --    0.30381   0.31258   0.31386   0.31901   0.31955

 Mulliken charges:
               1
     1  C   -0.297786
     2  C   -0.306287
     3  C   -0.479780
     4  H    0.148963
     5  H    0.149099
     6  H    0.152914
     7  H    0.160379
     8  H    0.155045
     9  H    0.155910
    10  H    0.160090
    11  C   -0.298114
    12  C   -0.299587
    13  C   -0.475674
    14  H    0.149405
    15  H    0.149240
    16  H    0.151923
    17  H    0.151928
    18  H    0.155013
    19  H    0.155096
    20  H    0.160204
    21  C   -0.306801
    22  C   -0.298564
    23  C   -0.476286
    24  H    0.160014
    25  H    0.149206
    26  H    0.151798
    27  H    0.151773
    28  H    0.154620
    29  H    0.155123
    30  H    0.160620
    31  C   -0.297799
    32  C   -0.303776
    33  C   -0.475619
    34  H    0.148918
    35  H    0.149474
    36  H    0.156752
    37  H    0.152450
    38  H    0.155144
    39  H    0.154952
    40  H    0.160021
 Sum of Mulliken charges =  -0.00000

 Dipole moment (field-independent basis, Debye):
    X=             -0.0164    Y=              0.0017    Z=             -0.0067  Tot=              0.0178
 Quadrupole moment (field-independent basis, Debye-Ang):
   XX=            -85.4192   YY=            -84.9802   ZZ=            -84.6175
   XY=             -0.6217   XZ=              0.4186   YZ=             -0.4734

 Normal termination of Gaussian 16 at Wed May  5 15:24:24 2021.
