 Gaussian 16, Revision A.03,
 Gaussian 16:  EM64L-G16RevA.03 25-Dec-2016

 -------------
 #p 6-31g* mp2
 -------------

 ------------------------------------------------------
 Input file generated by CHIRIPA (05-May-2021 14:55:20)
 ------------------------------------------------------
 Symbolic Z-matrix:
 Charge =  0 Multiplicity = 1

                         Standard orientation:
 ---------------------------------------------------------------------
 Center     Atomic      Atomic             Coordinates (Angstroms)
 Number     Number       Type             X           Y           Z
 ---------------------------------------------------------------------
      1          6           0       -6.150985    0.731752    0.459794
      2          6           0       -5.294467    1.671156   -0.123660
      3          6           0       -3.963752    1.343436   -0.399967
      4          6           0       -3.520909    0.061359   -0.078314
      5          6           0       -4.349855   -0.896544    0.503544
      6          6           0       -5.676781   -0.546845    0.770985
      7          1           0       -7.183245    0.994870    0.670992
      8          1           0       -5.660001    2.664888   -0.366409
      9          1           0       -3.279114    2.051320   -0.851174
     10          1           0       -3.956609   -1.879176    0.734219
     11          1           0       -6.339706   -1.278429    1.224154
     12          7           0       -2.114145   -0.297217   -0.366134
     13          8           0       -1.748369   -1.433456   -0.073209
     14          8           0       -1.403939    0.564760   -0.879203
     15          6           0        4.418087   -0.807083   -0.053141
     16          6           0        2.906489   -0.607709   -0.168496
     17          6           0        2.149148   -1.923007   -0.353484
     18          1           0        4.783807   -1.318877   -0.953841
     19          1           0        4.629258   -1.475045    0.793398
     20          1           0        2.698314    0.060783   -1.013716
     21          1           0        2.544354   -0.096160    0.732499
     22          1           0        2.327486   -2.592714    0.494036
     23          1           0        2.482321   -2.434879   -1.262100
     24          1           0        1.070288   -1.757211   -0.433703
     25          6           0        5.188979    0.498713    0.132187
     26          6           0        6.700577    0.299339    0.247543
     27          6           0        7.457919    1.614636    0.432530
     28          1           0        4.977808    1.166675   -0.714352
     29          1           0        4.823258    1.010507    1.032888
     30          1           0        7.062712   -0.212210   -0.653451
     31          1           0        6.908752   -0.369153    1.092763
     32          1           0        7.124746    2.126508    1.341147
     33          1           0        7.279581    2.284343   -0.414989
     34          1           0        8.536777    1.448841    0.512750
 ---------------------------------------------------------------------

 SCF Done:  E(RHF) =  -669.536872902     A.U. after   15 cycles
 E2 =    -0.2091218574D+01 EUMP2 =    -0.67162809147622D+03

 The electronic state is 1-A.
 Alpha  occ. eigenvalues --  -20.61098 -20.61074 -15.86081 -11.31366 -11.27917
 Alpha  occ. eigenvalues --  -11.27913 -11.27647 -11.26913 -11.26904 -11.20868
 Alpha  occ. eigenvalues --  -11.20473 -11.20456 -11.20207 -11.20023 -11.19068
 Alpha  occ. eigenvalues --   -1.60122  -1.39680  -1.19524  -1.08938  -1.07349
 Alpha  occ. eigenvalues --   -1.04912  -1.02337  -0.95787  -0.94778  -0.86315
 Alpha  occ. eigenvalues --   -0.85804  -0.82619  -0.78463  -0.77681  -0.77094
 Alpha  occ. eigenvalues --   -0.72290  -0.71425  -0.70632  -0.65179  -0.64915
 Alpha  occ. eigenvalues --   -0.64000  -0.62259  -0.59759  -0.58220  -0.56346
 Alpha  occ. eigenvalues --   -0.55414  -0.54109  -0.53247  -0.53003  -0.51458
 Alpha  occ. eigenvalues --   -0.51228  -0.49054  -0.48981  -0.48786  -0.46719
 Alpha  occ. eigenvalues --   -0.45543  -0.45101  -0.44638  -0.44549  -0.42537
 Alpha  occ. eigenvalues --   -0.37501  -0.36510
 Alpha virt. eigenvalues --    0.04853   0.11146   0.16364   0.21286   0.23842
 Alpha virt. eigenvalues --    0.25584   0.27209   0.27657   0.28166   0.28522
 Alpha virt. eigenvalues --    0.29283   0.30852   0.32392   0.32494   0.32717

 Mulliken charges:
               1
     1  C   -0.170411
     2  C   -0.218622
     3  C   -0.170644
     4  C    0.158276
     5  C   -0.170646
     6  C   -0.218582
     7  H    0.226253
     8  H    0.224080
     9  H    0.276065
    10  H    0.276142
    11  H    0.224102
    12  N    0.488773
    13  O   -0.458559
    14  O   -0.458428
    15  C   -0.297208
    16  C   -0.296336
    17  C   -0.489524
    18  H    0.146772
    19  H    0.146064
    20  H    0.153925
    21  H    0.149669
    22  H    0.145809
    23  H    0.146133
    24  H    0.193627
    25  C   -0.297103
    26  C   -0.298684
    27  C   -0.475033
    28  H    0.148702
    29  H    0.147959
    30  H    0.150768
    31  H    0.150459
    32  H    0.154015
    33  H    0.154353
    34  H    0.157835
 Sum of Mulliken charges =  -0.00000

 Dipole moment (field-independent basis, Debye):
    X=             -5.4755    Y=              1.3175    Z=              0.9803  Tot=              5.7165
 Quadrupole moment (field-independent basis, Debye-Ang):
   XX=            -62.2955   YY=            -91.5371   ZZ=            -94.0816
   XY=             -4.4375   XZ=             -3.9444   YZ=             -2.2914

 Normal termination of Gaussian 16 at Thu May  6 20:41:02 2021.
