 Gaussian 16, Revision A.03,
 Gaussian 16:  EM64L-G16RevA.03 25-Dec-2016

 -------------
 #p 6-31g* mp2
 -------------

 ------------------------------------------------------
 Input file generated by CHIRIPA (05-May-2021 14:55:21)
 ------------------------------------------------------
 Symbolic Z-matrix:
 Charge =  0 Multiplicity = 1

                         Standard orientation:
 ---------------------------------------------------------------------
 Center     Atomic      Atomic             Coordinates (Angstroms)
 Number     Number       Type             X           Y           Z
 ---------------------------------------------------------------------
      1          6           0       -4.862503    0.543311   -1.525854
      2          6           0       -4.159878    1.438614   -0.712669
      3          6           0       -3.216061    0.971830    0.207043
      4          6           0       -2.998981   -0.402829    0.287539
      5          6           0       -3.683020   -1.319976   -0.508842
      6          6           0       -4.622255   -0.830704   -1.421529
      7          1           0       -5.593904    0.914654   -2.237579
      8          1           0       -4.344397    2.506219   -0.791520
      9          1           0       -2.657989    1.642766    0.848774
     10          1           0       -3.477363   -2.378669   -0.407390
     11          1           0       -5.166443   -1.528334   -2.051781
     12          7           0       -2.002229   -0.908896    1.257478
     13          8           0       -1.829319   -2.124656    1.309105
     14          8           0       -1.412759   -0.080208    1.947724
     15          6           0        3.300445    0.554593   -0.207067
     16          6           0        2.895364    1.858312    0.481563
     17          6           0        1.394874    2.136043    0.385716
     18          1           0        3.000606    0.596642   -1.263132
     19          1           0        2.742937   -0.278368    0.243217
     20          1           0        3.454494    2.688389    0.031049
     21          1           0        3.196375    1.813233    1.536066
     22          1           0        0.822872    1.327603    0.852452
     23          1           0        1.082459    2.207731   -0.661116
     24          1           0        1.127303    3.072768    0.884526
     25          6           0        4.797496    0.263130   -0.119798
     26          6           0        5.202576   -1.040590   -0.808427
     27          6           0        6.703067   -1.318320   -0.712581
     28          1           0        5.355004    1.096091   -0.570081
     29          1           0        5.097335    0.221082    0.936268
     30          1           0        4.901566   -0.995510   -1.862930
     31          1           0        4.643447   -1.870666   -0.357914
     32          1           0        7.015482   -1.390009    0.334252
     33          1           0        7.275069   -0.509880   -1.179316
     34          1           0        6.970638   -2.255045   -1.211390
 ---------------------------------------------------------------------

 SCF Done:  E(RHF) =  -669.536450488     A.U. after   15 cycles
 E2 =    -0.2090915897D+01 EUMP2 =    -0.67162736638473D+03

 The electronic state is 1-A.
 Alpha  occ. eigenvalues --  -20.60944 -20.60936 -15.85961 -11.31246 -11.27815
 Alpha  occ. eigenvalues --  -11.27798 -11.27550 -11.26816 -11.26802 -11.21116
 Alpha  occ. eigenvalues --  -11.20934 -11.20843 -11.20715 -11.20663 -11.20257
 Alpha  occ. eigenvalues --   -1.59997  -1.39554  -1.19416  -1.08829  -1.07839
 Alpha  occ. eigenvalues --   -1.04808  -1.02939  -0.95678  -0.95387  -0.86411
 Alpha  occ. eigenvalues --   -0.86210  -0.82511  -0.79016  -0.77658  -0.77556
 Alpha  occ. eigenvalues --   -0.72189  -0.71304  -0.70527  -0.65074  -0.64813
 Alpha  occ. eigenvalues --   -0.64461  -0.62154  -0.60323  -0.58775  -0.57005
 Alpha  occ. eigenvalues --   -0.55319  -0.54657  -0.53141  -0.52901  -0.52103
 Alpha  occ. eigenvalues --   -0.51819  -0.49335  -0.48947  -0.48931  -0.47341
 Alpha  occ. eigenvalues --   -0.46064  -0.45238  -0.45151  -0.44786  -0.43206
 Alpha  occ. eigenvalues --   -0.37396  -0.36406
 Alpha virt. eigenvalues --    0.04922   0.11241   0.16388   0.21329   0.23476
 Alpha virt. eigenvalues --    0.24907   0.27084   0.27281   0.27823   0.28158
 Alpha virt. eigenvalues --    0.28883   0.30794   0.31868   0.32179   0.32591

 Mulliken charges:
               1
     1  C   -0.170519
     2  C   -0.218744
     3  C   -0.170320
     4  C    0.158253
     5  C   -0.170814
     6  C   -0.218686
     7  H    0.225828
     8  H    0.223896
     9  H    0.277206
    10  H    0.275591
    11  H    0.223604
    12  N    0.488385
    13  O   -0.458887
    14  O   -0.459930
    15  C   -0.299775
    16  C   -0.297773
    17  C   -0.487764
    18  H    0.145922
    19  H    0.156760
    20  H    0.147379
    21  H    0.153809
    22  H    0.178272
    23  H    0.146653
    24  H    0.154565
    25  C   -0.297962
    26  C   -0.299683
    27  C   -0.475430
    28  H    0.147129
    29  H    0.150448
    30  H    0.150038
    31  H    0.154331
    32  H    0.155446
    33  H    0.153720
    34  H    0.159052
 Sum of Mulliken charges =  -0.00000

 Dipole moment (field-independent basis, Debye):
    X=             -3.7036    Y=              1.6589    Z=             -3.3182  Tot=              5.2420
 Quadrupole moment (field-independent basis, Debye-Ang):
   XX=            -75.7468   YY=            -92.1058   ZZ=            -96.2484
   XY=             -2.8188   XZ=             10.0176   YZ=              3.0573

 Normal termination of Gaussian 16 at Thu May  6 15:49:00 2021.
