 Gaussian 16, Revision A.03,
 Gaussian 16:  EM64L-G16RevA.03 25-Dec-2016

 -------------
 #p 6-31g* mp2
 -------------

 ------------------------------------------------------
 Input file generated by CHIRIPA (05-May-2021 14:55:22)
 ------------------------------------------------------
 Symbolic Z-matrix:
 Charge =  0 Multiplicity = 1

                         Standard orientation:
 ---------------------------------------------------------------------
 Center     Atomic      Atomic             Coordinates (Angstroms)
 Number     Number       Type             X           Y           Z
 ---------------------------------------------------------------------
      1          6           0       -4.821236    0.630262   -0.875355
      2          6           0       -4.700031    0.472636    0.509197
      3          6           0       -3.516946   -0.021400    1.066680
      4          6           0       -2.470321   -0.349331    0.206257
      5          6           0       -2.560496   -0.203573   -1.177186
      6          6           0       -3.752965    0.292250   -1.712651
      7          1           0       -5.743930    1.014736   -1.299868
      8          1           0       -5.528026    0.734323    1.161876
      9          1           0       -3.396126   -0.153390    2.135042
     10          1           0       -1.717840   -0.473050   -1.802271
     11          1           0       -3.844266    0.413621   -2.788280
     12          7           0       -1.212874   -0.873291    0.784784
     13          8           0       -0.305376   -1.154926    0.005191
     14          8           0       -1.158596   -0.992415    2.006873
     15          6           0        3.715048   -0.326310    0.105342
     16          6           0        3.433311   -1.498254   -0.835486
     17          6           0        4.015312   -2.817577   -0.327101
     18          1           0        4.800817   -0.223096    0.237244
     19          1           0        3.299886   -0.553314    1.097060
     20          1           0        3.847671   -1.268516   -1.825507
     21          1           0        2.348094   -1.598570   -0.965314
     22          1           0        3.593585   -3.073451    0.650281
     23          1           0        5.101684   -2.741521   -0.214798
     24          1           0        3.802222   -3.641862   -1.014857
     25          6           0        3.139514    0.999528   -0.389268
     26          6           0        3.421251    2.171472    0.551560
     27          6           0        2.839251    3.490795    0.043175
     28          1           0        3.554677    1.226532   -1.380986
     29          1           0        2.053745    0.896314   -0.521170
     30          1           0        4.506469    2.271788    0.681389
     31          1           0        3.006891    1.941734    1.541580
     32          1           0        1.752878    3.414738   -0.069128
     33          1           0        3.260977    3.746669   -0.934208
     34          1           0        3.052339    4.315079    0.730932
 ---------------------------------------------------------------------

 SCF Done:  E(RHF) =  -669.536531637     A.U. after   15 cycles
 E2 =    -0.2091451979D+01 EUMP2 =    -0.67162798361611D+03

 The electronic state is 1-A.
 Alpha  occ. eigenvalues --  -20.61082 -20.61077 -15.86108 -11.31369 -11.27925
 Alpha  occ. eigenvalues --  -11.27922 -11.27654 -11.26921 -11.26911 -11.20726
 Alpha  occ. eigenvalues --  -11.20460 -11.20243 -11.20117 -11.20042 -11.19830
 Alpha  occ. eigenvalues --   -1.60135  -1.39694  -1.19533  -1.08948  -1.07250
 Alpha  occ. eigenvalues --   -1.04920  -1.02433  -0.95799  -0.94920  -0.86324
 Alpha  occ. eigenvalues --   -0.85946  -0.82638  -0.78518  -0.77701  -0.77032
 Alpha  occ. eigenvalues --   -0.72338  -0.71442  -0.70641  -0.65194  -0.64923
 Alpha  occ. eigenvalues --   -0.63842  -0.62268  -0.59808  -0.58319  -0.56529
 Alpha  occ. eigenvalues --   -0.55427  -0.54203  -0.53255  -0.53011  -0.51663
 Alpha  occ. eigenvalues --   -0.51358  -0.49126  -0.49087  -0.48830  -0.46845
 Alpha  occ. eigenvalues --   -0.45535  -0.45154  -0.44584  -0.44354  -0.42669
 Alpha  occ. eigenvalues --   -0.37508  -0.36519
 Alpha virt. eigenvalues --    0.04810   0.11136   0.16300   0.21229   0.24013
 Alpha virt. eigenvalues --    0.25356   0.27127   0.27507   0.28180   0.28785
 Alpha virt. eigenvalues --    0.29082   0.30937   0.32245   0.32478   0.32806

 Mulliken charges:
               1
     1  C   -0.170400
     2  C   -0.218590
     3  C   -0.170385
     4  C    0.157050
     5  C   -0.170662
     6  C   -0.218493
     7  H    0.226345
     8  H    0.224105
     9  H    0.275977
    10  H    0.275891
    11  H    0.224254
    12  N    0.495004
    13  O   -0.467042
    14  O   -0.458206
    15  C   -0.295606
    16  C   -0.308249
    17  C   -0.475062
    18  H    0.142481
    19  H    0.157227
    20  H    0.142141
    21  H    0.176619
    22  H    0.159528
    23  H    0.148983
    24  H    0.155412
    25  C   -0.301022
    26  C   -0.299568
    27  C   -0.474472
    28  H    0.142889
    29  H    0.158025
    30  H    0.149127
    31  H    0.154506
    32  H    0.152232
    33  H    0.152538
    34  H    0.157423
 Sum of Mulliken charges =  -0.00000

 Dipole moment (field-independent basis, Debye):
    X=             -4.8229    Y=              1.7362    Z=             -1.9393  Tot=              5.4805
 Quadrupole moment (field-independent basis, Debye-Ang):
   XX=            -73.2628   YY=            -98.5772   ZZ=            -91.3148
   XY=             -2.9030   XZ=              2.0601   YZ=              1.5085

 Normal termination of Gaussian 16 at Wed May  5 23:53:10 2021.
