 Gaussian 16, Revision A.03,
 Gaussian 16:  EM64L-G16RevA.03 25-Dec-2016

 -------------
 #p 6-31g* mp2
 -------------

 ------------------------------------------------------
 Input file generated by CHIRIPA (05-May-2021 14:53:17)
 ------------------------------------------------------
 Symbolic Z-matrix:
 Charge =  0 Multiplicity = 1

                         Standard orientation:
 ---------------------------------------------------------------------
 Center     Atomic      Atomic             Coordinates (Angstroms)
 Number     Number       Type             X           Y           Z
 ---------------------------------------------------------------------
      1          6           0        2.743201    0.602145    0.613531
      2          6           0        3.200032    2.061350    0.616771
      3          6           0        2.504382    2.896193    1.692365
      4          1           0        1.655715    0.565364    0.461986
      5          1           0        2.936091    0.162622    1.601968
      6          1           0        3.007608    2.497593   -0.371804
      7          1           0        4.286584    2.094654    0.768134
      8          1           0        2.706290    2.487527    2.687768
      9          1           0        1.420046    2.892756    1.541353
     10          1           0        2.845783    3.935936    1.676846
     11          6           0        3.429717   -0.245214   -0.456239
     12          6           0        2.972886   -1.704419   -0.459480
     13          6           0        3.668536   -2.539262   -1.535074
     14          1           0        3.236827    0.194309   -1.444676
     15          1           0        4.517203   -0.208433   -0.304695
     16          1           0        1.886334   -1.737723   -0.610843
     17          1           0        3.165310   -2.140662    0.529096
     18          1           0        4.752872   -2.535824   -1.384061
     19          1           0        3.466628   -2.130596   -2.530477
     20          1           0        3.327135   -3.579005   -1.519555
     21          6           0       -2.135288   -2.029020    1.587550
     22          6           0       -1.035892   -1.577279    0.850137
     23          6           0       -1.177171   -0.531002   -0.066319
     24          6           0       -2.437979    0.043253   -0.220861
     25          6           0       -3.552420   -0.384553    0.499067
     26          6           0       -3.387835   -1.432267    1.409976
     27          1           0       -2.016486   -2.842352    2.297321
     28          1           0       -0.061957   -2.038848    0.985974
     29          1           0       -0.342895   -0.161625   -0.650240
     30          1           0       -4.510748    0.095350    0.341845
     31          1           0       -4.243405   -1.781035    1.981294
     32          7           0       -2.599882    1.151661   -1.188135
     33          8           0       -3.721241    1.640873   -1.305871
     34          8           0       -1.602356    1.510230   -1.810234
 ---------------------------------------------------------------------

 SCF Done:  E(RHF) =  -669.535113166     A.U. after   15 cycles
 E2 =    -0.2093010801D+01 EUMP2 =    -0.67162812396700D+03

 The electronic state is 1-A.
 Alpha  occ. eigenvalues --  -20.60783 -20.60776 -15.85833 -11.31178 -11.27742
 Alpha  occ. eigenvalues --  -11.27714 -11.27465 -11.26760 -11.26701 -11.22424
 Alpha  occ. eigenvalues --  -11.21886 -11.21826 -11.21736 -11.21616 -11.21103
 Alpha  occ. eigenvalues --   -1.59857  -1.39411  -1.19345  -1.08910  -1.08740
 Alpha  occ. eigenvalues --   -1.04745  -1.03930  -0.96350  -0.95583  -0.87371
 Alpha  occ. eigenvalues --   -0.86140  -0.82425  -0.80049  -0.78750  -0.77442
 Alpha  occ. eigenvalues --   -0.72053  -0.71179  -0.70470  -0.65590  -0.64981
 Alpha  occ. eigenvalues --   -0.64738  -0.62091  -0.61313  -0.59743  -0.57972
 Alpha  occ. eigenvalues --   -0.55632  -0.55238  -0.53093  -0.53058  -0.52889
 Alpha  occ. eigenvalues --   -0.52684  -0.50293  -0.48811  -0.48810  -0.48330
 Alpha  occ. eigenvalues --   -0.47085  -0.46226  -0.46122  -0.44820  -0.44195
 Alpha  occ. eigenvalues --   -0.37322  -0.36324
 Alpha virt. eigenvalues --    0.05017   0.11274   0.16488   0.19527   0.22831
 Alpha virt. eigenvalues --    0.23910   0.25037   0.25944   0.27504   0.28199
 Alpha virt. eigenvalues --    0.29899   0.30884   0.31158   0.31549   0.32695

 Mulliken charges:
               1
     1  C   -0.303607
     2  C   -0.300070
     3  C   -0.476648
     4  H    0.146794
     5  H    0.147873
     6  H    0.158491
     7  H    0.152082
     8  H    0.152801
     9  H    0.159033
    10  H    0.162620
    11  C   -0.299594
    12  C   -0.305656
    13  C   -0.475418
    14  H    0.155648
    15  H    0.152909
    16  H    0.144516
    17  H    0.150361
    18  H    0.158181
    19  H    0.159838
    20  H    0.159979
    21  C   -0.171112
    22  C   -0.221806
    23  C   -0.176695
    24  C    0.159418
    25  C   -0.171122
    26  C   -0.218261
    27  H    0.225753
    28  H    0.229542
    29  H    0.278486
    30  H    0.275495
    31  H    0.223442
    32  N    0.488201
    33  O   -0.460198
    34  O   -0.461277
 Sum of Mulliken charges =  -0.00000

 Dipole moment (field-independent basis, Debye):
    X=              0.7054    Y=             -3.8219    Z=              3.3542  Tot=              5.1337
 Quadrupole moment (field-independent basis, Debye-Ang):
   XX=            -91.7903   YY=            -96.0076   ZZ=            -96.7413
   XY=              9.5872   XZ=             -9.4072   YZ=              0.3512

 Normal termination of Gaussian 16 at Thu May  6 07:33:30 2021.
