 Gaussian 16, Revision A.03,
 Gaussian 16:  EM64L-G16RevA.03 25-Dec-2016

 -------------
 #p 6-31g* mp2
 -------------

 ------------------------------------------------------
 Input file generated by CHIRIPA (05-May-2021 14:53:16)
 ------------------------------------------------------
 Symbolic Z-matrix:
 Charge =  0 Multiplicity = 1

                         Standard orientation:
 ---------------------------------------------------------------------
 Center     Atomic      Atomic             Coordinates (Angstroms)
 Number     Number       Type             X           Y           Z
 ---------------------------------------------------------------------
      1          6           0       -3.311782   -0.389305    0.474108
      2          6           0       -3.915365   -1.337030   -0.562950
      3          6           0       -4.332085   -2.680714    0.035926
      4          1           0       -2.440693   -0.871204    0.938782
      5          1           0       -4.042533   -0.222821    1.277651
      6          1           0       -3.184210   -1.500582   -1.364997
      7          1           0       -4.785004   -0.852742   -1.025346
      8          1           0       -5.079902   -2.536607    0.822440
      9          1           0       -3.470013   -3.188127    0.480859
     10          1           0       -4.760977   -3.342699   -0.722815
     11          6           0       -2.890274    0.958139   -0.109375
     12          6           0       -2.286691    1.905865    0.927682
     13          6           0       -1.869971    3.249548    0.328806
     14          1           0       -2.159524    0.791656   -0.912919
     15          1           0       -3.761363    1.440039   -0.574050
     16          1           0       -1.417053    1.421577    1.390078
     17          1           0       -3.017846    2.069416    1.729729
     18          1           0       -2.732043    3.756962   -0.116126
     19          1           0       -1.122154    3.105441   -0.457707
     20          1           0       -1.441079    3.911533    1.087547
     21          6           0        2.713944   -2.686529    0.313786
     22          6           0        1.688953   -2.247325   -0.530616
     23          6           0        1.518211   -0.884300   -0.790536
     24          6           0        2.394520    0.016041   -0.186583
     25          6           0        3.425287   -0.390462    0.659326
     26          6           0        3.577318   -1.758333    0.905019
     27          1           0        2.839313   -3.747243    0.510171
     28          1           0        1.016957   -2.965914   -0.991154
     29          1           0        0.733119   -0.516853   -1.440176
     30          1           0        4.079469    0.349686    1.103900
     31          1           0        4.374222   -2.096549    1.561219
     32          7           0        2.223668    1.461579   -0.454218
     33          8           0        3.008950    2.234669    0.090118
     34          8           0        1.307707    1.794132   -1.203259
 ---------------------------------------------------------------------

 SCF Done:  E(RHF) =  -669.536381362     A.U. after   15 cycles
 E2 =    -0.2091882697D+01 EUMP2 =    -0.67162826405956D+03

 The electronic state is 1-A.
 Alpha  occ. eigenvalues --  -20.60993 -20.60988 -15.86019 -11.31329 -11.27894
 Alpha  occ. eigenvalues --  -11.27883 -11.27619 -11.26892 -11.26882 -11.21691
 Alpha  occ. eigenvalues --  -11.21279 -11.21254 -11.21006 -11.20938 -11.19879
 Alpha  occ. eigenvalues --   -1.60045  -1.39603  -1.19493  -1.08899  -1.08172
 Alpha  occ. eigenvalues --   -1.04888  -1.03168  -0.95747  -0.95592  -0.86610
 Alpha  occ. eigenvalues --   -0.86287  -0.82579  -0.79293  -0.77924  -0.77629
 Alpha  occ. eigenvalues --   -0.72246  -0.71358  -0.70600  -0.65152  -0.64901
 Alpha  occ. eigenvalues --   -0.64802  -0.62234  -0.60560  -0.59051  -0.57195
 Alpha  occ. eigenvalues --   -0.55390  -0.54876  -0.53217  -0.52978  -0.52283
 Alpha  occ. eigenvalues --   -0.52012  -0.49576  -0.48997  -0.48955  -0.47576
 Alpha  occ. eigenvalues --   -0.46356  -0.45490  -0.45399  -0.44888  -0.43437
 Alpha  occ. eigenvalues --   -0.37468  -0.36487
 Alpha virt. eigenvalues --    0.04854   0.11142   0.16328   0.20504   0.22876
 Alpha virt. eigenvalues --    0.24532   0.25782   0.27309   0.27600   0.28504
 Alpha virt. eigenvalues --    0.29161   0.30758   0.31747   0.31901   0.32297

 Mulliken charges:
               1
     1  C   -0.298304
     2  C   -0.298099
     3  C   -0.475086
     4  H    0.145819
     5  H    0.150082
     6  H    0.145731
     7  H    0.154136
     8  H    0.156919
     9  H    0.151081
    10  H    0.159383
    11  C   -0.299630
    12  C   -0.296527
    13  C   -0.486266
    14  H    0.150988
    15  H    0.149659
    16  H    0.147648
    17  H    0.147923
    18  H    0.148763
    19  H    0.182361
    20  H    0.158869
    21  C   -0.170478
    22  C   -0.218878
    23  C   -0.171970
    24  C    0.157954
    25  C   -0.170553
    26  C   -0.218514
    27  H    0.226266
    28  H    0.224263
    29  H    0.276713
    30  H    0.275998
    31  H    0.224029
    32  N    0.489585
    33  O   -0.458059
    34  O   -0.461806
 Sum of Mulliken charges =  -0.00000

 Dipole moment (field-independent basis, Debye):
    X=              0.8046    Y=             -5.0031    Z=              0.8903  Tot=              5.1450
 Quadrupole moment (field-independent basis, Debye-Ang):
   XX=            -88.5316   YY=            -96.1417   ZZ=            -94.0981
   XY=            -12.1399   XZ=              4.9818   YZ=              1.7648

 Normal termination of Gaussian 16 at Thu May  6 01:11:01 2021.
