 Gaussian 16, Revision A.03,
 Gaussian 16:  EM64L-G16RevA.03 25-Dec-2016

 -------------
 #p 6-31g* mp2
 -------------

 ------------------------------------------------------
 Input file generated by CHIRIPA (05-May-2021 14:55:25)
 ------------------------------------------------------
 Symbolic Z-matrix:
 Charge =  0 Multiplicity = 1

                         Standard orientation:
 ---------------------------------------------------------------------
 Center     Atomic      Atomic             Coordinates (Angstroms)
 Number     Number       Type             X           Y           Z
 ---------------------------------------------------------------------
      1          6           0       -3.071836   -1.756072   -1.664803
      2          6           0       -1.756247   -1.730088   -1.190387
      3          6           0       -1.392265   -0.865590   -0.153706
      4          6           0       -2.373762   -0.036989    0.387935
      5          6           0       -3.692817   -0.039661   -0.063038
      6          6           0       -4.034226   -0.912264   -1.100609
      7          1           0       -3.345819   -2.430783   -2.470467
      8          1           0       -1.006748   -2.384281   -1.626654
      9          1           0       -0.381104   -0.824988    0.232717
     10          1           0       -4.417886    0.624269    0.391812
     11          1           0       -5.056697   -0.930296   -1.467039
     12          7           0       -2.000379    0.882506    1.485894
     13          8           0       -2.883710    1.602544    1.946230
     14          8           0       -0.831460    0.865759    1.865348
     15          6           0        3.657471   -0.294923   -0.201978
     16          6           0        3.382591   -1.304706    0.912816
     17          6           0        4.472319   -2.371199    1.026303
     18          1           0        3.750423   -0.829322   -1.157344
     19          1           0        4.627102    0.188355   -0.018533
     20          1           0        2.413128   -1.784940    0.728064
     21          1           0        3.290092   -0.767822    1.865608
     22          1           0        5.442957   -1.909556    1.234506
     23          1           0        4.561011   -2.932453    0.090499
     24          1           0        4.255752   -3.082595    1.829344
     25          6           0        2.576897    0.777566   -0.327885
     26          6           0        2.851775    1.787350   -1.442679
     27          6           0        1.762047    2.853843   -1.556167
     28          1           0        1.607265    0.294289   -0.511331
     29          1           0        2.483943    1.311965    0.627480
     30          1           0        2.944275    1.250467   -2.395473
     31          1           0        3.821239    2.267584   -1.257928
     32          1           0        1.673356    3.415096   -0.620363
     33          1           0        0.791409    2.392200   -1.764369
     34          1           0        1.978615    3.565239   -2.359208
 ---------------------------------------------------------------------

 SCF Done:  E(RHF) =  -669.535436460     A.U. after   15 cycles
 E2 =    -0.2092191842D+01 EUMP2 =    -0.67162762830244D+03

 The electronic state is 1-A.
 Alpha  occ. eigenvalues --  -20.60767 -20.60759 -15.85815 -11.31199 -11.27771
 Alpha  occ. eigenvalues --  -11.27745 -11.27519 -11.26797 -11.26787 -11.21635
 Alpha  occ. eigenvalues --  -11.21439 -11.21350 -11.21192 -11.21108 -11.20786
 Alpha  occ. eigenvalues --   -1.59837  -1.39389  -1.19375  -1.08767  -1.08347
 Alpha  occ. eigenvalues --   -1.04783  -1.03433  -0.95874  -0.95597  -0.86886
 Alpha  occ. eigenvalues --   -0.86179  -0.82429  -0.79500  -0.78176  -0.77441
 Alpha  occ. eigenvalues --   -0.72033  -0.71158  -0.70490  -0.65071  -0.65019
 Alpha  occ. eigenvalues --   -0.64732  -0.62130  -0.60840  -0.59241  -0.57475
 Alpha  occ. eigenvalues --   -0.55309  -0.55141  -0.53109  -0.52897  -0.52568
 Alpha  occ. eigenvalues --   -0.52268  -0.49813  -0.48798  -0.48790  -0.47810
 Alpha  occ. eigenvalues --   -0.46552  -0.45691  -0.45580  -0.44765  -0.43689
 Alpha  occ. eigenvalues --   -0.37356  -0.36378
 Alpha virt. eigenvalues --    0.05028   0.11197   0.16538   0.20048   0.23052
 Alpha virt. eigenvalues --    0.24274   0.24827   0.27180   0.27768   0.28026
 Alpha virt. eigenvalues --    0.29860   0.31100   0.31395   0.31916   0.31942

 Mulliken charges:
               1
     1  C   -0.170634
     2  C   -0.220869
     3  C   -0.177892
     4  C    0.157528
     5  C   -0.170404
     6  C   -0.218591
     7  H    0.225658
     8  H    0.223218
     9  H    0.286236
    10  H    0.275691
    11  H    0.223572
    12  N    0.487573
    13  O   -0.460494
    14  O   -0.460188
    15  C   -0.299220
    16  C   -0.298953
    17  C   -0.475729
    18  H    0.145192
    19  H    0.151346
    20  H    0.142339
    21  H    0.160656
    22  H    0.156922
    23  H    0.152478
    24  H    0.160887
    25  C   -0.299566
    26  C   -0.299839
    27  C   -0.475130
    28  H    0.140704
    29  H    0.163982
    30  H    0.147674
    31  H    0.152519
    32  H    0.162430
    33  H    0.152630
    34  H    0.158276
 Sum of Mulliken charges =  -0.00000

 Dipole moment (field-independent basis, Debye):
    X=             -1.2879    Y=             -3.1081    Z=             -3.7195  Tot=              5.0153
 Quadrupole moment (field-independent basis, Debye-Ang):
   XX=            -84.1080   YY=            -94.9323   ZZ=            -98.2062
   XY=              7.2284   XZ=              9.3086   YZ=             -0.2365

 Normal termination of Gaussian 16 at Thu May  6 01:39:26 2021.
