 Gaussian 16, Revision A.03,
 Gaussian 16:  EM64L-G16RevA.03 25-Dec-2016

 -------------
 #p 6-31g* mp2
 -------------

 ------------------------------------------------------
 Input file generated by CHIRIPA (05-May-2021 14:53:18)
 ------------------------------------------------------
 Symbolic Z-matrix:
 Charge =  0 Multiplicity = 1

                         Standard orientation:
 ---------------------------------------------------------------------
 Center     Atomic      Atomic             Coordinates (Angstroms)
 Number     Number       Type             X           Y           Z
 ---------------------------------------------------------------------
      1          6           0        3.848327   -0.352238   -0.212263
      2          6           0        3.185851   -1.501780    0.547779
      3          6           0        1.746971   -1.756445    0.097709
      4          1           0        3.252788    0.560749   -0.075392
      5          1           0        3.833851   -0.576554   -1.287841
      6          1           0        3.202812   -1.275998    1.621720
      7          1           0        3.783141   -2.412093    0.409240
      8          1           0        1.715140   -2.006757   -0.967623
      9          1           0        1.131514   -0.864208    0.251747
     10          1           0        1.292529   -2.582232    0.653962
     11          6           0        5.287113   -0.085517    0.226465
     12          6           0        5.949589    1.064025   -0.533576
     13          6           0        7.388469    1.318690   -0.083506
     14          1           0        5.301590    0.138799    1.302043
     15          1           0        5.882652   -0.998504    0.089595
     16          1           0        5.352300    1.974337   -0.395038
     17          1           0        5.932628    0.838243   -1.607518
     18          1           0        8.003926    0.426453   -0.237544
     19          1           0        7.420300    1.569002    0.981825
     20          1           0        7.842912    2.144477   -0.639760
     21          6           0       -3.206308   -2.321372   -0.156579
     22          6           0       -4.488913   -1.789006   -0.324002
     23          6           0       -4.701330   -0.409598   -0.242392
     24          6           0       -3.603550    0.411951    0.009053
     25          6           0       -2.313681   -0.088214    0.180405
     26          6           0       -2.124691   -1.470776    0.094648
     27          1           0       -3.050397   -3.394154   -0.221587
     28          1           0       -5.330774   -2.447192   -0.519214
     29          1           0       -5.683712    0.029226   -0.367995
     30          1           0       -1.494100    0.593159    0.373889
     31          1           0       -1.127495   -1.881421    0.225090
     32          7           0       -3.816025    1.873938    0.097646
     33          8           0       -2.832309    2.576398    0.320110
     34          8           0       -4.962256    2.289701   -0.057055
 ---------------------------------------------------------------------

 SCF Done:  E(RHF) =  -669.535319224     A.U. after   15 cycles
 E2 =    -0.2091329870D+01 EUMP2 =    -0.67162664909317D+03

 The electronic state is 1-A.
 Alpha  occ. eigenvalues --  -20.60697 -20.60692 -15.85748 -11.31087 -11.27646
 Alpha  occ. eigenvalues --  -11.27630 -11.27364 -11.26666 -11.26546 -11.22352
 Alpha  occ. eigenvalues --  -11.22242 -11.21886 -11.21835 -11.21719 -11.21244
 Alpha  occ. eigenvalues --   -1.59773  -1.39327  -1.19244  -1.08915  -1.08645
 Alpha  occ. eigenvalues --   -1.04644  -1.04076  -0.96568  -0.95489  -0.87617
 Alpha  occ. eigenvalues --   -0.86034  -0.82324  -0.80167  -0.78670  -0.77367
 Alpha  occ. eigenvalues --   -0.71967  -0.71095  -0.70363  -0.65542  -0.64894
 Alpha  occ. eigenvalues --   -0.64653  -0.62059  -0.61428  -0.59965  -0.58131
 Alpha  occ. eigenvalues --   -0.55852  -0.55148  -0.53433  -0.53022  -0.52948
 Alpha  occ. eigenvalues --   -0.52553  -0.50491  -0.48725  -0.48721  -0.48459
 Alpha  occ. eigenvalues --   -0.47152  -0.46225  -0.46110  -0.44739  -0.44307
 Alpha  occ. eigenvalues --   -0.37228  -0.36239
 Alpha virt. eigenvalues --    0.05152   0.11404   0.16650   0.20390   0.22519
 Alpha virt. eigenvalues --    0.23806   0.25373   0.26135   0.26744   0.27691
 Alpha virt. eigenvalues --    0.29007   0.29723   0.31132   0.31233   0.32212

 Mulliken charges:
               1
     1  C   -0.299861
     2  C   -0.299255
     3  C   -0.483979
     4  H    0.152210
     5  H    0.150622
     6  H    0.155022
     7  H    0.154587
     8  H    0.160256
     9  H    0.151962
    10  H    0.155950
    11  C   -0.298994
    12  C   -0.300333
    13  C   -0.476060
    14  H    0.150743
    15  H    0.149887
    16  H    0.154054
    17  H    0.152356
    18  H    0.155027
    19  H    0.155870
    20  H    0.161709
    21  C   -0.173289
    22  C   -0.218330
    23  C   -0.171629
    24  C    0.159081
    25  C   -0.176212
    26  C   -0.226665
    27  H    0.225445
    28  H    0.222819
    29  H    0.275084
    30  H    0.274807
    31  H    0.240613
    32  N    0.488274
    33  O   -0.460992
    34  O   -0.460779
 Sum of Mulliken charges =  -0.00000

 Dipole moment (field-independent basis, Debye):
    X=              1.0176    Y=             -5.1532    Z=             -0.3269  Tot=              5.2628
 Quadrupole moment (field-independent basis, Debye-Ang):
   XX=            -95.7132   YY=            -99.2442   ZZ=            -95.0386
   XY=             19.2893   XZ=              1.6663   YZ=              0.4014

 Normal termination of Gaussian 16 at Thu May  6 14:00:39 2021.
