 Gaussian 16, Revision A.03,
 Gaussian 16:  EM64L-G16RevA.03 25-Dec-2016

 -------------
 #p 6-31g* mp2
 -------------

 ------------------------------------------------------
 Input file generated by CHIRIPA (05-May-2021 14:57:22)
 ------------------------------------------------------
 Symbolic Z-matrix:
 Charge =  0 Multiplicity = 1

                         Standard orientation:
 ---------------------------------------------------------------------
 Center     Atomic      Atomic             Coordinates (Angstroms)
 Number     Number       Type             X           Y           Z
 ---------------------------------------------------------------------
      1          6           0       -2.258445    2.180944    1.061407
      2          6           0       -1.589717    0.962815    1.221047
      3          6           0       -2.087334   -0.202959    0.631220
      4          6           0       -3.261451   -0.113916   -0.114978
      5          6           0       -3.950557    1.084820   -0.292329
      6          6           0       -3.434658    2.237958    0.306560
      7          1           0       -1.864783    3.081638    1.523119
      8          1           0       -0.676049    0.915556    1.806728
      9          1           0       -1.589777   -1.159154    0.738663
     10          1           0       -4.859177    1.100512   -0.881890
     11          1           0       -3.956113    3.182594    0.180889
     12          7           0       -3.797933   -1.341381   -0.744198
     13          8           0       -4.834163   -1.236410   -1.396767
     14          8           0       -3.172040   -2.385196   -0.572897
     15          6           0        2.484098   -1.232136    2.152099
     16          6           0        2.218902    0.128985    1.968958
     17          6           0        2.596108    0.773064    0.786830
     18          6           0        3.239635    0.022189   -0.195692
     19          6           0        3.517819   -1.335222   -0.042924
     20          6           0        3.131569   -1.958614    1.147345
     21          1           0        2.187563   -1.724436    3.073567
     22          1           0        1.716212    0.695683    2.747549
     23          1           0        2.403120    1.825658    0.618840
     24          1           0        4.020448   -1.873756   -0.837130
     25          1           0        3.338816   -3.015798    1.286829
     26          7           0        3.643752    0.693096   -1.451467
     27          8           0        4.209415    0.009305   -2.301815
     28          8           0        3.387187    1.890041   -1.561618
 ---------------------------------------------------------------------

 SCF Done:  E(RHF) =  -868.336951887     A.U. after   16 cycles
 E2 =    -0.2600519744D+01 EUMP2 =    -0.87093747163117D+03

 The electronic state is 1-A.
 Alpha  occ. eigenvalues --  -20.61224 -20.61208 -20.60932 -20.60920 -15.86282
 Alpha  occ. eigenvalues --  -15.85984 -11.31805 -11.31382 -11.28500 -11.28365
 Alpha  occ. eigenvalues --  -11.28209 -11.27985 -11.27939 -11.27739 -11.27579
 Alpha  occ. eigenvalues --  -11.27369 -11.27023 -11.26960  -1.60290  -1.60002
 Alpha  occ. eigenvalues --   -1.39840  -1.39555  -1.20022  -1.19565  -1.09381
 Alpha  occ. eigenvalues --   -1.08961  -1.05468  -1.04974  -0.96179  -0.95787
 Alpha  occ. eigenvalues --   -0.86852  -0.86385  -0.83028  -0.82617  -0.78052
 Alpha  occ. eigenvalues --   -0.77650  -0.72497  -0.72204  -0.71614  -0.71323
 Alpha  occ. eigenvalues --   -0.71107  -0.70690  -0.65678  -0.65559  -0.65225
 Alpha  occ. eigenvalues --   -0.64960  -0.62835  -0.62292  -0.55934  -0.55506
 Alpha  occ. eigenvalues --   -0.53814  -0.53588  -0.53288  -0.52993  -0.49269
 Alpha  occ. eigenvalues --   -0.49240  -0.48965  -0.48954  -0.45210  -0.44953
 Alpha  occ. eigenvalues --   -0.38004  -0.37567  -0.37092  -0.36519
 Alpha virt. eigenvalues --    0.04500   0.04896   0.10460   0.11067   0.15806
 Alpha virt. eigenvalues --    0.16386   0.19497   0.21915   0.25285   0.27598
 Alpha virt. eigenvalues --    0.28021   0.28530   0.29694   0.31554   0.32020

 Mulliken charges:
               1
     1  C   -0.171216
     2  C   -0.218659
     3  C   -0.171772
     4  C    0.159239
     5  C   -0.170141
     6  C   -0.217672
     7  H    0.224395
     8  H    0.217268
     9  H    0.274514
    10  H    0.276774
    11  H    0.224829
    12  N    0.488302
    13  O   -0.459133
    14  O   -0.461308
    15  C   -0.172506
    16  C   -0.226613
    17  C   -0.168245
    18  C    0.159172
    19  C   -0.167922
    20  C   -0.217996
    21  H    0.228192
    22  H    0.217330
    23  H    0.274707
    24  H    0.279508
    25  H    0.228017
    26  N    0.488355
    27  O   -0.457036
    28  O   -0.460384
 Sum of Mulliken charges =  -0.00000

 Dipole moment (field-independent basis, Debye):
    X=              0.6150    Y=              1.8303    Z=              6.4507  Tot=              6.7335
 Quadrupole moment (field-independent basis, Debye-Ang):
   XX=           -122.7062   YY=           -101.1324   ZZ=           -107.2580
   XY=            -26.9156   XZ=              8.0809   YZ=              0.1265

 Normal termination of Gaussian 16 at Thu May  6 14:33:35 2021.
