 Gaussian 16, Revision A.03,
 Gaussian 16:  EM64L-G16RevA.03 25-Dec-2016

 -------------
 #p 6-31g* mp2
 -------------

 ------------------------------------------------------
 Input file generated by CHIRIPA (05-May-2021 14:53:14)
 ------------------------------------------------------
 Symbolic Z-matrix:
 Charge =  0 Multiplicity = 1

                         Standard orientation:
 ---------------------------------------------------------------------
 Center     Atomic      Atomic             Coordinates (Angstroms)
 Number     Number       Type             X           Y           Z
 ---------------------------------------------------------------------
      1          6           0       -4.462992    0.262902    0.190760
      2          6           0       -5.055768    0.378338   -1.213973
      3          6           0       -6.218590    1.368561   -1.285374
      4          1           0       -5.251962   -0.044763    0.890627
      5          1           0       -4.122292    1.254319    0.520018
      6          1           0       -5.393990   -0.613253   -1.541034
      7          1           0       -4.265253    0.685579   -1.910611
      8          1           0       -5.891533    2.369148   -0.984608
      9          1           0       -7.026684    1.062936   -0.612931
     10          1           0       -6.627291    1.435468   -2.298462
     11          6           0       -3.299575   -0.723274    0.278200
     12          6           0       -2.706799   -0.838710    1.682934
     13          6           0       -1.543977   -1.828932    1.754335
     14          1           0       -3.640276   -1.714691   -0.051057
     15          1           0       -2.510606   -0.415608   -0.421667
     16          1           0       -3.497315   -1.145950    2.379572
     17          1           0       -2.368577    0.152882    2.009995
     18          1           0       -0.735884   -1.523308    1.081892
     19          1           0       -1.871034   -2.829519    1.453569
     20          1           0       -1.135277   -1.895840    2.767423
     21          6           0        2.999931   -2.208946   -0.994738
     22          6           0        4.200550   -1.491482   -0.978125
     23          6           0        4.230268   -0.167352   -0.530524
     24          6           0        3.035378    0.410771   -0.104730
     25          6           0        1.823346   -0.277886   -0.109305
     26          6           0        1.817245   -1.600931   -0.561038
     27          1           0        2.986017   -3.237140   -1.344049
     28          1           0        5.120570   -1.961116   -1.314357
     29          1           0        5.145786    0.411177   -0.507095
     30          1           0        0.922357    0.217223    0.232018
     31          1           0        0.883364   -2.155703   -0.572833
     32          7           0        3.054338    1.811993    0.371313
     33          8           0        1.988019    2.298564    0.741245
     34          8           0        4.135159    2.397168    0.365489
 ---------------------------------------------------------------------

 SCF Done:  E(RHF) =  -669.535043996     A.U. after   15 cycles
 E2 =    -0.2091812136D+01 EUMP2 =    -0.67162685613232D+03

 The electronic state is 1-A.
 Alpha  occ. eigenvalues --  -20.60761 -20.60756 -15.85814 -11.31169 -11.27736
 Alpha  occ. eigenvalues --  -11.27726 -11.27468 -11.26751 -11.26709 -11.22062
 Alpha  occ. eigenvalues --  -11.21844 -11.21834 -11.21790 -11.21612 -11.21173
 Alpha  occ. eigenvalues --   -1.59836  -1.39390  -1.19339  -1.08790  -1.08733
 Alpha  occ. eigenvalues --   -1.04750  -1.03903  -0.96379  -0.95573  -0.87400
 Alpha  occ. eigenvalues --   -0.86138  -0.82417  -0.79975  -0.78583  -0.77459
 Alpha  occ. eigenvalues --   -0.72034  -0.71158  -0.70456  -0.65432  -0.64992
 Alpha  occ. eigenvalues --   -0.64751  -0.62222  -0.61218  -0.59736  -0.57963
 Alpha  occ. eigenvalues --   -0.55702  -0.55217  -0.53119  -0.53027  -0.52930
 Alpha  occ. eigenvalues --   -0.52680  -0.50319  -0.48791  -0.48788  -0.48280
 Alpha  occ. eigenvalues --   -0.46992  -0.46132  -0.46024  -0.44798  -0.44140
 Alpha  occ. eigenvalues --   -0.37316  -0.36331
 Alpha virt. eigenvalues --    0.05062   0.11311   0.16511   0.19662   0.22716
 Alpha virt. eigenvalues --    0.23845   0.25660   0.26573   0.27406   0.28130
 Alpha virt. eigenvalues --    0.29355   0.30206   0.31348   0.31450   0.32425

 Mulliken charges:
               1
     1  C   -0.299118
     2  C   -0.300042
     3  C   -0.476146
     4  H    0.150670
     5  H    0.153759
     6  H    0.150884
     7  H    0.152501
     8  H    0.157365
     9  H    0.155326
    10  H    0.160737
    11  C   -0.298151
    12  C   -0.301730
    13  C   -0.480381
    14  H    0.148644
    15  H    0.144754
    16  H    0.155191
    17  H    0.158589
    18  H    0.145807
    19  H    0.154846
    20  H    0.166864
    21  C   -0.171099
    22  C   -0.218614
    23  C   -0.171050
    24  C    0.158495
    25  C   -0.172865
    26  C   -0.220198
    27  H    0.225754
    28  H    0.223393
    29  H    0.275492
    30  H    0.276254
    31  H    0.227011
    32  N    0.488491
    33  O   -0.461043
    34  O   -0.460388
 Sum of Mulliken charges =  -0.00000

 Dipole moment (field-independent basis, Debye):
    X=             -0.1960    Y=             -4.9002    Z=             -1.6077  Tot=              5.1609
 Quadrupole moment (field-independent basis, Debye-Ang):
   XX=            -90.0020   YY=            -99.3624   ZZ=            -94.8703
   XY=            -14.0602   XZ=             -6.6983   YZ=             -0.2178

 Normal termination of Gaussian 16 at Wed May  5 18:37:54 2021.
