 Gaussian 16, Revision A.03,
 Gaussian 16:  EM64L-G16RevA.03 25-Dec-2016

 -------------
 #p 6-31g* mp2
 -------------

 ------------------------------------------------------
 Input file generated by CHIRIPA (05-May-2021 14:53:14)
 ------------------------------------------------------
 Symbolic Z-matrix:
 Charge =  0 Multiplicity = 1

                         Standard orientation:
 ---------------------------------------------------------------------
 Center     Atomic      Atomic             Coordinates (Angstroms)
 Number     Number       Type             X           Y           Z
 ---------------------------------------------------------------------
      1          6           0       -3.208642   -0.547954   -0.390267
      2          6           0       -2.080936   -0.796265    0.612034
      3          6           0       -0.748762   -1.119656   -0.065110
      4          1           0       -3.325638   -1.434805   -1.028037
      5          1           0       -2.923624    0.279486   -1.054724
      6          1           0       -2.368583   -1.622080    1.275287
      7          1           0       -1.966739    0.091208    1.247618
      8          1           0       -0.435523   -0.294457   -0.712819
      9          1           0       -0.839650   -2.017479   -0.684993
     10          1           0        0.043366   -1.293578    0.669835
     11          6           0       -4.546744   -0.223421    0.271465
     12          6           0       -5.674449    0.024891   -0.730836
     13          6           0       -7.006623    0.348282   -0.053692
     14          1           0       -4.831762   -1.050860    0.935922
     15          1           0       -4.429747    0.663431    0.909235
     16          1           0       -5.788647   -0.862582   -1.366420
     17          1           0       -5.386802    0.850706   -1.394090
     18          1           0       -6.915735    1.246105    0.566191
     19          1           0       -7.319863   -0.476917    0.594017
     20          1           0       -7.798752    0.522203   -0.788637
     21          6           0        1.844393    2.508787    0.344145
     22          6           0        2.630554    2.283811   -0.790694
     23          6           0        3.291707    1.064525   -0.966092
     24          6           0        3.144014    0.087908    0.017623
     25          6           0        2.367882    0.281923    1.159230
     26          6           0        1.715792    1.508888    1.313775
     27          1           0        1.334314    3.458941    0.472299
     28          1           0        2.732236    3.058533   -1.545354
     29          1           0        3.906626    0.863766   -1.834994
     30          1           0        2.285587   -0.509468    1.894313
     31          1           0        1.105910    1.680820    2.196117
     32          7           0        3.839150   -1.206961   -0.157025
     33          8           0        3.692934   -2.051228    0.724151
     34          8           0        4.517049   -1.353093   -1.171783
 ---------------------------------------------------------------------

 SCF Done:  E(RHF) =  -669.534570391     A.U. after   15 cycles
 E2 =    -0.2092674677D+01 EUMP2 =    -0.67162724506804D+03

 The electronic state is 1-A.
 Alpha  occ. eigenvalues --  -20.60760 -20.60754 -15.85813 -11.31172 -11.27771
 Alpha  occ. eigenvalues --  -11.27763 -11.27527 -11.26783 -11.26764 -11.21847
 Alpha  occ. eigenvalues --  -11.21816 -11.21638 -11.21577 -11.21274 -11.21096
 Alpha  occ. eigenvalues --   -1.59833  -1.39387  -1.19372  -1.08761  -1.08652
 Alpha  occ. eigenvalues --   -1.04789  -1.03722  -0.96164  -0.95594  -0.87179
 Alpha  occ. eigenvalues --   -0.86177  -0.82430  -0.79795  -0.78471  -0.77474
 Alpha  occ. eigenvalues --   -0.72034  -0.71154  -0.70498  -0.65287  -0.65026
 Alpha  occ. eigenvalues --   -0.64788  -0.62151  -0.61129  -0.59557  -0.57788
 Alpha  occ. eigenvalues --   -0.55484  -0.55288  -0.53393  -0.52892  -0.52589
 Alpha  occ. eigenvalues --   -0.52504  -0.50056  -0.48792  -0.48787  -0.48109
 Alpha  occ. eigenvalues --   -0.46825  -0.46008  -0.45940  -0.44797  -0.43991
 Alpha  occ. eigenvalues --   -0.37344  -0.36295
 Alpha virt. eigenvalues --    0.05054   0.11196   0.16505   0.21018   0.22706
 Alpha virt. eigenvalues --    0.24096   0.26282   0.26699   0.27247   0.27926
 Alpha virt. eigenvalues --    0.28468   0.30097   0.31249   0.31511   0.31872

 Mulliken charges:
               1
     1  C   -0.298227
     2  C   -0.299553
     3  C   -0.475995
     4  H    0.152105
     5  H    0.148014
     6  H    0.153395
     7  H    0.144066
     8  H    0.155795
     9  H    0.158334
    10  H    0.159373
    11  C   -0.298027
    12  C   -0.299683
    13  C   -0.475712
    14  H    0.150558
    15  H    0.147139
    16  H    0.153255
    17  H    0.151058
    18  H    0.154212
    19  H    0.155901
    20  H    0.160816
    21  C   -0.171597
    22  C   -0.219008
    23  C   -0.171157
    24  C    0.160949
    25  C   -0.170045
    26  C   -0.216013
    27  H    0.225482
    28  H    0.223381
    29  H    0.275724
    30  H    0.275048
    31  H    0.223464
    32  N    0.488407
    33  O   -0.461069
    34  O   -0.460390
 Sum of Mulliken charges =  -0.00000

 Dipole moment (field-independent basis, Debye):
    X=             -2.4309    Y=              4.5293    Z=              0.5762  Tot=              5.1726
 Quadrupole moment (field-independent basis, Debye-Ang):
   XX=           -111.2036   YY=            -93.0464   ZZ=            -91.3337
   XY=             15.5346   XZ=              0.4118   YZ=             -1.5534

 Normal termination of Gaussian 16 at Thu May  6 18:46:12 2021.
