 Gaussian 16, Revision A.03,
 Gaussian 16:  EM64L-G16RevA.03 25-Dec-2016

 -------------
 #p 6-31g* mp2
 -------------

 ------------------------------------------------------
 Input file generated by CHIRIPA (05-May-2021 14:57:25)
 ------------------------------------------------------
 Symbolic Z-matrix:
 Charge =  0 Multiplicity = 1

                         Standard orientation:
 ---------------------------------------------------------------------
 Center     Atomic      Atomic             Coordinates (Angstroms)
 Number     Number       Type             X           Y           Z
 ---------------------------------------------------------------------
      1          6           0       -5.493478    0.728751   -0.439462
      2          6           0       -4.554242    0.478302   -1.445262
      3          6           0       -3.271653    0.025387   -1.122182
      4          6           0       -2.960759   -0.167217    0.223009
      5          6           0       -3.874578    0.073430    1.247858
      6          6           0       -5.151251    0.525873    0.901524
      7          1           0       -6.487526    1.080404   -0.699471
      8          1           0       -4.817238    0.634979   -2.487534
      9          1           0       -2.525147   -0.176339   -1.880768
     10          1           0       -3.583100   -0.092039    2.277945
     11          1           0       -5.878642    0.719554    1.684745
     12          7           0       -1.606071   -0.646449    0.577348
     13          8           0       -1.356919   -0.808294    1.769979
     14          8           0       -0.819069   -0.851151   -0.344260
     15          6           0        3.628024    2.545339    0.197917
     16          6           0        2.798412    2.130955   -0.849245
     17          6           0        2.545400    0.772158   -1.059495
     18          6           0        3.141105   -0.149310   -0.199657
     19          6           0        3.972263    0.232236    0.852430
     20          6           0        4.211274    1.596330    1.043920
     21          1           0        3.819133    3.602943    0.353958
     22          1           0        2.344102    2.865743   -1.507831
     23          1           0        1.907194    0.423725   -1.862432
     24          1           0        4.410913   -0.523678    1.492428
     25          1           0        4.855988    1.915250    1.857972
     26          7           0        2.880663   -1.590611   -0.412310
     27          8           0        3.417492   -2.382635    0.359150
     28          8           0        2.144632   -1.900987   -1.346420
 ---------------------------------------------------------------------

 SCF Done:  E(RHF) =  -868.337057659     A.U. after   16 cycles
 E2 =    -0.2600562197D+01 EUMP2 =    -0.87093761985609D+03

 The electronic state is 1-A.
 Alpha  occ. eigenvalues --  -20.60586 -20.60554 -20.59377 -20.59283 -15.85610
 Alpha  occ. eigenvalues --  -15.84387 -11.31101 -11.29989 -11.27684 -11.27681
 Alpha  occ. eigenvalues --  -11.27450 -11.26729 -11.26719 -11.26644 -11.26599
 Alpha  occ. eigenvalues --  -11.26497 -11.25745 -11.25735  -1.59644  -1.58373
 Alpha  occ. eigenvalues --   -1.39193  -1.37927  -1.19286  -1.18212  -1.08660
 Alpha  occ. eigenvalues --   -1.07574  -1.04706  -1.03678  -0.95472  -0.94369
 Alpha  occ. eigenvalues --   -0.86098  -0.85064  -0.82300  -0.81220  -0.77334
 Alpha  occ. eigenvalues --   -0.76199  -0.71842  -0.70971  -0.70634  -0.70392
 Alpha  occ. eigenvalues --   -0.69632  -0.69368  -0.64934  -0.64710  -0.63887
 Alpha  occ. eigenvalues --   -0.63721  -0.62052  -0.61030  -0.55205  -0.54221
 Alpha  occ. eigenvalues --   -0.53032  -0.52800  -0.51969  -0.51801  -0.48617
 Alpha  occ. eigenvalues --   -0.48591  -0.47414  -0.47349  -0.44568  -0.43248
 Alpha  occ. eigenvalues --   -0.37276  -0.36318  -0.36212  -0.35279
 Alpha virt. eigenvalues --    0.05195   0.06388   0.11335   0.12373   0.16671
 Alpha virt. eigenvalues --    0.17791   0.21449   0.22327   0.27347   0.28082
 Alpha virt. eigenvalues --    0.28405   0.29283   0.30975   0.31790   0.32577

 Mulliken charges:
               1
     1  C   -0.171230
     2  C   -0.218657
     3  C   -0.171746
     4  C    0.158560
     5  C   -0.171148
     6  C   -0.218587
     7  H    0.225067
     8  H    0.222912
     9  H    0.275868
    10  H    0.275678
    11  H    0.223033
    12  N    0.488723
    13  O   -0.460926
    14  O   -0.457204
    15  C   -0.171728
    16  C   -0.220835
    17  C   -0.162297
    18  C    0.164127
    19  C   -0.169807
    20  C   -0.219073
    21  H    0.220341
    22  H    0.217109
    23  H    0.276291
    24  H    0.273936
    25  H    0.219262
    26  N    0.491726
    27  O   -0.466301
    28  O   -0.453093
 Sum of Mulliken charges =  -0.00000

 Dipole moment (field-independent basis, Debye):
    X=             -4.0491    Y=              6.5176    Z=             -0.5568  Tot=              7.6932
 Quadrupole moment (field-independent basis, Debye-Ang):
   XX=            -71.1811   YY=           -108.6783   ZZ=            -98.3443
   XY=             10.4120   XZ=              6.0903   YZ=             -1.3178

 Normal termination of Gaussian 16 at Wed May  5 19:32:45 2021.
