 Gaussian 16, Revision A.03,
 Gaussian 16:  EM64L-G16RevA.03 25-Dec-2016

 -------------
 #p 6-31g* mp2
 -------------

 ------------------------------------------------------
 Input file generated by CHIRIPA (05-May-2021 14:51:08)
 ------------------------------------------------------
 Symbolic Z-matrix:
 Charge =  0 Multiplicity = 1

                         Standard orientation:
 ---------------------------------------------------------------------
 Center     Atomic      Atomic             Coordinates (Angstroms)
 Number     Number       Type             X           Y           Z
 ---------------------------------------------------------------------
      1          6           0       -2.568281   -0.464519    0.183300
      2          6           0       -3.176211   -1.622638   -0.608637
      3          6           0       -2.631046   -2.984389   -0.177101
      4          1           0       -1.476464   -0.479092    0.062191
      5          1           0       -2.766147   -0.617389    1.253289
      6          1           0       -2.978454   -1.466917   -1.676934
      7          1           0       -4.266724   -1.605191   -0.485784
      8          1           0       -2.841498   -3.165594    0.881896
      9          1           0       -1.545908   -3.026533   -0.316022
     10          1           0       -3.079048   -3.797987   -0.756077
     11          6           0       -3.103365    0.903355   -0.236621
     12          6           0       -2.495435    2.061475    0.555316
     13          6           0       -3.040599    3.423226    0.123780
     14          1           0       -2.905499    1.056226   -1.306610
     15          1           0       -4.195182    0.917929   -0.115512
     16          1           0       -1.404922    2.044028    0.432463
     17          1           0       -2.693192    1.905753    1.623613
     18          1           0       -4.125738    3.465370    0.262701
     19          1           0       -2.830148    3.604430   -0.935217
     20          1           0       -2.592598    4.236824    0.702756
     21          6           0        2.407344   -0.753121    0.365776
     22          6           0        2.648270   -2.161046   -0.179830
     23          6           0        1.783784   -3.217745    0.508533
     24          1           0        2.607793   -0.746076    1.445921
     25          1           0        1.345960   -0.496560    0.243158
     26          1           0        3.709161   -2.414338   -0.057481
     27          1           0        2.447410   -2.164695   -1.258838
     28          1           0        0.720759   -2.992280    0.375315
     29          1           0        1.989680   -3.243341    1.583499
     30          1           0        1.972096   -4.216777    0.103154
     31          6           0        3.264302    0.314285   -0.312455
     32          6           0        3.023376    1.722210    0.233151
     33          6           0        3.887862    2.778908   -0.455212
     34          1           0        4.325686    0.057723   -0.189837
     35          1           0        3.063853    0.307239   -1.392601
     36          1           0        3.224236    1.725859    1.312159
     37          1           0        1.962484    1.975502    0.110801
     38          1           0        3.681966    2.804504   -1.530178
     39          1           0        4.950886    2.553443   -0.321995
     40          1           0        3.699550    3.777941   -0.049833
 ---------------------------------------------------------------------

 SCF Done:  E(RHF) =  -470.733340530     A.U. after   11 cycles
 E2 =    -0.1583475225D+01 EUMP2 =    -0.47231681575467D+03

 The electronic state is 1-A.
 Alpha  occ. eigenvalues --  -11.21636 -11.21636 -11.21635 -11.21621 -11.21449
 Alpha  occ. eigenvalues --  -11.21437 -11.21389 -11.21378 -11.21094 -11.21093
 Alpha  occ. eigenvalues --  -11.21083 -11.21054  -1.08476  -1.08452  -1.03574
 Alpha  occ. eigenvalues --   -1.03538  -0.96035  -0.95976  -0.87065  -0.86978
 Alpha  occ. eigenvalues --   -0.79675  -0.79563  -0.78341  -0.78211  -0.65201
 Alpha  occ. eigenvalues --   -0.64996  -0.61094  -0.60833  -0.59397  -0.59343
 Alpha  occ. eigenvalues --   -0.57706  -0.57541  -0.55494  -0.55117  -0.52707
 Alpha  occ. eigenvalues --   -0.52685  -0.52560  -0.52296  -0.50150  -0.49728
 Alpha  occ. eigenvalues --   -0.48094  -0.47804  -0.46832  -0.46462  -0.46143
 Alpha  occ. eigenvalues --   -0.45784  -0.45774  -0.45352  -0.43818  -0.43805
 Alpha virt. eigenvalues --    0.19614   0.22493   0.23526   0.24536   0.25133
 Alpha virt. eigenvalues --    0.26436   0.27041   0.27073   0.28697   0.29225
 Alpha virt. eigenvalues --    0.30630   0.31441   0.31670   0.31779   0.31863

 Mulliken charges:
               1
     1  C   -0.303144
     2  C   -0.299347
     3  C   -0.482606
     4  H    0.152876
     5  H    0.150173
     6  H    0.151676
     7  H    0.152289
     8  H    0.155699
     9  H    0.161599
    10  H    0.160725
    11  C   -0.298177
    12  C   -0.300522
    13  C   -0.475732
    14  H    0.149355
    15  H    0.150079
    16  H    0.152073
    17  H    0.152377
    18  H    0.155320
    19  H    0.155126
    20  H    0.160495
    21  C   -0.302968
    22  C   -0.299217
    23  C   -0.483352
    24  H    0.150250
    25  H    0.152847
    26  H    0.152201
    27  H    0.151462
    28  H    0.162065
    29  H    0.155654
    30  H    0.160456
    31  C   -0.298170
    32  C   -0.300417
    33  C   -0.475718
    34  H    0.149890
    35  H    0.149445
    36  H    0.152344
    37  H    0.151968
    38  H    0.155135
    39  H    0.155342
    40  H    0.160448
 Sum of Mulliken charges =  -0.00000

 Dipole moment (field-independent basis, Debye):
    X=             -0.0090    Y=             -0.0055    Z=              0.0165  Tot=              0.0196
 Quadrupole moment (field-independent basis, Debye-Ang):
   XX=            -83.9673   YY=            -86.6085   ZZ=            -83.9948
   XY=             -0.1990   XZ=              0.1594   YZ=              0.3984

 Normal termination of Gaussian 16 at Wed May  5 16:35:53 2021.
