 Gaussian 16, Revision A.03,
 Gaussian 16:  EM64L-G16RevA.03 25-Dec-2016

 -------------
 #p 6-31g* mp2
 -------------

 ------------------------------------------------------
 Input file generated by CHIRIPA (05-May-2021 14:51:09)
 ------------------------------------------------------
 Symbolic Z-matrix:
 Charge =  0 Multiplicity = 1

                         Standard orientation:
 ---------------------------------------------------------------------
 Center     Atomic      Atomic             Coordinates (Angstroms)
 Number     Number       Type             X           Y           Z
 ---------------------------------------------------------------------
      1          6           0       -3.119525    0.996730    0.288328
      2          6           0       -2.269497    2.000916   -0.490805
      3          6           0       -1.634860    3.061874    0.408862
      4          1           0       -3.906562    1.536516    0.832524
      5          1           0       -2.493357    0.508065    1.047613
      6          1           0       -2.896748    2.486544   -1.249314
      7          1           0       -1.484510    1.458659   -1.033362
      8          1           0       -0.986379    2.594688    1.157066
      9          1           0       -2.406641    3.628413    0.939887
     10          1           0       -1.031643    3.769320   -0.168641
     11          6           0       -3.760644   -0.070189   -0.597323
     12          6           0       -4.610673   -1.074375    0.181809
     13          6           0       -5.245309   -2.135333   -0.717857
     14          1           0       -4.386813    0.418476   -1.356609
     15          1           0       -2.973608   -0.609975   -1.141520
     16          1           0       -5.395659   -0.532118    0.724367
     17          1           0       -3.983421   -1.560003    0.940319
     18          1           0       -4.473528   -2.701872   -1.248883
     19          1           0       -5.893791   -1.668147   -1.466062
     20          1           0       -5.848526   -2.842779   -0.140355
     21          6           0        3.971149    0.009565   -0.124479
     22          6           0        5.350723   -0.636912   -0.254213
     23          6           0        6.402450    0.321545   -0.813700
     24          1           0        3.649926    0.374065   -1.109822
     25          1           0        4.047158    0.892102    0.525710
     26          1           0        5.271865   -1.518766   -0.902850
     27          1           0        5.668616   -1.000086    0.731518
     28          1           0        6.510450    1.196509   -0.164565
     29          1           0        6.111445    0.674881   -1.808220
     30          1           0        7.381093   -0.161152   -0.898082
     31          6           0        2.909019   -0.936107    0.433475
     32          6           0        1.529447   -0.289629    0.563209
     33          6           0        0.477719   -1.248086    1.122695
     34          1           0        2.833012   -1.818644   -0.216714
     35          1           0        3.230243   -1.300606    1.418818
     36          1           0        1.211554    0.073545   -0.422522
     37          1           0        1.608305    0.592225    1.211846
     38          1           0        0.768724   -1.601422    2.117215
     39          1           0        0.369719   -2.123049    0.473561
     40          1           0       -0.500924   -0.765389    1.207078
 ---------------------------------------------------------------------

 SCF Done:  E(RHF) =  -470.733323771     A.U. after   11 cycles
 E2 =    -0.1583284926D+01 EUMP2 =    -0.47231660869723D+03

 The electronic state is 1-A.
 Alpha  occ. eigenvalues --  -11.21670 -11.21623 -11.21592 -11.21583 -11.21444
 Alpha  occ. eigenvalues --  -11.21397 -11.21382 -11.21337 -11.21137 -11.21086
 Alpha  occ. eigenvalues --  -11.21055 -11.21052  -1.08477  -1.08418  -1.03583
 Alpha  occ. eigenvalues --   -1.03506  -0.96029  -0.95962  -0.87053  -0.86972
 Alpha  occ. eigenvalues --   -0.79644  -0.79571  -0.78284  -0.78237  -0.65130
 Alpha  occ. eigenvalues --   -0.65067  -0.60980  -0.60932  -0.59383  -0.59321
 Alpha  occ. eigenvalues --   -0.57644  -0.57556  -0.55319  -0.55257  -0.52746
 Alpha  occ. eigenvalues --   -0.52656  -0.52472  -0.52355  -0.49974  -0.49894
 Alpha  occ. eigenvalues --   -0.47963  -0.47894  -0.46731  -0.46549  -0.45850
 Alpha  occ. eigenvalues --   -0.45768  -0.45755  -0.45657  -0.43796  -0.43763
 Alpha virt. eigenvalues --    0.19646   0.23075   0.23756   0.25204   0.25716
 Alpha virt. eigenvalues --    0.26143   0.26779   0.27550   0.28102   0.29085
 Alpha virt. eigenvalues --    0.30672   0.30763   0.31681   0.31840   0.32219

 Mulliken charges:
               1
     1  C   -0.303782
     2  C   -0.301093
     3  C   -0.476459
     4  H    0.150176
     5  H    0.153756
     6  H    0.151974
     7  H    0.153523
     8  H    0.156209
     9  H    0.154947
    10  H    0.160308
    11  C   -0.298569
    12  C   -0.299873
    13  C   -0.475688
    14  H    0.149561
    15  H    0.150120
    16  H    0.151867
    17  H    0.152334
    18  H    0.155242
    19  H    0.155046
    20  H    0.160266
    21  C   -0.298323
    22  C   -0.299691
    23  C   -0.475736
    24  H    0.149720
    25  H    0.149766
    26  H    0.151941
    27  H    0.151995
    28  H    0.155277
    29  H    0.155227
    30  H    0.160327
    31  C   -0.298575
    32  C   -0.300501
    33  C   -0.483778
    34  H    0.149613
    35  H    0.149875
    36  H    0.152803
    37  H    0.152534
    38  H    0.155710
    39  H    0.155264
    40  H    0.166686
 Sum of Mulliken charges =  -0.00000

 Dipole moment (field-independent basis, Debye):
    X=              0.0163    Y=             -0.0001    Z=              0.0006  Tot=              0.0163
 Quadrupole moment (field-independent basis, Debye-Ang):
   XX=            -85.0645   YY=            -85.3766   ZZ=            -84.2698
   XY=             -1.3491   XZ=              0.3999   YZ=              0.0085

 Normal termination of Gaussian 16 at Wed May  5 21:19:55 2021.
