 Gaussian 16, Revision A.03,
 Gaussian 16:  EM64L-G16RevA.03 25-Dec-2016

 -------------
 #p 6-31g* mp2
 -------------

 ------------------------------------------------------
 Input file generated by CHIRIPA (05-May-2021 14:51:07)
 ------------------------------------------------------
 Symbolic Z-matrix:
 Charge =  0 Multiplicity = 1

                         Standard orientation:
 ---------------------------------------------------------------------
 Center     Atomic      Atomic             Coordinates (Angstroms)
 Number     Number       Type             X           Y           Z
 ---------------------------------------------------------------------
      1          6           0        1.429382   -1.331428   -0.081205
      2          6           0        1.155229   -2.782903    0.313821
      3          6           0       -0.321469   -3.160007    0.191554
      4          1           0        0.825929   -0.665796    0.551032
      5          1           0        1.093211   -1.170296   -1.114849
      6          1           0        1.493083   -2.941613    1.345946
      7          1           0        1.759549   -3.445149   -0.319301
      8          1           0       -0.668294   -3.029808   -0.838670
      9          1           0       -0.936274   -2.523411    0.836039
     10          1           0       -0.494898   -4.201768    0.478809
     11          6           0        2.901238   -0.939403    0.035776
     12          6           0        3.175390    0.512072   -0.359250
     13          6           0        4.652088    0.889176   -0.236983
     14          1           0        3.237408   -1.100535    1.069421
     15          1           0        3.504691   -1.605035   -0.596461
     16          1           0        2.571070    1.174318    0.273872
     17          1           0        2.837537    0.670783   -1.391375
     18          1           0        5.266894    0.252580   -0.881468
     19          1           0        4.998913    0.758977    0.793241
     20          1           0        4.825518    1.930938   -0.524238
     21          6           0       -1.768555    1.723566   -0.260298
     22          6           0       -0.740131    2.288932    0.719850
     23          6           0        0.045635    3.465031    0.139197
     24          1           0       -1.254975    1.405871   -1.178041
     25          1           0       -2.464433    2.522330   -0.552060
     26          1           0       -0.047234    1.489001    1.010745
     27          1           0       -1.256195    2.605142    1.635441
     28          1           0       -0.629808    4.282060   -0.134379
     29          1           0        0.586022    3.159577   -0.762624
     30          1           0        0.775149    3.853720    0.856544
     31          6           0       -2.562066    0.547265    0.305727
     32          6           0       -3.590488   -0.018102   -0.674421
     33          6           0       -4.376253   -1.194200   -0.093768
     34          1           0       -1.866186   -0.251498    0.597489
     35          1           0       -3.075645    0.864960    1.223469
     36          1           0       -3.074425   -0.334311   -1.590012
     37          1           0       -4.283386    0.781830   -0.965316
     38          1           0       -4.916642   -0.888746    0.808053
     39          1           0       -3.700812   -2.011229    0.179807
     40          1           0       -5.105769   -1.582889   -0.811115
 ---------------------------------------------------------------------

 SCF Done:  E(RHF) =  -470.732416719     A.U. after   11 cycles
 E2 =    -0.1585699343D+01 EUMP2 =    -0.47231811606225D+03

 The electronic state is 1-A.
 Alpha  occ. eigenvalues --  -11.21692 -11.21640 -11.21558 -11.21536 -11.21481
 Alpha  occ. eigenvalues --  -11.21418 -11.21337 -11.21272 -11.21170 -11.21099
 Alpha  occ. eigenvalues --  -11.21034 -11.20988  -1.08534  -1.08354  -1.03613
 Alpha  occ. eigenvalues --   -1.03468  -0.96057  -0.95922  -0.87077  -0.86937
 Alpha  occ. eigenvalues --   -0.79679  -0.79546  -0.78443  -0.78101  -0.65345
 Alpha  occ. eigenvalues --   -0.64828  -0.61085  -0.60833  -0.59425  -0.59289
 Alpha  occ. eigenvalues --   -0.57664  -0.57538  -0.55355  -0.55206  -0.52743
 Alpha  occ. eigenvalues --   -0.52623  -0.52486  -0.52351  -0.50050  -0.49827
 Alpha  occ. eigenvalues --   -0.48085  -0.47808  -0.46822  -0.46685  -0.46257
 Alpha  occ. eigenvalues --   -0.45848  -0.45650  -0.44898  -0.43852  -0.43725
 Alpha virt. eigenvalues --    0.20178   0.21650   0.23733   0.24360   0.25138
 Alpha virt. eigenvalues --    0.25909   0.26970   0.27992   0.28270   0.30015
 Alpha virt. eigenvalues --    0.30429   0.31383   0.31788   0.31958   0.32603

 Mulliken charges:
               1
     1  C   -0.307290
     2  C   -0.299535
     3  C   -0.481335
     4  H    0.157953
     5  H    0.149142
     6  H    0.152205
     7  H    0.152476
     8  H    0.155552
     9  H    0.159918
    10  H    0.161206
    11  C   -0.297919
    12  C   -0.304972
    13  C   -0.475683
    14  H    0.149507
    15  H    0.150012
    16  H    0.158221
    17  H    0.151340
    18  H    0.155221
    19  H    0.155211
    20  H    0.160747
    21  C   -0.297414
    22  C   -0.307231
    23  C   -0.476289
    24  H    0.150338
    25  H    0.149371
    26  H    0.157527
    27  H    0.151608
    28  H    0.155025
    29  H    0.157172
    30  H    0.159300
    31  C   -0.306703
    32  C   -0.298611
    33  C   -0.478876
    34  H    0.157389
    35  H    0.148848
    36  H    0.151616
    37  H    0.151580
    38  H    0.154561
    39  H    0.158927
    40  H    0.159886
 Sum of Mulliken charges =  -0.00000

 Dipole moment (field-independent basis, Debye):
    X=              0.0474    Y=             -0.0349    Z=              0.0023  Tot=              0.0589
 Quadrupole moment (field-independent basis, Debye-Ang):
   XX=            -85.8494   YY=            -85.2006   ZZ=            -83.7894
   XY=             -1.4401   XZ=             -0.2434   YZ=              0.6949

 Normal termination of Gaussian 16 at Wed May  5 15:02:51 2021.
