 Gaussian 16, Revision A.03,
 Gaussian 16:  EM64L-G16RevA.03 25-Dec-2016

 -------------
 #p 6-31g* mp2
 -------------

 ------------------------------------------------------
 Input file generated by CHIRIPA (05-May-2021 14:51:13)
 ------------------------------------------------------
 Symbolic Z-matrix:
 Charge =  0 Multiplicity = 1

                         Standard orientation:
 ---------------------------------------------------------------------
 Center     Atomic      Atomic             Coordinates (Angstroms)
 Number     Number       Type             X           Y           Z
 ---------------------------------------------------------------------
      1          6           0       -2.905161   -0.173893   -0.073165
      2          6           0       -1.936544   -0.430498    1.081790
      3          6           0       -0.481646   -0.529725    0.622204
      4          1           0       -2.806771   -0.980949   -0.812032
      5          1           0       -2.617071    0.754974   -0.584639
      6          1           0       -2.227206   -1.357877    1.591791
      7          1           0       -2.037389    0.377162    1.818085
      8          1           0       -0.168423    0.397688    0.131900
      9          1           0       -0.359319   -1.347209   -0.095680
     10          1           0        0.193576   -0.713357    1.463758
     11          6           0       -4.363458   -0.072206    0.370409
     12          6           0       -5.332074    0.184400   -0.784545
     13          6           0       -6.786972    0.283627   -0.324959
     14          1           0       -4.651548   -1.001072    0.881884
     15          1           0       -4.461848    0.734851    1.109276
     16          1           0       -5.231230   -0.623260   -1.520841
     17          1           0       -5.041412    1.111778   -1.294546
     18          1           0       -6.909300    1.101111    0.392925
     19          1           0       -7.100196   -0.643786    0.165344
     20          1           0       -7.462195    0.467259   -1.166513
     21          6           0        3.373712   -0.546839   -0.407024
     22          6           0        4.158930   -1.747633    0.121663
     23          6           0        3.625646   -3.080630   -0.404191
     24          1           0        2.316784   -0.656290   -0.127976
     25          1           0        3.408904   -0.549306   -1.505273
     26          1           0        4.123427   -1.742124    1.218625
     27          1           0        5.214145   -1.635215   -0.158511
     28          1           0        3.676476   -3.111591   -1.497377
     29          1           0        2.579560   -3.219107   -0.112417
     30          1           0        4.201459   -3.925518   -0.013726
     31          6           0        3.894906    0.792937    0.109780
     32          6           0        3.109689    1.993732   -0.418907
     33          6           0        3.642974    3.326728    0.106946
     34          1           0        3.859714    0.795405    1.208029
     35          1           0        4.951834    0.902388   -0.169269
     36          1           0        2.054473    1.881313   -0.138733
     37          1           0        3.145191    1.988222   -1.515869
     38          1           0        4.689058    3.465205   -0.184828
     39          1           0        3.592144    3.357689    1.200133
     40          1           0        3.067160    4.171616   -0.283519
 ---------------------------------------------------------------------

 SCF Done:  E(RHF) =  -470.733037633     A.U. after   11 cycles
 E2 =    -0.1583286685D+01 EUMP2 =    -0.47231632431782D+03

 The electronic state is 1-A.
 Alpha  occ. eigenvalues --  -11.21672 -11.21627 -11.21544 -11.21509 -11.21449
 Alpha  occ. eigenvalues --  -11.21388 -11.21296 -11.21193 -11.21173 -11.21091
 Alpha  occ. eigenvalues --  -11.21037 -11.21007  -1.08482  -1.08332  -1.03591
 Alpha  occ. eigenvalues --   -1.03458  -0.96058  -0.95896  -0.87084  -0.86915
 Alpha  occ. eigenvalues --   -0.79684  -0.79519  -0.78314  -0.78102  -0.65115
 Alpha  occ. eigenvalues --   -0.64968  -0.61025  -0.60828  -0.59419  -0.59270
 Alpha  occ. eigenvalues --   -0.57654  -0.57514  -0.55335  -0.55200  -0.52796
 Alpha  occ. eigenvalues --   -0.52615  -0.52474  -0.52304  -0.50010  -0.49834
 Alpha  occ. eigenvalues --   -0.48003  -0.47842  -0.46750  -0.46485  -0.45963
 Alpha  occ. eigenvalues --   -0.45753  -0.45656  -0.45436  -0.43792  -0.43692
 Alpha virt. eigenvalues --    0.21329   0.22971   0.23883   0.24307   0.25424
 Alpha virt. eigenvalues --    0.26540   0.27042   0.27569   0.27897   0.29380
 Alpha virt. eigenvalues --    0.29664   0.31340   0.31785   0.32073   0.32229

 Mulliken charges:
               1
     1  C   -0.298629
     2  C   -0.300680
     3  C   -0.481341
     4  H    0.149948
     5  H    0.149767
     6  H    0.152238
     7  H    0.152162
     8  H    0.159449
     9  H    0.156484
    10  H    0.159775
    11  C   -0.298394
    12  C   -0.299672
    13  C   -0.475739
    14  H    0.149627
    15  H    0.149716
    16  H    0.152052
    17  H    0.152024
    18  H    0.155212
    19  H    0.155225
    20  H    0.160374
    21  C   -0.311014
    22  C   -0.298771
    23  C   -0.476067
    24  H    0.167184
    25  H    0.148245
    26  H    0.151059
    27  H    0.151392
    28  H    0.154921
    29  H    0.155245
    30  H    0.159815
    31  C   -0.297161
    32  C   -0.303691
    33  C   -0.475477
    34  H    0.148693
    35  H    0.149147
    36  H    0.155229
    37  H    0.151695
    38  H    0.155210
    39  H    0.155020
    40  H    0.159725
 Sum of Mulliken charges =  -0.00000

 Dipole moment (field-independent basis, Debye):
    X=             -0.0723    Y=             -0.0050    Z=             -0.0001  Tot=              0.0725
 Quadrupole moment (field-independent basis, Debye-Ang):
   XX=            -85.8973   YY=            -84.9490   ZZ=            -84.2763
   XY=             -0.0034   XZ=             -0.3611   YZ=             -0.2337

 Normal termination of Gaussian 16 at Thu May  6 02:21:20 2021.
