 Gaussian 16, Revision A.03,
 Gaussian 16:  EM64L-G16RevA.03 25-Dec-2016

 -------------
 #p 6-31g* mp2
 -------------

 ------------------------------------------------------
 Input file generated by CHIRIPA (05-May-2021 14:57:22)
 ------------------------------------------------------
 Symbolic Z-matrix:
 Charge =  0 Multiplicity = 1

                         Standard orientation:
 ---------------------------------------------------------------------
 Center     Atomic      Atomic             Coordinates (Angstroms)
 Number     Number       Type             X           Y           Z
 ---------------------------------------------------------------------
      1          6           0        2.091713    1.473522   -1.294386
      2          6           0        2.021160    0.077661   -1.238592
      3          6           0        2.969268   -0.652866   -0.516116
      4          6           0        3.979009    0.047927    0.141609
      5          6           0        4.076136    1.438075    0.104950
      6          6           0        3.117168    2.148085   -0.623619
      7          1           0        1.350982    2.033044   -1.857989
      8          1           0        1.225883   -0.448869   -1.758539
      9          1           0        2.938325   -1.734010   -0.456219
     10          1           0        4.880550    1.934967    0.633566
     11          1           0        3.174442    3.232076   -0.665199
     12          7           0        4.988477   -0.714589    0.909687
     13          8           0        5.868232   -0.073568    1.480442
     14          8           0        4.880829   -1.938831    0.926408
     15          6           0       -5.445269    0.991974    1.515298
     16          6           0       -5.427809   -0.404841    1.443705
     17          6           0       -4.527507   -1.061304    0.599276
     18          6           0       -3.654799   -0.286282   -0.162965
     19          6           0       -3.647885    1.106849   -0.113673
     20          6           0       -4.556817    1.742038    0.737752
     21          1           0       -6.147998    1.493667    2.173989
     22          1           0       -6.116637   -0.989914    2.046407
     23          1           0       -4.492539   -2.141392    0.524405
     24          1           0       -2.949064    1.663069   -0.726606
     25          1           0       -4.568128    2.826956    0.791314
     26          7           0       -2.697122   -0.969989   -1.060628
     27          8           0       -1.938533   -0.264390   -1.721922
     28          8           0       -2.723217   -2.198532   -1.085924
 ---------------------------------------------------------------------

 SCF Done:  E(RHF) =  -868.340086394     A.U. after   16 cycles
 E2 =    -0.2598396482D+01 EUMP2 =    -0.87093848287630D+03

 The electronic state is 1-A.
 Alpha  occ. eigenvalues --  -20.61723 -20.61676 -20.60193 -20.60181 -15.86727
 Alpha  occ. eigenvalues --  -15.85233 -11.31841 -11.30457 -11.28412 -11.28352
 Alpha  occ. eigenvalues --  -11.28064 -11.27348 -11.27311 -11.27041 -11.26898
 Alpha  occ. eigenvalues --  -11.26651 -11.26061 -11.25738  -1.60758  -1.59268
 Alpha  occ. eigenvalues --   -1.40321  -1.38825  -1.19987  -1.18591  -1.09426
 Alpha  occ. eigenvalues --   -1.08006  -1.05355  -1.03950  -0.96305  -0.94874
 Alpha  occ. eigenvalues --   -0.86764  -0.85343  -0.83151  -0.81698  -0.78228
 Alpha  occ. eigenvalues --   -0.76769  -0.72965  -0.72055  -0.71454  -0.71093
 Alpha  occ. eigenvalues --   -0.70590  -0.69690  -0.65646  -0.65355  -0.64226
 Alpha  occ. eigenvalues --   -0.63898  -0.62710  -0.61275  -0.55858  -0.54444
 Alpha  occ. eigenvalues --   -0.53691  -0.53445  -0.52321  -0.52002  -0.49728
 Alpha  occ. eigenvalues --   -0.49683  -0.48220  -0.48196  -0.45775  -0.44262
 Alpha  occ. eigenvalues --   -0.37944  -0.36944  -0.36573  -0.35558
 Alpha virt. eigenvalues --    0.04280   0.05722   0.10715   0.12093   0.15819
 Alpha virt. eigenvalues --    0.17267   0.20837   0.22349   0.26763   0.27610
 Alpha virt. eigenvalues --    0.28417   0.29070   0.30530   0.31798   0.32171

 Mulliken charges:
               1
     1  C   -0.173504
     2  C   -0.224366
     3  C   -0.173720
     4  C    0.158222
     5  C   -0.173345
     6  C   -0.219266
     7  H    0.226009
     8  H    0.246364
     9  H    0.276183
    10  H    0.272260
    11  H    0.218901
    12  N    0.488016
    13  O   -0.463401
    14  O   -0.460913
    15  C   -0.169707
    16  C   -0.218307
    17  C   -0.169985
    18  C    0.158480
    19  C   -0.169846
    20  C   -0.218179
    21  H    0.227967
    22  H    0.226009
    23  H    0.277198
    24  H    0.271587
    25  H    0.224389
    26  N    0.489931
    27  O   -0.471152
    28  O   -0.455827
 Sum of Mulliken charges =  -0.00000

 Dipole moment (field-independent basis, Debye):
    X=             -7.4289    Y=              4.9494    Z=              0.4497  Tot=              8.9380
 Quadrupole moment (field-independent basis, Debye-Ang):
   XX=           -108.1109   YY=            -98.6596   ZZ=           -107.2223
   XY=              6.4487   XZ=            -23.1687   YZ=             -1.1525

 Normal termination of Gaussian 16 at Thu May  6 06:32:06 2021.
