 Gaussian 16, Revision A.03,
 Gaussian 16:  EM64L-G16RevA.03 25-Dec-2016

 -------------
 #p 6-31g* mp2
 -------------

 ------------------------------------------------------
 Input file generated by CHIRIPA (05-May-2021 14:53:16)
 ------------------------------------------------------
 Symbolic Z-matrix:
 Charge =  0 Multiplicity = 1

                         Standard orientation:
 ---------------------------------------------------------------------
 Center     Atomic      Atomic             Coordinates (Angstroms)
 Number     Number       Type             X           Y           Z
 ---------------------------------------------------------------------
      1          6           0        4.230254    0.422028   -0.286824
      2          6           0        4.540258   -1.061438   -0.489827
      3          6           0        6.004266   -1.315489   -0.850290
      4          1           0        4.484464    0.971963   -1.203281
      5          1           0        4.878455    0.819723    0.506315
      6          1           0        3.890699   -1.456549   -1.281393
      7          1           0        4.285101   -1.607934    0.427153
      8          1           0        6.665271   -0.948054   -0.058669
      9          1           0        6.268628   -0.795809   -1.776922
     10          1           0        6.203793   -2.382392   -0.990882
     11          6           0        2.770599    0.692043    0.074049
     12          6           0        2.460595    2.175509    0.277053
     13          6           0        0.996587    2.429559    0.637516
     14          1           0        2.122398    0.294347   -0.719089
     15          1           0        2.516389    0.142107    0.990506
     16          1           0        2.715752    2.722005   -0.639928
     17          1           0        3.110154    2.570620    1.068618
     18          1           0        0.732225    1.909879    1.564148
     19          1           0        0.335582    2.062125   -0.154106
     20          1           0        0.797060    3.496462    0.778107
     21          6           0       -1.080383   -1.955808    1.230651
     22          6           0       -1.053264   -0.579134    1.476728
     23          6           0       -1.965083    0.272882    0.846489
     24          6           0       -2.894642   -0.288176   -0.027825
     25          6           0       -2.946905   -1.655627   -0.293594
     26          6           0       -2.025452   -2.488721    0.347831
     27          1           0       -0.368318   -2.610324    1.724581
     28          1           0       -0.320425   -0.162482    2.161851
     29          1           0       -1.966361    1.342330    1.018820
     30          1           0       -3.689165   -2.041630   -0.981687
     31          1           0       -2.048848   -3.557480    0.154819
     32          7           0       -3.865044    0.603800   -0.700951
     33          8           0       -4.674084    0.084739   -1.466894
     34          8           0       -3.798231    1.805102   -0.449861
 ---------------------------------------------------------------------

 SCF Done:  E(RHF) =  -669.534376209     A.U. after   15 cycles
 E2 =    -0.2092825491D+01 EUMP2 =    -0.67162720169991D+03

 The electronic state is 1-A.
 Alpha  occ. eigenvalues --  -20.60717 -20.60712 -15.85770 -11.31111 -11.27685
 Alpha  occ. eigenvalues --  -11.27635 -11.27423 -11.26700 -11.26658 -11.22156
 Alpha  occ. eigenvalues --  -11.22104 -11.21978 -11.21859 -11.21735 -11.21483
 Alpha  occ. eigenvalues --   -1.59794  -1.39348  -1.19288  -1.08974  -1.08686
 Alpha  occ. eigenvalues --   -1.04703  -1.04060  -0.96536  -0.95522  -0.87562
 Alpha  occ. eigenvalues --   -0.86087  -0.82368  -0.80153  -0.78797  -0.77388
 Alpha  occ. eigenvalues --   -0.71988  -0.71119  -0.70395  -0.65621  -0.64942
 Alpha  occ. eigenvalues --   -0.64701  -0.62102  -0.61443  -0.59874  -0.58124
 Alpha  occ. eigenvalues --   -0.55838  -0.55195  -0.53221  -0.53183  -0.52798
 Alpha  occ. eigenvalues --   -0.52770  -0.50463  -0.48752  -0.48744  -0.48433
 Alpha  occ. eigenvalues --   -0.47160  -0.46332  -0.46234  -0.44756  -0.44316
 Alpha  occ. eigenvalues --   -0.37272  -0.36229
 Alpha virt. eigenvalues --    0.05113   0.11266   0.16568   0.20189   0.22546
 Alpha virt. eigenvalues --    0.23834   0.25321   0.26212   0.26846   0.28465
 Alpha virt. eigenvalues --    0.29065   0.29312   0.31272   0.31521   0.31862

 Mulliken charges:
               1
     1  C   -0.298750
     2  C   -0.299512
     3  C   -0.475914
     4  H    0.152427
     5  H    0.150076
     6  H    0.152710
     7  H    0.148373
     8  H    0.155756
     9  H    0.156971
    10  H    0.160564
    11  C   -0.297788
    12  C   -0.300722
    13  C   -0.479796
    14  H    0.153567
    15  H    0.140810
    16  H    0.156617
    17  H    0.152694
    18  H    0.141916
    19  H    0.162921
    20  H    0.166410
    21  C   -0.171337
    22  C   -0.217148
    23  C   -0.171894
    24  C    0.157055
    25  C   -0.171373
    26  C   -0.218835
    27  H    0.225279
    28  H    0.224743
    29  H    0.279095
    30  H    0.275170
    31  H    0.223014
    32  N    0.488291
    33  O   -0.460793
    34  O   -0.460598
 Sum of Mulliken charges =  -0.00000

 Dipole moment (field-independent basis, Debye):
    X=              3.5363    Y=             -3.0585    Z=              2.2621  Tot=              5.1940
 Quadrupole moment (field-independent basis, Debye-Ang):
   XX=           -115.2387   YY=            -89.9606   ZZ=            -93.6240
   XY=             10.4176   XZ=             -5.6897   YZ=              1.1954

 Normal termination of Gaussian 16 at Thu May  6 10:37:50 2021.
