 Gaussian 16, Revision A.03,
 Gaussian 16:  EM64L-G16RevA.03 25-Dec-2016

 -------------
 #p 6-31g* mp2
 -------------

 ------------------------------------------------------
 Input file generated by CHIRIPA (05-May-2021 14:55:23)
 ------------------------------------------------------
 Symbolic Z-matrix:
 Charge =  0 Multiplicity = 1

                         Standard orientation:
 ---------------------------------------------------------------------
 Center     Atomic      Atomic             Coordinates (Angstroms)
 Number     Number       Type             X           Y           Z
 ---------------------------------------------------------------------
      1          6           0       -4.912791   -1.417099    0.470535
      2          6           0       -4.236600   -1.461092   -0.753129
      3          6           0       -3.249289   -0.517799   -1.053063
      4          6           0       -2.962233    0.460097   -0.101954
      5          6           0       -3.618381    0.530263    1.125985
      6          6           0       -4.602071   -0.423314    1.404540
      7          1           0       -5.678352   -2.153867    0.695227
      8          1           0       -4.475827   -2.231747   -1.480389
      9          1           0       -2.710313   -0.528620   -1.992641
     10          1           0       -3.357960    1.310415    1.830940
     11          1           0       -5.125586   -0.386713    2.355664
     12          7           0       -1.918927    1.464163   -0.408164
     13          8           0       -1.684561    2.315622    0.446662
     14          8           0       -1.355305    1.380679   -1.497200
     15          6           0        4.699920   -0.306546   -0.257946
     16          6           0        5.817907   -0.029950    0.747829
     17          6           0        7.188637    0.108694    0.084752
     18          1           0        4.934415   -1.224611   -0.813926
     19          1           0        4.670640    0.506976   -0.995999
     20          1           0        5.844168   -0.843053    1.484573
     21          1           0        5.580628    0.887459    1.301612
     22          1           0        7.186032    0.932092   -0.636780
     23          1           0        7.451069   -0.808252   -0.452780
     24          1           0        7.973108    0.306105    0.821972
     25          6           0        3.323586   -0.447668    0.389753
     26          6           0        2.205599   -0.724264   -0.616022
     27          6           0        0.834869   -0.862908    0.047055
     28          1           0        3.352865   -1.261190    1.127806
     29          1           0        3.089090    0.470398    0.945733
     30          1           0        2.442878   -1.641673   -1.169805
     31          1           0        2.179337    0.088838   -1.352765
     32          1           0        0.572436    0.054038    0.584587
     33          1           0        0.837474   -1.686306    0.768587
     34          1           0        0.050398   -1.060318   -0.690165
 ---------------------------------------------------------------------

 SCF Done:  E(RHF) =  -669.535912492     A.U. after   15 cycles
 E2 =    -0.2092420739D+01 EUMP2 =    -0.67162833323127D+03

 The electronic state is 1-A.
 Alpha  occ. eigenvalues --  -20.60871 -20.60864 -15.85873 -11.31217 -11.27787
 Alpha  occ. eigenvalues --  -11.27778 -11.27523 -11.26799 -11.26789 -11.21122
 Alpha  occ. eigenvalues --  -11.20839 -11.20815 -11.20700 -11.20660 -11.20352
 Alpha  occ. eigenvalues --   -1.59918  -1.39478  -1.19387  -1.08789  -1.07815
 Alpha  occ. eigenvalues --   -1.04790  -1.02923  -0.95634  -0.95396  -0.86436
 Alpha  occ. eigenvalues --   -0.86187  -0.82471  -0.79015  -0.77625  -0.77522
 Alpha  occ. eigenvalues --   -0.72120  -0.71244  -0.70503  -0.65048  -0.64797
 Alpha  occ. eigenvalues --   -0.64434  -0.62143  -0.60300  -0.58772  -0.57003
 Alpha  occ. eigenvalues --   -0.55297  -0.54670  -0.53124  -0.52886  -0.52106
 Alpha  occ. eigenvalues --   -0.51831  -0.49345  -0.48880  -0.48864  -0.47329
 Alpha  occ. eigenvalues --   -0.46018  -0.45178  -0.45071  -0.44861  -0.43162
 Alpha  occ. eigenvalues --   -0.37353  -0.36383
 Alpha virt. eigenvalues --    0.04982   0.11193   0.16480   0.21332   0.23492
 Alpha virt. eigenvalues --    0.24842   0.27144   0.27262   0.27915   0.28113
 Alpha virt. eigenvalues --    0.28755   0.30695   0.31488   0.32001   0.32388

 Mulliken charges:
               1
     1  C   -0.170610
     2  C   -0.218658
     3  C   -0.171685
     4  C    0.160857
     5  C   -0.170907
     6  C   -0.218424
     7  H    0.225706
     8  H    0.223572
     9  H    0.275272
    10  H    0.275591
    11  H    0.223571
    12  N    0.489764
    13  O   -0.460328
    14  O   -0.458383
    15  C   -0.298234
    16  C   -0.299363
    17  C   -0.475450
    18  H    0.147380
    19  H    0.151587
    20  H    0.150131
    21  H    0.152851
    22  H    0.155698
    23  H    0.153925
    24  H    0.158839
    25  C   -0.298996
    26  C   -0.299290
    27  C   -0.479946
    28  H    0.145700
    29  H    0.153519
    30  H    0.146651
    31  H    0.162430
    32  H    0.161679
    33  H    0.147376
    34  H    0.158176
 Sum of Mulliken charges =  -0.00000

 Dipole moment (field-independent basis, Debye):
    X=             -3.8175    Y=             -3.3977    Z=              1.0284  Tot=              5.2130
 Quadrupole moment (field-independent basis, Debye-Ang):
   XX=            -75.0267   YY=            -96.9067   ZZ=            -91.2796
   XY=              8.6945   XZ=             -3.4956   YZ=              3.0356

 Normal termination of Gaussian 16 at Thu May  6 03:06:08 2021.
