 Gaussian 16, Revision A.03,
 Gaussian 16:  EM64L-G16RevA.03 25-Dec-2016

 -------------
 #p 6-31g* mp2
 -------------

 ------------------------------------------------------
 Input file generated by CHIRIPA (05-May-2021 14:57:25)
 ------------------------------------------------------
 Symbolic Z-matrix:
 Charge =  0 Multiplicity = 1

                         Standard orientation:
 ---------------------------------------------------------------------
 Center     Atomic      Atomic             Coordinates (Angstroms)
 Number     Number       Type             X           Y           Z
 ---------------------------------------------------------------------
      1          6           0        1.709333    2.334494    0.015257
      2          6           0        3.095783    2.519633    0.016084
      3          6           0        3.958751    1.421678   -0.049712
      4          6           0        3.398556    0.146874   -0.115636
      5          6           0        2.021527   -0.070093   -0.118266
      6          6           0        1.177567    1.042499   -0.051797
      7          1           0        1.046342    3.193098    0.066630
      8          1           0        3.511570    3.521862    0.068078
      9          1           0        5.035911    1.536322   -0.050665
     10          1           0        1.636661   -1.081291   -0.170957
     11          1           0        0.101232    0.895711   -0.052607
     12          7           0        4.302079   -1.023231   -0.185647
     13          8           0        3.783547   -2.136098   -0.243000
     14          8           0        5.511684   -0.805335   -0.181845
     15          6           0       -1.760786   -2.323317    0.567317
     16          6           0       -1.521663   -1.103619    1.208938
     17          6           0       -2.340154    0.002095    0.959907
     18          6           0       -3.393581   -0.147954    0.059315
     19          6           0       -3.657461   -1.349913   -0.595630
     20          6           0       -2.826043   -2.442361   -0.331335
     21          1           0       -1.119942   -3.177109    0.766699
     22          1           0       -0.695101   -1.008259    1.907328
     23          1           0       -2.177651    0.958041    1.442792
     24          1           0       -4.489131   -1.414330   -1.286709
     25          1           0       -3.014121   -3.388369   -0.831077
     26          7           0       -4.266923    1.015594   -0.212403
     27          8           0       -5.188482    0.857529   -1.010139
     28          8           0       -4.013354    2.063614    0.377506
 ---------------------------------------------------------------------

 SCF Done:  E(RHF) =  -868.337553874     A.U. after   16 cycles
 E2 =    -0.2601959671D+01 EUMP2 =    -0.87093951354551D+03

 The electronic state is 1-A.
 Alpha  occ. eigenvalues --  -20.61579 -20.61551 -20.61170 -20.61145 -15.86625
 Alpha  occ. eigenvalues --  -15.86210 -11.32103 -11.31521 -11.28693 -11.28577
 Alpha  occ. eigenvalues --  -11.28306 -11.28094 -11.28047 -11.27721 -11.27677
 Alpha  occ. eigenvalues --  -11.27579 -11.27030 -11.26932  -1.60642  -1.60235
 Alpha  occ. eigenvalues --   -1.40193  -1.39792  -1.20268  -1.19666  -1.09610
 Alpha  occ. eigenvalues --   -1.09059  -1.05704  -1.05042  -0.96436  -0.95911
 Alpha  occ. eigenvalues --   -0.87040  -0.86459  -0.83282  -0.82733  -0.78345
 Alpha  occ. eigenvalues --   -0.77795  -0.72833  -0.72428  -0.71973  -0.71557
 Alpha  occ. eigenvalues --   -0.71297  -0.70751  -0.65917  -0.65641  -0.65290
 Alpha  occ. eigenvalues --   -0.65048  -0.63061  -0.62362  -0.56073  -0.55542
 Alpha  occ. eigenvalues --   -0.54084  -0.53733  -0.53373  -0.52998  -0.49602
 Alpha  occ. eigenvalues --   -0.49585  -0.49194  -0.49172  -0.45575  -0.45210
 Alpha  occ. eigenvalues --   -0.38217  -0.37637  -0.37296  -0.36616
 Alpha virt. eigenvalues --    0.04165   0.04694   0.10216   0.10952   0.15571
 Alpha virt. eigenvalues --    0.16225   0.20177   0.21869   0.26203   0.26562
 Alpha virt. eigenvalues --    0.28052   0.28660   0.30429   0.31162   0.31420

 Mulliken charges:
               1
     1  C   -0.173603
     2  C   -0.218104
     3  C   -0.171170
     4  C    0.159896
     5  C   -0.178567
     6  C   -0.227896
     7  H    0.230747
     8  H    0.225406
     9  H    0.276330
    10  H    0.269430
    11  H    0.234116
    12  N    0.488359
    13  O   -0.464028
    14  O   -0.458512
    15  C   -0.173848
    16  C   -0.225031
    17  C   -0.186253
    18  C    0.161384
    19  C   -0.170187
    20  C   -0.216815
    21  H    0.234165
    22  H    0.230810
    23  H    0.275346
    24  H    0.278963
    25  H    0.229101
    26  N    0.488193
    27  O   -0.456225
    28  O   -0.462007
 Sum of Mulliken charges =  -0.00000

 Dipole moment (field-independent basis, Debye):
    X=             -0.3452    Y=             -0.0678    Z=              1.1488  Tot=              1.2015
 Quadrupole moment (field-independent basis, Debye-Ang):
   XX=           -142.6021   YY=            -99.0350   ZZ=           -104.0060
   XY=             32.4212   XZ=              0.3823   YZ=              1.2325

 Normal termination of Gaussian 16 at Thu May  6 14:45:39 2021.
