 Gaussian 16, Revision A.03,
 Gaussian 16:  EM64L-G16RevA.03 25-Dec-2016

 -------------
 #p 6-31g* mp2
 -------------

 ------------------------------------------------------
 Input file generated by CHIRIPA (05-May-2021 14:51:10)
 ------------------------------------------------------
 Symbolic Z-matrix:
 Charge =  0 Multiplicity = 1

                         Standard orientation:
 ---------------------------------------------------------------------
 Center     Atomic      Atomic             Coordinates (Angstroms)
 Number     Number       Type             X           Y           Z
 ---------------------------------------------------------------------
      1          6           0       -4.481938   -0.571759    0.330828
      2          6           0       -5.532520   -0.453842   -0.773870
      3          6           0       -6.713050   -1.404062   -0.570831
      4          1           0       -4.117840   -1.607432    0.372760
      5          1           0       -4.955622   -0.367441    1.301020
      6          1           0       -5.056693   -0.656963   -1.741830
      7          1           0       -5.894020    0.581715   -0.813305
      8          1           0       -7.213836   -1.198441    0.380765
      9          1           0       -6.371752   -2.444158   -0.553036
     10          1           0       -7.452010   -1.303144   -1.371838
     11          6           0       -3.295555    0.371903    0.141815
     12          6           0       -2.244973    0.253986    1.246513
     13          6           0       -1.064443    1.204206    1.043474
     14          1           0       -2.821871    0.167586   -0.828377
     15          1           0       -3.659653    1.407577    0.099882
     16          1           0       -1.883473   -0.781571    1.285948
     17          1           0       -2.720800    0.457108    2.214473
     18          1           0       -1.405741    2.244302    1.025679
     19          1           0       -0.563657    0.998586    0.091878
     20          1           0       -0.325483    1.103288    1.844481
     21          6           0        4.148774   -0.593059   -0.424969
     22          6           0        5.346445   -1.040339    0.413786
     23          6           0        5.855267   -2.428646    0.024561
     24          1           0        3.338077   -1.326326   -0.315268
     25          1           0        4.431792   -0.596501   -1.486705
     26          1           0        5.061671   -1.034724    1.473733
     27          1           0        6.154316   -0.305822    0.302226
     28          1           0        6.166140   -2.444712   -1.025059
     29          1           0        5.067286   -3.177755    0.153104
     30          1           0        6.711585   -2.728549    0.636638
     31          6           0        3.628719    0.792914   -0.047674
     32          6           0        2.431047    1.240194   -0.886428
     33          6           0        1.922226    2.628502   -0.497204
     34          1           0        3.345701    0.796357    1.014062
     35          1           0        4.439416    1.526181   -0.157375
     36          1           0        1.623176    0.505677   -0.774869
     37          1           0        2.715822    1.234579   -1.946375
     38          1           0        2.710207    3.377611   -0.625747
     39          1           0        1.611354    2.644567    0.552416
     40          1           0        1.065909    2.928405   -1.109280
 ---------------------------------------------------------------------

 SCF Done:  E(RHF) =  -470.732446681     A.U. after   11 cycles
 E2 =    -0.1583305445D+01 EUMP2 =    -0.47231575212630D+03

 The electronic state is 1-A.
 Alpha  occ. eigenvalues --  -11.21606 -11.21590 -11.21587 -11.21535 -11.21412
 Alpha  occ. eigenvalues --  -11.21377 -11.21353 -11.21315 -11.21075 -11.21063
 Alpha  occ. eigenvalues --  -11.21032 -11.20928  -1.08442  -1.08389  -1.03579
 Alpha  occ. eigenvalues --   -1.03444  -0.96066  -0.95854  -0.87080  -0.86872
 Alpha  occ. eigenvalues --   -0.79615  -0.79540  -0.78251  -0.78212  -0.65132
 Alpha  occ. eigenvalues --   -0.64979  -0.61135  -0.60731  -0.59385  -0.59286
 Alpha  occ. eigenvalues --   -0.57689  -0.57455  -0.55433  -0.55077  -0.52695
 Alpha  occ. eigenvalues --   -0.52662  -0.52364  -0.52292  -0.49927  -0.49852
 Alpha  occ. eigenvalues --   -0.47905  -0.47856  -0.46752  -0.46470  -0.45818
 Alpha  occ. eigenvalues --   -0.45752  -0.45714  -0.45596  -0.43776  -0.43739
 Alpha virt. eigenvalues --    0.21575   0.23039   0.23600   0.24966   0.26290
 Alpha virt. eigenvalues --    0.26498   0.27006   0.27548   0.27732   0.29327
 Alpha virt. eigenvalues --    0.29905   0.31154   0.31597   0.32064   0.32416

 Mulliken charges:
               1
     1  C   -0.298233
     2  C   -0.299650
     3  C   -0.475706
     4  H    0.149571
     5  H    0.149575
     6  H    0.151926
     7  H    0.151966
     8  H    0.155191
     9  H    0.155166
    10  H    0.160280
    11  C   -0.298436
    12  C   -0.300814
    13  C   -0.479003
    14  H    0.149372
    15  H    0.149726
    16  H    0.151261
    17  H    0.151673
    18  H    0.155693
    19  H    0.162607
    20  H    0.158340
    21  C   -0.298332
    22  C   -0.299617
    23  C   -0.475680
    24  H    0.149420
    25  H    0.149427
    26  H    0.151867
    27  H    0.151957
    28  H    0.155145
    29  H    0.155062
    30  H    0.160210
    31  C   -0.297864
    32  C   -0.303763
    33  C   -0.477356
    34  H    0.149363
    35  H    0.149648
    36  H    0.154216
    37  H    0.151461
    38  H    0.154330
    39  H    0.160278
    40  H    0.159724
 Sum of Mulliken charges =  -0.00000

 Dipole moment (field-independent basis, Debye):
    X=             -0.0132    Y=              0.0186    Z=              0.0041  Tot=              0.0232
 Quadrupole moment (field-independent basis, Debye-Ang):
   XX=            -85.3584   YY=            -85.4665   ZZ=            -84.1162
   XY=             -0.2162   XZ=             -0.5570   YZ=             -0.0124

 Normal termination of Gaussian 16 at Wed May  5 16:42:26 2021.
