 Gaussian 16, Revision A.03,
 Gaussian 16:  EM64L-G16RevA.03 25-Dec-2016

 -------------
 #p 6-31g* mp2
 -------------

 ------------------------------------------------------
 Input file generated by CHIRIPA (05-May-2021 14:55:21)
 ------------------------------------------------------
 Symbolic Z-matrix:
 Charge =  0 Multiplicity = 1

                         Standard orientation:
 ---------------------------------------------------------------------
 Center     Atomic      Atomic             Coordinates (Angstroms)
 Number     Number       Type             X           Y           Z
 ---------------------------------------------------------------------
      1          6           0        1.598696   -1.717082    1.779806
      2          6           0        2.989090   -1.700019    1.628030
      3          6           0        3.586661   -0.901037    0.648702
      4          6           0        2.759936   -0.128141   -0.165207
      5          6           0        1.371686   -0.123588   -0.038593
      6          6           0        0.795847   -0.930199    0.947478
      7          1           0        1.142929   -2.340714    2.543191
      8          1           0        3.615074   -2.310097    2.273006
      9          1           0        4.660440   -0.868810    0.509491
     10          1           0        0.773819    0.495380   -0.696507
     11          1           0       -0.284225   -0.941457    1.063074
     12          7           0        3.381055    0.721744   -1.205547
     13          8           0        2.630636    1.393536   -1.909964
     14          8           0        4.606546    0.699999   -1.296849
     15          6           0       -3.306575   -0.333499   -0.349051
     16          6           0       -4.621879   -0.993303   -0.764528
     17          6           0       -4.415145   -2.346583   -1.445473
     18          1           0       -2.671432   -0.205892   -1.236325
     19          1           0       -2.764623   -1.007218    0.329024
     20          1           0       -5.161829   -0.317949   -1.440523
     21          1           0       -5.254043   -1.119178    0.123808
     22          1           0       -3.898196   -3.040402   -0.774667
     23          1           0       -3.805459   -2.234620   -2.347886
     24          1           0       -5.368279   -2.800518   -1.734156
     25          6           0       -3.496800    1.020123    0.333043
     26          6           0       -2.181497    1.679927    0.748519
     27          6           0       -2.388230    3.033208    1.429464
     28          1           0       -4.038752    1.693843   -0.345032
     29          1           0       -4.131943    0.892517    1.220316
     30          1           0       -1.549333    1.805803   -0.139816
     31          1           0       -1.641547    1.004575    1.424514
     32          1           0       -2.997916    2.921246    2.331877
     33          1           0       -2.905178    3.727026    0.758658
     34          1           0       -1.435096    3.487143    1.718149
 ---------------------------------------------------------------------

 SCF Done:  E(RHF) =  -669.535090361     A.U. after   15 cycles
 E2 =    -0.2092618702D+01 EUMP2 =    -0.67162770906310D+03

 The electronic state is 1-A.
 Alpha  occ. eigenvalues --  -20.60709 -20.60704 -15.85760 -11.31095 -11.27673
 Alpha  occ. eigenvalues --  -11.27634 -11.27403 -11.26687 -11.26602 -11.22424
 Alpha  occ. eigenvalues --  -11.22285 -11.22213 -11.22091 -11.21599 -11.21585
 Alpha  occ. eigenvalues --   -1.59784  -1.39339  -1.19266  -1.09190  -1.08669
 Alpha  occ. eigenvalues --   -1.04664  -1.04182  -0.96611  -0.95509  -0.87626
 Alpha  occ. eigenvalues --   -0.86068  -0.82353  -0.80284  -0.79072  -0.77359
 Alpha  occ. eigenvalues --   -0.71980  -0.71107  -0.70383  -0.65876  -0.64916
 Alpha  occ. eigenvalues --   -0.64632  -0.62035  -0.61573  -0.59968  -0.58240
 Alpha  occ. eigenvalues --   -0.55892  -0.55180  -0.53287  -0.53066  -0.52968
 Alpha  occ. eigenvalues --   -0.52771  -0.50550  -0.48745  -0.48739  -0.48570
 Alpha  occ. eigenvalues --   -0.47307  -0.46513  -0.46455  -0.44751  -0.44463
 Alpha  occ. eigenvalues --   -0.37255  -0.36246
 Alpha virt. eigenvalues --    0.05126   0.11339   0.16554   0.19501   0.22796
 Alpha virt. eigenvalues --    0.23507   0.24271   0.24856   0.27337   0.28513
 Alpha virt. eigenvalues --    0.29501   0.30760   0.31407   0.31447   0.31798

 Mulliken charges:
               1
     1  C   -0.172708
     2  C   -0.218573
     3  C   -0.170927
     4  C    0.158844
     5  C   -0.175291
     6  C   -0.224840
     7  H    0.225217
     8  H    0.222917
     9  H    0.275197
    10  H    0.278302
    11  H    0.233583
    12  N    0.488094
    13  O   -0.460896
    14  O   -0.460751
    15  C   -0.302956
    16  C   -0.299716
    17  C   -0.476361
    18  H    0.151833
    19  H    0.141562
    20  H    0.155842
    21  H    0.152987
    22  H    0.153162
    23  H    0.157737
    24  H    0.162931
    25  C   -0.298148
    26  C   -0.307549
    27  C   -0.475551
    28  H    0.154743
    29  H    0.151196
    30  H    0.154304
    31  H    0.146343
    32  H    0.155748
    33  H    0.159173
    34  H    0.164551
 Sum of Mulliken charges =  -0.00000

 Dipole moment (field-independent basis, Debye):
    X=             -2.4107    Y=             -2.8845    Z=              3.6138  Tot=              5.2145
 Quadrupole moment (field-independent basis, Debye-Ang):
   XX=           -102.1114   YY=            -94.5504   ZZ=            -95.6361
   XY=             -9.9205   XZ=             12.2047   YZ=             -1.3408

 Normal termination of Gaussian 16 at Wed May  5 20:37:05 2021.
