 Gaussian 16, Revision A.03,
 Gaussian 16:  EM64L-G16RevA.03 25-Dec-2016

 -------------
 #p 6-31g* mp2
 -------------

 ------------------------------------------------------
 Input file generated by CHIRIPA (05-May-2021 14:53:18)
 ------------------------------------------------------
 Symbolic Z-matrix:
 Charge =  0 Multiplicity = 1

                         Standard orientation:
 ---------------------------------------------------------------------
 Center     Atomic      Atomic             Coordinates (Angstroms)
 Number     Number       Type             X           Y           Z
 ---------------------------------------------------------------------
      1          6           0       -3.289527    0.307550    0.055272
      2          6           0       -4.731098   -0.148156   -0.173176
      3          6           0       -5.502656    0.779732   -1.112066
      4          1           0       -3.294545    1.326206    0.466682
      5          1           0       -2.772407    0.363901   -0.912616
      6          1           0       -5.244945   -0.204964    0.794993
      7          1           0       -4.722653   -1.165919   -0.583911
      8          1           0       -5.015525    0.828742   -2.091301
      9          1           0       -5.540785    1.795158   -0.704563
     10          1           0       -6.530718    0.435288   -1.261425
     11          6           0       -2.505314   -0.609952    0.991716
     12          6           0       -1.063742   -0.154246    1.220164
     13          6           0       -0.292184   -1.082135    2.159054
     14          1           0       -3.022434   -0.666304    1.959604
     15          1           0       -2.500296   -1.628609    0.580306
     16          1           0       -1.072188    0.863517    1.630899
     17          1           0       -0.549896   -0.097439    0.251995
     18          1           0       -0.254056   -2.097560    1.751551
     19          1           0       -0.779315   -1.131145    3.138290
     20          1           0        0.735877   -0.737690    2.308413
     21          6           0        2.490885    2.523664    0.317421
     22          6           0        2.980990    1.497296    1.131601
     23          6           0        2.860541    0.160867    0.739177
     24          6           0        2.241637   -0.114432   -0.479206
     25          6           0        1.743259    0.885936   -1.312375
     26          6           0        1.874670    2.215251   -0.899822
     27          1           0        2.588712    3.559071    0.630083
     28          1           0        3.460009    1.733856    2.077448
     29          1           0        3.231074   -0.653324    1.350092
     30          1           0        1.270577    0.618956   -2.249771
     31          1           0        1.493116    3.010286   -1.534158
     32          7           0        2.108321   -1.525485   -0.905301
     33          8           0        1.558990   -1.741712   -1.983317
     34          8           0        2.555683   -2.388523   -0.153191
 ---------------------------------------------------------------------

 SCF Done:  E(RHF) =  -669.533675500     A.U. after   15 cycles
 E2 =    -0.2095562887D+01 EUMP2 =    -0.67162923838694D+03

 The electronic state is 1-A.
 Alpha  occ. eigenvalues --  -20.60856 -20.60837 -15.85883 -11.31197 -11.27799
 Alpha  occ. eigenvalues --  -11.27795 -11.27560 -11.26828 -11.26810 -11.21492
 Alpha  occ. eigenvalues --  -11.21381 -11.21292 -11.21158 -11.21024 -11.20760
 Alpha  occ. eigenvalues --   -1.59915  -1.39469  -1.19429  -1.08818  -1.08279
 Alpha  occ. eigenvalues --   -1.04834  -1.03386  -0.95851  -0.95641  -0.86865
 Alpha  occ. eigenvalues --   -0.86215  -0.82487  -0.79456  -0.78108  -0.77533
 Alpha  occ. eigenvalues --   -0.72110  -0.71263  -0.70541  -0.65074  -0.64911
 Alpha  occ. eigenvalues --   -0.64828  -0.62186  -0.60794  -0.59279  -0.57545
 Alpha  occ. eigenvalues --   -0.55328  -0.55118  -0.53234  -0.52925  -0.52395
 Alpha  occ. eigenvalues --   -0.52177  -0.49766  -0.48869  -0.48867  -0.47788
 Alpha  occ. eigenvalues --   -0.46510  -0.45642  -0.45587  -0.44821  -0.43649
 Alpha  occ. eigenvalues --   -0.37320  -0.36333
 Alpha virt. eigenvalues --    0.04951   0.11136   0.16458   0.21269   0.22986
 Alpha virt. eigenvalues --    0.24382   0.26681   0.26945   0.27539   0.28139
 Alpha virt. eigenvalues --    0.28467   0.30855   0.31556   0.31638   0.31939

 Mulliken charges:
               1
     1  C   -0.297604
     2  C   -0.299774
     3  C   -0.475623
     4  H    0.146257
     5  H    0.148726
     6  H    0.151544
     7  H    0.154642
     8  H    0.154892
     9  H    0.153267
    10  H    0.160587
    11  C   -0.298053
    12  C   -0.301936
    13  C   -0.482450
    14  H    0.148174
    15  H    0.154819
    16  H    0.147357
    17  H    0.153032
    18  H    0.166336
    19  H    0.153100
    20  H    0.155898
    21  C   -0.170566
    22  C   -0.217791
    23  C   -0.174253
    24  C    0.164977
    25  C   -0.174660
    26  C   -0.215096
    27  H    0.225931
    28  H    0.223885
    29  H    0.276546
    30  H    0.275240
    31  H    0.223839
    32  N    0.489725
    33  O   -0.461226
    34  O   -0.459742
 Sum of Mulliken charges =  -0.00000

 Dipole moment (field-independent basis, Debye):
    X=              0.5585    Y=              4.9136    Z=              1.4541  Tot=              5.1546
 Quadrupole moment (field-independent basis, Debye-Ang):
   XX=            -92.7142   YY=            -95.8602   ZZ=            -92.9340
   XY=             10.9238   XZ=              4.8200   YZ=             -3.2002

 Normal termination of Gaussian 16 at Thu May  6 15:40:50 2021.
