 Gaussian 16, Revision A.03,
 Gaussian 16:  EM64L-G16RevA.03 25-Dec-2016

 -------------
 #p 6-31g* mp2
 -------------

 ------------------------------------------------------
 Input file generated by CHIRIPA (05-May-2021 14:57:26)
 ------------------------------------------------------
 Symbolic Z-matrix:
 Charge =  0 Multiplicity = 1

                         Standard orientation:
 ---------------------------------------------------------------------
 Center     Atomic      Atomic             Coordinates (Angstroms)
 Number     Number       Type             X           Y           Z
 ---------------------------------------------------------------------
      1          6           0       -4.664629   -2.089208   -0.771557
      2          6           0       -5.478246   -0.955693   -0.870014
      3          6           0       -4.995334    0.300087   -0.490069
      4          6           0       -3.688019    0.386356   -0.013859
      5          6           0       -2.852951   -0.724450    0.095962
      6          6           0       -3.356884   -1.970178   -0.289733
      7          1           0       -5.047932   -3.060824   -1.068941
      8          1           0       -6.494263   -1.045144   -1.243850
      9          1           0       -5.603642    1.193978   -0.555945
     10          1           0       -1.844399   -0.603780    0.472366
     11          1           0       -2.722758   -2.848766   -0.212185
     12          7           0       -3.165655    1.710473    0.391416
     13          8           0       -2.010309    1.759880    0.807796
     14          8           0       -3.921462    2.673838    0.285016
     15          6           0        1.867149   -1.341641    1.243526
     16          6           0        3.007639   -2.060133    0.869932
     17          6           0        4.070317   -1.420251    0.225096
     18          6           0        3.958469   -0.054673   -0.031769
     19          6           0        2.835350    0.688582    0.328042
     20          6           0        1.784790    0.028008    0.971868
     21          1           0        1.046342   -1.846754    1.744058
     22          1           0        3.074355   -3.123909    1.079630
     23          1           0        4.964876   -1.952301   -0.075079
     24          1           0        2.797878    1.748071    0.105562
     25          1           0        0.900288    0.588532    1.260859
     26          7           0        5.077065    0.633694   -0.713895
     27          8           0        4.954015    1.837559   -0.928843
     28          8           0        6.055690   -0.043664   -1.020678
 ---------------------------------------------------------------------

 SCF Done:  E(RHF) =  -868.338735672     A.U. after   16 cycles
 E2 =    -0.2599313450D+01 EUMP2 =    -0.87093804912179D+03

 The electronic state is 1-A.
 Alpha  occ. eigenvalues --  -20.61640 -20.61589 -20.60562 -20.60548 -15.86666
 Alpha  occ. eigenvalues --  -15.85607 -11.31919 -11.30989 -11.28549 -11.28424
 Alpha  occ. eigenvalues --  -11.28164 -11.27578 -11.27492 -11.27452 -11.27412
 Alpha  occ. eigenvalues --  -11.27364 -11.26660 -11.26430  -1.60673  -1.59632
 Alpha  occ. eigenvalues --   -1.40237  -1.39184  -1.20073  -1.19155  -1.09479
 Alpha  occ. eigenvalues --   -1.08573  -1.05469  -1.04530  -0.96340  -0.95405
 Alpha  occ. eigenvalues --   -0.86870  -0.85943  -0.83187  -0.82207  -0.78259
 Alpha  occ. eigenvalues --   -0.77231  -0.72894  -0.71981  -0.71826  -0.71185
 Alpha  occ. eigenvalues --   -0.70954  -0.70320  -0.65735  -0.65476  -0.64806
 Alpha  occ. eigenvalues --   -0.64504  -0.62834  -0.61841  -0.55953  -0.55120
 Alpha  occ. eigenvalues --   -0.53787  -0.53569  -0.52895  -0.52593  -0.49652
 Alpha  occ. eigenvalues --   -0.49607  -0.48586  -0.48577  -0.45664  -0.44584
 Alpha  occ. eigenvalues --   -0.38027  -0.37196  -0.37061  -0.36125
 Alpha virt. eigenvalues --    0.04297   0.05252   0.10595   0.11433   0.15820
 Alpha virt. eigenvalues --    0.16733   0.19339   0.21890   0.25360   0.26914
 Alpha virt. eigenvalues --    0.28085   0.29164   0.30373   0.31212   0.31703

 Mulliken charges:
               1
     1  C   -0.169892
     2  C   -0.218163
     3  C   -0.169848
     4  C    0.159059
     5  C   -0.169584
     6  C   -0.218086
     7  H    0.227904
     8  H    0.226188
     9  H    0.277668
    10  H    0.267577
    11  H    0.222363
    12  N    0.492519
    13  O   -0.472539
    14  O   -0.454468
    15  C   -0.175816
    16  C   -0.218079
    17  C   -0.172225
    18  C    0.158949
    19  C   -0.171689
    20  C   -0.228916
    21  H    0.218463
    22  H    0.220554
    23  H    0.274535
    24  H    0.280396
    25  H    0.245565
    26  N    0.487864
    27  O   -0.458471
    28  O   -0.461828
 Sum of Mulliken charges =  -0.00000

 Dipole moment (field-independent basis, Debye):
    X=             -6.0893    Y=             -6.9166    Z=              0.8890  Tot=              9.2580
 Quadrupole moment (field-independent basis, Debye-Ang):
   XX=           -116.7860   YY=           -104.1221   ZZ=           -106.3219
   XY=              3.0144   XZ=             16.4178   YZ=             -0.7163

 Normal termination of Gaussian 16 at Thu May  6 21:23:06 2021.
