 Gaussian 16, Revision A.03,
 Gaussian 16:  EM64L-G16RevA.03 25-Dec-2016

 -------------
 #p 6-31g* mp2
 -------------

 ------------------------------------------------------
 Input file generated by CHIRIPA (05-May-2021 14:51:13)
 ------------------------------------------------------
 Symbolic Z-matrix:
 Charge =  0 Multiplicity = 1

                         Standard orientation:
 ---------------------------------------------------------------------
 Center     Atomic      Atomic             Coordinates (Angstroms)
 Number     Number       Type             X           Y           Z
 ---------------------------------------------------------------------
      1          6           0        4.714297   -0.621359   -0.160086
      2          6           0        6.048651    0.058277    0.149071
      3          6           0        7.251165   -0.752327   -0.335361
      4          1           0        4.699854   -1.615889    0.306440
      5          1           0        4.635771   -0.783415   -1.244044
      6          1           0        6.124031    0.220254    1.231983
      7          1           0        6.059842    1.051381   -0.318085
      8          1           0        7.203309   -0.902504   -1.418762
      9          1           0        7.267862   -1.738353    0.140112
     10          1           0        8.194656   -0.248144   -0.104094
     11          6           0        3.502731    0.176879    0.318091
     12          6           0        2.168376   -0.502757    0.008934
     13          6           0        0.965862    0.307847    0.493366
     14          1           0        3.581256    0.338935    1.402049
     15          1           0        3.517173    1.171409   -0.148435
     16          1           0        2.157185   -1.495862    0.476090
     17          1           0        2.092997   -0.664735   -1.073977
     18          1           0        0.949166    1.293873    0.017893
     19          1           0        1.013719    0.458024    1.576767
     20          1           0        0.022372   -0.196336    0.262099
     21          6           0       -3.441014    0.548942   -0.255472
     22          6           0       -3.388175    2.039819    0.079911
     23          6           0       -2.046481    2.679273   -0.278906
     24          1           0       -2.632060    0.030817    0.277523
     25          1           0       -3.244875    0.414384   -1.328234
     26          1           0       -3.585724    2.171631    1.151459
     27          1           0       -4.197468    2.554426   -0.453794
     28          1           0       -1.845325    2.577191   -1.350221
     29          1           0       -1.230106    2.192222    0.264154
     30          1           0       -2.030608    3.745127   -0.030788
     31          6           0       -4.776014   -0.104463    0.097467
     32          6           0       -4.828853   -1.595339   -0.237917
     33          6           0       -6.170546   -2.234793    0.120901
     34          1           0       -4.972153    0.030096    1.170229
     35          1           0       -5.584968    0.413664   -0.435528
     36          1           0       -4.019560   -2.109946    0.295788
     37          1           0       -4.631303   -1.727151   -1.309465
     38          1           0       -6.986922   -1.747741   -0.422158
     39          1           0       -6.371703   -2.132711    1.192216
     40          1           0       -6.186420   -3.300647   -0.127217
 ---------------------------------------------------------------------

 SCF Done:  E(RHF) =  -470.732566275     A.U. after   11 cycles
 E2 =    -0.1583106194D+01 EUMP2 =    -0.47231567246949D+03

 The electronic state is 1-A.
 Alpha  occ. eigenvalues --  -11.21603 -11.21602 -11.21587 -11.21523 -11.21407
 Alpha  occ. eigenvalues --  -11.21370 -11.21348 -11.21309 -11.21071 -11.21070
 Alpha  occ. eigenvalues --  -11.21058 -11.20882  -1.08437  -1.08385  -1.03555
 Alpha  occ. eigenvalues --   -1.03457  -0.96026  -0.95893  -0.87075  -0.86891
 Alpha  occ. eigenvalues --   -0.79699  -0.79462  -0.78263  -0.78183  -0.65071
 Alpha  occ. eigenvalues --   -0.65017  -0.60990  -0.60839  -0.59432  -0.59217
 Alpha  occ. eigenvalues --   -0.57659  -0.57500  -0.55396  -0.55119  -0.52761
 Alpha  occ. eigenvalues --   -0.52630  -0.52530  -0.52188  -0.50056  -0.49736
 Alpha  occ. eigenvalues --   -0.47967  -0.47777  -0.46691  -0.46493  -0.45821
 Alpha  occ. eigenvalues --   -0.45735  -0.45687  -0.45641  -0.43754  -0.43703
 Alpha virt. eigenvalues --    0.22114   0.22954   0.23654   0.24698   0.25931
 Alpha virt. eigenvalues --    0.26496   0.26939   0.27159   0.27858   0.29155
 Alpha virt. eigenvalues --    0.30456   0.30857   0.31400   0.31841   0.32061

 Mulliken charges:
               1
     1  C   -0.298251
     2  C   -0.299629
     3  C   -0.475706
     4  H    0.149618
     5  H    0.149578
     6  H    0.151899
     7  H    0.152005
     8  H    0.155201
     9  H    0.155158
    10  H    0.160265
    11  C   -0.298706
    12  C   -0.299889
    13  C   -0.482741
    14  H    0.149409
    15  H    0.149972
    16  H    0.151656
    17  H    0.152310
    18  H    0.158384
    19  H    0.154543
    20  H    0.164715
    21  C   -0.302226
    22  C   -0.298973
    23  C   -0.484335
    24  H    0.153033
    25  H    0.149188
    26  H    0.151457
    27  H    0.151329
    28  H    0.153569
    29  H    0.168370
    30  H    0.158916
    31  C   -0.298010
    32  C   -0.299615
    33  C   -0.475667
    34  H    0.149477
    35  H    0.149714
    36  H    0.151616
    37  H    0.151842
    38  H    0.155191
    39  H    0.155177
    40  H    0.160158
 Sum of Mulliken charges =  -0.00000

 Dipole moment (field-independent basis, Debye):
    X=              0.0372    Y=             -0.0059    Z=              0.0073  Tot=              0.0384
 Quadrupole moment (field-independent basis, Debye-Ang):
   XX=            -86.6067   YY=            -85.2083   ZZ=            -83.2219
   XY=             -0.1038   XZ=              0.7897   YZ=             -0.6400

 Normal termination of Gaussian 16 at Thu May  6 02:21:52 2021.
