 Gaussian 16, Revision A.03,
 Gaussian 16:  EM64L-G16RevA.03 25-Dec-2016

 -------------
 #p 6-31g* mp2
 -------------

 ------------------------------------------------------
 Input file generated by CHIRIPA (05-May-2021 14:57:26)
 ------------------------------------------------------
 Symbolic Z-matrix:
 Charge =  0 Multiplicity = 1

                         Standard orientation:
 ---------------------------------------------------------------------
 Center     Atomic      Atomic             Coordinates (Angstroms)
 Number     Number       Type             X           Y           Z
 ---------------------------------------------------------------------
      1          6           0       -2.609797    2.351337   -0.651514
      2          6           0       -3.814069    1.728792   -0.996023
      3          6           0       -4.021531    0.376246   -0.709443
      4          6           0       -2.998728   -0.326775   -0.074680
      5          6           0       -1.787854    0.265221    0.281151
      6          6           0       -1.602309    1.618856   -0.015149
      7          1           0       -2.457148    3.402450   -0.877911
      8          1           0       -4.598256    2.295171   -1.490300
      9          1           0       -4.944109   -0.130643   -0.965042
     10          1           0       -1.024672   -0.325460    0.773154
     11          1           0       -0.666035    2.099718    0.253566
     12          7           0       -3.206758   -1.759231    0.233854
     13          8           0       -2.290018   -2.356570    0.793686
     14          8           0       -4.282612   -2.257528   -0.089991
     15          6           0        1.695283    1.635027    1.665069
     16          6           0        2.151326    2.100153    0.427247
     17          6           0        2.855578    1.253313   -0.433822
     18          6           0        3.087140   -0.058612   -0.023307
     19          6           0        2.645660   -0.551567    1.203633
     20          6           0        1.943468    0.312982    2.048635
     21          1           0        1.149003    2.299751    2.327727
     22          1           0        1.960036    3.126383    0.126742
     23          1           0        3.220004    1.587333   -1.397690
     24          1           0        2.851659   -1.579692    1.475554
     25          1           0        1.590490   -0.050972    3.009358
     26          7           0        3.831609   -0.964497   -0.926377
     27          8           0        4.022688   -2.115975   -0.541379
     28          8           0        4.209950   -0.505899   -2.002101
 ---------------------------------------------------------------------

 SCF Done:  E(RHF) =  -868.336404015     A.U. after   16 cycles
 E2 =    -0.2602775050D+01 EUMP2 =    -0.87093917906500D+03

 The electronic state is 1-A.
 Alpha  occ. eigenvalues --  -20.61224 -20.61205 -20.60950 -20.60939 -15.86281
 Alpha  occ. eigenvalues --  -15.86000 -11.31934 -11.31386 -11.28577 -11.28507
 Alpha  occ. eigenvalues --  -11.28411 -11.27956 -11.27920 -11.27736 -11.27693
 Alpha  occ. eigenvalues --  -11.27588 -11.26990 -11.26895  -1.60285  -1.60020
 Alpha  occ. eigenvalues --   -1.39830  -1.39574  -1.20182  -1.19561  -1.09548
 Alpha  occ. eigenvalues --   -1.08964  -1.05604  -1.04962  -0.96304  -0.95794
 Alpha  occ. eigenvalues --   -0.87012  -0.86363  -0.83111  -0.82621  -0.78087
 Alpha  occ. eigenvalues --   -0.77667  -0.72496  -0.72219  -0.71611  -0.71342
 Alpha  occ. eigenvalues --   -0.71283  -0.70700  -0.65840  -0.65614  -0.65217
 Alpha  occ. eigenvalues --   -0.64970  -0.62904  -0.62361  -0.56128  -0.55547
 Alpha  occ. eigenvalues --   -0.53932  -0.53667  -0.53301  -0.52990  -0.49278
 Alpha  occ. eigenvalues --   -0.49228  -0.48979  -0.48971  -0.45171  -0.44974
 Alpha  occ. eigenvalues --   -0.38182  -0.37582  -0.37211  -0.36538
 Alpha virt. eigenvalues --    0.04388   0.04884   0.10254   0.11061   0.15721
 Alpha virt. eigenvalues --    0.16404   0.19970   0.21853   0.26070   0.26992
 Alpha virt. eigenvalues --    0.28004   0.28319   0.30240   0.31262   0.31735

 Mulliken charges:
               1
     1  C   -0.172777
     2  C   -0.218275
     3  C   -0.170575
     4  C    0.159574
     5  C   -0.177115
     6  C   -0.221867
     7  H    0.223022
     8  H    0.223699
     9  H    0.276306
    10  H    0.275555
    11  H    0.223442
    12  N    0.488209
    13  O   -0.461174
    14  O   -0.459296
    15  C   -0.181329
    16  C   -0.225603
    17  C   -0.167873
    18  C    0.159574
    19  C   -0.168478
    20  C   -0.223128
    21  H    0.228298
    22  H    0.222704
    23  H    0.278620
    24  H    0.283187
    25  H    0.231187
    26  N    0.488141
    27  O   -0.455083
    28  O   -0.458945
 Sum of Mulliken charges =  -0.00000

 Dipole moment (field-independent basis, Debye):
    X=             -1.5601    Y=              7.9798    Z=              2.0938  Tot=              8.3962
 Quadrupole moment (field-independent basis, Debye-Ang):
   XX=           -121.1215   YY=           -106.9443   ZZ=           -102.5393
   XY=             -5.5171   XZ=             15.1533   YZ=             -3.3783

 Normal termination of Gaussian 16 at Wed May  5 19:37:06 2021.
