 Gaussian 16, Revision A.03,
 Gaussian 16:  EM64L-G16RevA.03 25-Dec-2016

 -------------
 #p 6-31g* mp2
 -------------

 ------------------------------------------------------
 Input file generated by CHIRIPA (05-May-2021 14:55:25)
 ------------------------------------------------------
 Symbolic Z-matrix:
 Charge =  0 Multiplicity = 1

                         Standard orientation:
 ---------------------------------------------------------------------
 Center     Atomic      Atomic             Coordinates (Angstroms)
 Number     Number       Type             X           Y           Z
 ---------------------------------------------------------------------
      1          6           0       -0.994676   -2.788015    0.202087
      2          6           0       -0.805846   -1.891813    1.259293
      3          6           0       -1.349469   -0.604932    1.204885
      4          6           0       -2.079731   -0.245912    0.073023
      5          6           0       -2.285308   -1.116142   -0.996429
      6          6           0       -1.732503   -2.398006   -0.920422
      7          1           0       -0.568810   -3.785746    0.252742
      8          1           0       -0.233288   -2.191965    2.132295
      9          1           0       -1.218673    0.108889    2.009105
     10          1           0       -2.860793   -0.788132   -1.853544
     11          1           0       -1.880764   -3.091911   -1.742954
     12          7           0       -2.660101    1.113796    0.003990
     13          8           0       -3.299469    1.405775   -1.004272
     14          8           0       -2.464636    1.861810    0.959452
     15          6           0        3.044922    0.057599   -0.287350
     16          6           0        2.600714   -1.344348    0.131229
     17          6           0        3.622078   -2.421847   -0.234295
     18          1           0        3.221894    0.070818   -1.371533
     19          1           0        4.007961    0.287130    0.189375
     20          1           0        1.638125   -1.570624   -0.345046
     21          1           0        2.424594   -1.354181    1.214511
     22          1           0        4.582345   -2.223455    0.252664
     23          1           0        3.791407   -2.441127   -1.315755
     24          1           0        3.284383   -3.416218    0.074005
     25          6           0        2.034321    1.145622    0.071285
     26          6           0        2.478529    2.547570   -0.347294
     27          6           0        1.457165    3.625068    0.018228
     28          1           0        1.071281    0.916091   -0.405439
     29          1           0        1.857348    1.132403    1.155467
     30          1           0        2.654649    2.557402   -1.430577
     31          1           0        3.441118    2.773845    0.128981
     32          1           0        1.287836    3.644349    1.099689
     33          1           0        0.496898    3.426676   -0.468729
     34          1           0        1.794860    4.619439   -0.290071
 ---------------------------------------------------------------------

 SCF Done:  E(RHF) =  -669.534297654     A.U. after   15 cycles
 E2 =    -0.2094892012D+01 EUMP2 =    -0.67162918966556D+03

 The electronic state is 1-A.
 Alpha  occ. eigenvalues --  -20.60837 -20.60818 -15.85879 -11.31250 -11.27818
 Alpha  occ. eigenvalues --  -11.27769 -11.27523 -11.26842 -11.26775 -11.21848
 Alpha  occ. eigenvalues --  -11.21523 -11.21515 -11.21403 -11.21341 -11.20554
 Alpha  occ. eigenvalues --   -1.59903  -1.39454  -1.19425  -1.08826  -1.08490
 Alpha  occ. eigenvalues --   -1.04816  -1.03554  -0.95995  -0.95646  -0.87007
 Alpha  occ. eigenvalues --   -0.86210  -0.82474  -0.79651  -0.78306  -0.77511
 Alpha  occ. eigenvalues --   -0.72092  -0.71227  -0.70516  -0.65154  -0.65052
 Alpha  occ. eigenvalues --   -0.64814  -0.62158  -0.60957  -0.59443  -0.57601
 Alpha  occ. eigenvalues --   -0.55316  -0.55266  -0.53295  -0.52911  -0.52639
 Alpha  occ. eigenvalues --   -0.52407  -0.49930  -0.48856  -0.48849  -0.47937
 Alpha  occ. eigenvalues --   -0.46680  -0.45825  -0.45693  -0.44829  -0.43814
 Alpha  occ. eigenvalues --   -0.37321  -0.36339
 Alpha virt. eigenvalues --    0.04972   0.11202   0.16381   0.20736   0.22948
 Alpha virt. eigenvalues --    0.24109   0.25618   0.26827   0.27484   0.28527
 Alpha virt. eigenvalues --    0.28751   0.29983   0.31338   0.31615   0.32266

 Mulliken charges:
               1
     1  C   -0.173047
     2  C   -0.211908
     3  C   -0.168638
     4  C    0.158255
     5  C   -0.172476
     6  C   -0.218642
     7  H    0.226320
     8  H    0.224096
     9  H    0.275698
    10  H    0.275735
    11  H    0.223832
    12  N    0.487524
    13  O   -0.460679
    14  O   -0.459317
    15  C   -0.297569
    16  C   -0.304270
    17  C   -0.474754
    18  H    0.150052
    19  H    0.149203
    20  H    0.160283
    21  H    0.142928
    22  H    0.156823
    23  H    0.156356
    24  H    0.152646
    25  C   -0.298314
    26  C   -0.300483
    27  C   -0.475989
    28  H    0.150801
    29  H    0.145112
    30  H    0.151317
    31  H    0.150092
    32  H    0.156430
    33  H    0.163145
    34  H    0.159437
 Sum of Mulliken charges =  -0.00000

 Dipole moment (field-independent basis, Debye):
    X=              1.9111    Y=             -4.7116    Z=              0.2335  Tot=              5.0898
 Quadrupole moment (field-independent basis, Debye-Ang):
   XX=           -103.9350   YY=            -93.4887   ZZ=            -90.0451
   XY=             10.7602   XZ=              2.0464   YZ=              0.6261

 Normal termination of Gaussian 16 at Thu May  6 11:07:06 2021.
