 Gaussian 16, Revision A.03,
 Gaussian 16:  EM64L-G16RevA.03 25-Dec-2016

 -------------
 #p 6-31g* mp2
 -------------

 ------------------------------------------------------
 Input file generated by CHIRIPA (05-May-2021 14:53:13)
 ------------------------------------------------------
 Symbolic Z-matrix:
 Charge =  0 Multiplicity = 1

                         Standard orientation:
 ---------------------------------------------------------------------
 Center     Atomic      Atomic             Coordinates (Angstroms)
 Number     Number       Type             X           Y           Z
 ---------------------------------------------------------------------
      1          6           0       -4.917323    0.538491    0.209905
      2          6           0       -5.930994    0.592508   -0.933571
      3          6           0       -6.848814    1.812702   -0.852783
      4          1           0       -5.454905    0.531934    1.167980
      5          1           0       -4.311852    1.455359    0.197497
      6          1           0       -6.533451   -0.324810   -0.919856
      7          1           0       -5.390942    0.598745   -1.889040
      8          1           0       -6.264173    2.737612   -0.889346
      9          1           0       -7.413173    1.808809    0.085346
     10          1           0       -7.565486    1.831444   -1.679760
     11          6           0       -3.992650   -0.675684    0.142930
     12          6           0       -2.978979   -0.729701    1.286406
     13          6           0       -2.061159   -1.949895    1.205618
     14          1           0       -4.598121   -1.592551    0.155338
     15          1           0       -3.455068   -0.669126   -0.815145
     16          1           0       -3.519031   -0.735938    2.241875
     17          1           0       -2.376523    0.187618    1.272691
     18          1           0       -1.496800   -1.946002    0.267489
     19          1           0       -2.645800   -2.874805    1.242181
     20          1           0       -1.344487   -1.968637    2.032595
     21          6           0        5.140455    1.895878    0.327266
     22          6           0        3.842126    1.977296    0.841301
     23          6           0        2.914044    0.962384    0.589973
     24          6           0        3.319976   -0.124515   -0.182790
     25          6           0        4.606211   -0.234440   -0.708911
     26          6           0        5.517689    0.792216   -0.444839
     27          1           0        5.854962    2.688847    0.527453
     28          1           0        3.546379    2.833239    1.441250
     29          1           0        1.902460    0.999996    0.975589
     30          1           0        4.871709   -1.100071   -1.303564
     31          1           0        6.525313    0.726321   -0.845338
     32          7           0        2.346246   -1.205173   -0.455605
     33          8           0        2.728625   -2.152276   -1.139286
     34          8           0        1.219096   -1.084627    0.019407
 ---------------------------------------------------------------------

 SCF Done:  E(RHF) =  -669.535805830     A.U. after   15 cycles
 E2 =    -0.2090840426D+01 EUMP2 =    -0.67162664625533D+03

 The electronic state is 1-A.
 Alpha  occ. eigenvalues --  -20.60905 -20.60900 -15.85944 -11.31281 -11.27847
 Alpha  occ. eigenvalues --  -11.27843 -11.27586 -11.26857 -11.26847 -11.21114
 Alpha  occ. eigenvalues --  -11.20789 -11.20701 -11.20601 -11.20531 -11.19497
 Alpha  occ. eigenvalues --   -1.59973  -1.39528  -1.19451  -1.08853  -1.07693
 Alpha  occ. eigenvalues --   -1.04850  -1.02703  -0.95696  -0.95119  -0.86251
 Alpha  occ. eigenvalues --   -0.86131  -0.82525  -0.78804  -0.77578  -0.77476
 Alpha  occ. eigenvalues --   -0.72172  -0.71289  -0.70560  -0.65108  -0.64853
 Alpha  occ. eigenvalues --   -0.64326  -0.62197  -0.60089  -0.58564  -0.56740
 Alpha  occ. eigenvalues --   -0.55354  -0.54392  -0.53181  -0.52942  -0.51802
 Alpha  occ. eigenvalues --   -0.51552  -0.49218  -0.48921  -0.48747  -0.47095
 Alpha  occ. eigenvalues --   -0.45835  -0.45018  -0.44936  -0.44913  -0.42966
 Alpha  occ. eigenvalues --   -0.37431  -0.36452
 Alpha virt. eigenvalues --    0.04952   0.11203   0.16447   0.21300   0.23536
 Alpha virt. eigenvalues --    0.25098   0.27158   0.27375   0.28071   0.28313
 Alpha virt. eigenvalues --    0.29001   0.30888   0.32031   0.32446   0.32730

 Mulliken charges:
               1
     1  C   -0.297243
     2  C   -0.299157
     3  C   -0.475175
     4  H    0.147688
     5  H    0.146856
     6  H    0.151652
     7  H    0.151976
     8  H    0.153654
     9  H    0.154229
    10  H    0.158946
    11  C   -0.298177
    12  C   -0.298693
    13  C   -0.476949
    14  H    0.148182
    15  H    0.152105
    16  H    0.145700
    17  H    0.147636
    18  H    0.179077
    19  H    0.146764
    20  H    0.157967
    21  C   -0.170656
    22  C   -0.218533
    23  C   -0.170983
    24  C    0.157731
    25  C   -0.170581
    26  C   -0.218587
    27  H    0.225942
    28  H    0.223804
    29  H    0.275673
    30  H    0.275852
    31  H    0.223762
    32  N    0.492047
    33  O   -0.459411
    34  O   -0.463100
 Sum of Mulliken charges =  -0.00000

 Dipole moment (field-independent basis, Debye):
    X=              3.7341    Y=              3.7466    Z=              0.8721  Tot=              5.3611
 Quadrupole moment (field-independent basis, Debye-Ang):
   XX=            -71.0485   YY=            -95.5106   ZZ=            -94.2876
   XY=             11.6179   XZ=              0.2858   YZ=              0.6882

 Normal termination of Gaussian 16 at Thu May  6 08:55:32 2021.
