 Gaussian 16, Revision A.03,
 Gaussian 16:  EM64L-G16RevA.03 25-Dec-2016

 -------------
 #p 6-31g* mp2
 -------------

 ------------------------------------------------------
 Input file generated by CHIRIPA (05-May-2021 14:51:09)
 ------------------------------------------------------
 Symbolic Z-matrix:
 Charge =  0 Multiplicity = 1

                         Standard orientation:
 ---------------------------------------------------------------------
 Center     Atomic      Atomic             Coordinates (Angstroms)
 Number     Number       Type             X           Y           Z
 ---------------------------------------------------------------------
      1          6           0       -2.345708   -0.095494    0.722316
      2          6           0       -2.446499   -1.621210    0.726139
      3          6           0       -2.551473   -2.203185    2.136132
      4          1           0       -1.470592    0.209289    1.312420
      5          1           0       -3.225830    0.324425    1.228724
      6          1           0       -1.567129   -2.038084    0.218654
      7          1           0       -3.321368   -1.922404    0.135797
      8          1           0       -3.437966   -1.815058    2.648078
      9          1           0       -1.673760   -1.931395    2.731406
     10          1           0       -2.622505   -3.295150    2.115480
     11          6           0       -2.240128    0.501153   -0.680037
     12          6           0       -2.139337    2.026870   -0.683860
     13          6           0       -2.034363    2.608844   -2.093853
     14          1           0       -1.360006    0.081234   -1.186445
     15          1           0       -3.115244    0.196370   -1.270142
     16          1           0       -1.264468    2.328063   -0.093519
     17          1           0       -3.018707    2.443743   -0.176375
     18          1           0       -2.912076    2.337054   -2.689127
     19          1           0       -1.147870    2.220717   -2.605800
     20          1           0       -1.963331    3.700809   -2.073202
     21          6           0        2.182825    0.157050    0.643539
     22          6           0        2.855399    1.528666    0.709116
     23          6           0        2.626099    2.236239    2.044988
     24          1           0        1.104490    0.275842    0.816825
     25          1           0        2.563685   -0.469832    1.461684
     26          1           0        2.474407    2.152310   -0.109741
     27          1           0        3.932230    1.406617    0.535465
     28          1           0        3.022455    1.637219    2.871232
     29          1           0        1.556348    2.387150    2.222359
     30          1           0        3.115532    3.214852    2.070156
     31          6           0        2.403010   -0.562709   -0.685818
     32          6           0        1.730436   -1.934325   -0.751394
     33          6           0        1.959738   -2.641898   -2.087267
     34          1           0        2.022151    0.064172   -1.503963
     35          1           0        3.481345   -0.681500   -0.859103
     36          1           0        0.653605   -1.812276   -0.577744
     37          1           0        2.111429   -2.557970    0.067463
     38          1           0        3.029488   -2.792809   -2.264638
     39          1           0        1.563382   -2.042878   -2.913510
     40          1           0        1.470305   -3.620511   -2.112435
 ---------------------------------------------------------------------

 SCF Done:  E(RHF) =  -470.733105929     A.U. after   11 cycles
 E2 =    -0.1584829731D+01 EUMP2 =    -0.47231793566042D+03

 The electronic state is 1-A.
 Alpha  occ. eigenvalues --  -11.21677 -11.21660 -11.21653 -11.21613 -11.21477
 Alpha  occ. eigenvalues --  -11.21469 -11.21418 -11.21405 -11.21135 -11.21125
 Alpha  occ. eigenvalues --  -11.21118 -11.21072  -1.08544  -1.08449  -1.03602
 Alpha  occ. eigenvalues --   -1.03563  -0.96046  -0.96015  -0.87054  -0.87039
 Alpha  occ. eigenvalues --   -0.79713  -0.79592  -0.78330  -0.78297  -0.65516
 Alpha  occ. eigenvalues --   -0.64765  -0.61113  -0.60866  -0.59429  -0.59366
 Alpha  occ. eigenvalues --   -0.57651  -0.57634  -0.55414  -0.55227  -0.52732
 Alpha  occ. eigenvalues --   -0.52710  -0.52484  -0.52426  -0.49996  -0.49976
 Alpha  occ. eigenvalues --   -0.48100  -0.47900  -0.46925  -0.46545  -0.46202
 Alpha  occ. eigenvalues --   -0.45811  -0.45620  -0.45367  -0.43847  -0.43827
 Alpha virt. eigenvalues --    0.18385   0.22340   0.23190   0.24571   0.25471
 Alpha virt. eigenvalues --    0.26947   0.27230   0.27676   0.27849   0.30589
 Alpha virt. eigenvalues --    0.30878   0.31506   0.31720   0.31904   0.32492

 Mulliken charges:
               1
     1  C   -0.301979
     2  C   -0.306989
     3  C   -0.475410
     4  H    0.152519
     5  H    0.150250
     6  H    0.158626
     7  H    0.152187
     8  H    0.155109
     9  H    0.155771
    10  H    0.160308
    11  C   -0.301367
    12  C   -0.300378
    13  C   -0.475646
    14  H    0.151223
    15  H    0.150357
    16  H    0.151721
    17  H    0.152533
    18  H    0.155561
    19  H    0.154668
    20  H    0.160624
    21  C   -0.305239
    22  C   -0.299591
    23  C   -0.476056
    24  H    0.155250
    25  H    0.149792
    26  H    0.152097
    27  H    0.152373
    28  H    0.155414
    29  H    0.154873
    30  H    0.160704
    31  C   -0.297329
    32  C   -0.310934
    33  C   -0.475139
    34  H    0.149010
    35  H    0.150278
    36  H    0.161429
    37  H    0.152250
    38  H    0.155512
    39  H    0.155104
    40  H    0.160513
 Sum of Mulliken charges =  -0.00000

 Dipole moment (field-independent basis, Debye):
    X=             -0.0009    Y=             -0.0091    Z=              0.0031  Tot=              0.0097
 Quadrupole moment (field-independent basis, Debye-Ang):
   XX=            -82.9224   YY=            -85.2745   ZZ=            -86.3673
   XY=             -0.4557   XZ=              0.5493   YZ=             -0.2067

 Normal termination of Gaussian 16 at Wed May  5 18:09:31 2021.
