 Gaussian 16, Revision A.03,
 Gaussian 16:  EM64L-G16RevA.03 25-Dec-2016

 -------------
 #p 6-31g* mp2
 -------------

 ------------------------------------------------------
 Input file generated by CHIRIPA (05-May-2021 14:55:23)
 ------------------------------------------------------
 Symbolic Z-matrix:
 Charge =  0 Multiplicity = 1

                         Standard orientation:
 ---------------------------------------------------------------------
 Center     Atomic      Atomic             Coordinates (Angstroms)
 Number     Number       Type             X           Y           Z
 ---------------------------------------------------------------------
      1          6           0        3.055015    2.692715   -0.022156
      2          6           0        3.039892    1.952175   -1.208703
      3          6           0        2.758946    0.582808   -1.187475
      4          6           0        2.496475   -0.016531    0.043456
      5          6           0        2.504090    0.694202    1.242660
      6          6           0        2.787537    2.062476    1.197588
      7          1           0        3.274233    3.756048   -0.047908
      8          1           0        3.247247    2.438983   -2.157422
      9          1           0        2.740663   -0.014392   -2.091043
     10          1           0        2.293466    0.181072    2.173118
     11          1           0        2.798592    2.635085    2.120649
     12          7           0        2.197726   -1.465640    0.078550
     13          8           0        1.969800   -1.970141    1.175895
     14          8           0        2.197149   -2.069512   -0.991952
     15          6           0       -2.956701   -0.906397    0.276804
     16          6           0       -1.870806   -1.568005   -0.572365
     17          6           0       -1.276647   -2.810748    0.091232
     18          1           0       -2.534666   -0.635540    1.254284
     19          1           0       -3.754849   -1.635888    0.472249
     20          1           0       -1.075603   -0.837072   -0.767312
     21          1           0       -2.295425   -1.837146   -1.548007
     22          1           0       -2.054030   -3.560383    0.271020
     23          1           0       -0.827277   -2.554626    1.056151
     24          1           0       -0.502451   -3.267822   -0.532920
     25          6           0       -3.560322    0.337310   -0.373244
     26          6           0       -4.646218    0.998919    0.475924
     27          6           0       -5.240377    2.241662   -0.187672
     28          1           0       -2.762175    1.066802   -0.568689
     29          1           0       -3.982358    0.066454   -1.350724
     30          1           0       -4.221599    1.268060    1.451567
     31          1           0       -5.441421    0.267985    0.670871
     32          1           0       -5.689747    1.985540   -1.152592
     33          1           0       -4.462994    2.991296   -0.367460
     34          1           0       -6.014572    2.698735    0.436481
 ---------------------------------------------------------------------

 SCF Done:  E(RHF) =  -669.536084158     A.U. after   15 cycles
 E2 =    -0.2092619960D+01 EUMP2 =    -0.67162870411793D+03

 The electronic state is 1-A.
 Alpha  occ. eigenvalues --  -20.60972 -20.60963 -15.85976 -11.31318 -11.27874
 Alpha  occ. eigenvalues --  -11.27869 -11.27607 -11.26878 -11.26868 -11.21370
 Alpha  occ. eigenvalues --  -11.21027 -11.20946 -11.20811 -11.20743 -11.19518
 Alpha  occ. eigenvalues --   -1.60012  -1.39571  -1.19479  -1.08881  -1.07925
 Alpha  occ. eigenvalues --   -1.04873  -1.02905  -0.95729  -0.95305  -0.86321
 Alpha  occ. eigenvalues --   -0.86273  -0.82557  -0.79008  -0.77701  -0.77611
 Alpha  occ. eigenvalues --   -0.72208  -0.71345  -0.70584  -0.65133  -0.64875
 Alpha  occ. eigenvalues --   -0.64568  -0.62220  -0.60311  -0.58751  -0.56903
 Alpha  occ. eigenvalues --   -0.55378  -0.54613  -0.53208  -0.52964  -0.51951
 Alpha  occ. eigenvalues --   -0.51740  -0.49375  -0.48968  -0.48845  -0.47296
 Alpha  occ. eigenvalues --   -0.46124  -0.45297  -0.45229  -0.44736  -0.43126
 Alpha  occ. eigenvalues --   -0.37449  -0.36474
 Alpha virt. eigenvalues --    0.04881   0.11174   0.16337   0.21311   0.23251
 Alpha virt. eigenvalues --    0.24907   0.27021   0.27233   0.27880   0.28159
 Alpha virt. eigenvalues --    0.28910   0.30877   0.31890   0.32128   0.32418

 Mulliken charges:
               1
     1  C   -0.170572
     2  C   -0.218535
     3  C   -0.171050
     4  C    0.158866
     5  C   -0.171193
     6  C   -0.218604
     7  H    0.226127
     8  H    0.224038
     9  H    0.276238
    10  H    0.275671
    11  H    0.223897
    12  N    0.489824
    13  O   -0.458015
    14  O   -0.459626
    15  C   -0.297048
    16  C   -0.298316
    17  C   -0.485385
    18  H    0.147558
    19  H    0.149262
    20  H    0.142486
    21  H    0.149394
    22  H    0.146869
    23  H    0.165422
    24  H    0.179056
    25  C   -0.297216
    26  C   -0.298934
    27  C   -0.475127
    28  H    0.146107
    29  H    0.149067
    30  H    0.150288
    31  H    0.152367
    32  H    0.155141
    33  H    0.152821
    34  H    0.159122
 Sum of Mulliken charges =  -0.00000

 Dipole moment (field-independent basis, Debye):
    X=              1.3224    Y=              5.0002    Z=             -0.1023  Tot=              5.1731
 Quadrupole moment (field-independent basis, Debye-Ang):
   XX=            -90.5859   YY=            -95.7729   ZZ=            -89.7259
   XY=             13.8287   XZ=             -0.7640   YZ=              1.0680

 Normal termination of Gaussian 16 at Wed May  5 19:04:15 2021.
