 Gaussian 16, Revision A.03,
 Gaussian 16:  EM64L-G16RevA.03 25-Dec-2016

 -------------
 #p 6-31g* mp2
 -------------

 ------------------------------------------------------
 Input file generated by CHIRIPA (05-May-2021 14:53:18)
 ------------------------------------------------------
 Symbolic Z-matrix:
 Charge =  0 Multiplicity = 1

                         Standard orientation:
 ---------------------------------------------------------------------
 Center     Atomic      Atomic             Coordinates (Angstroms)
 Number     Number       Type             X           Y           Z
 ---------------------------------------------------------------------
      1          6           0       -2.515750    1.231251   -0.442914
      2          6           0       -2.086406    2.085753    0.750180
      3          6           0       -1.546424    3.454154    0.333414
      4          1           0       -1.659297    1.098925   -1.118134
      5          1           0       -3.283673    1.771021   -1.014172
      6          1           0       -1.320516    1.543939    1.319800
      7          1           0       -2.943930    2.215900    1.422734
      8          1           0       -2.307509    4.017584   -0.216039
      9          1           0       -0.674871    3.341804   -0.319559
     10          1           0       -1.245386    4.048418    1.201795
     11          6           0       -3.057810   -0.139686   -0.042373
     12          6           0       -3.487154   -0.994189   -1.235467
     13          6           0       -4.027135   -2.362589   -0.818701
     14          1           0       -2.289887   -0.679457    0.528886
     15          1           0       -3.914263   -0.007360    0.632847
     16          1           0       -2.629630   -1.124335   -1.908021
     17          1           0       -4.253043   -0.452374   -1.805086
     18          1           0       -4.898689   -2.250240   -0.165728
     19          1           0       -3.266051   -2.926019   -0.269248
     20          1           0       -4.328173   -2.956853   -1.687082
     21          6           0        0.691601   -1.821422    1.677145
     22          6           0        1.494999   -2.439054    0.712986
     23          6           0        2.322009   -1.676044   -0.116725
     24          6           0        2.320791   -0.291526    0.045752
     25          6           0        1.531769    0.353201    0.997098
     26          6           0        0.712513   -0.429719    1.815879
     27          1           0        0.052172   -2.421880    2.317439
     28          1           0        1.480798   -3.519677    0.603000
     29          1           0        2.954052   -2.128283   -0.871323
     30          1           0        1.567417    1.432437    1.083102
     31          1           0        0.089640    0.052657    2.563801
     32          7           0        3.192205    0.526777   -0.826841
     33          8           0        3.172988    1.744836   -0.663746
     34          8           0        3.877937   -0.065390   -1.657352
 ---------------------------------------------------------------------

 SCF Done:  E(RHF) =  -669.534973071     A.U. after   15 cycles
 E2 =    -0.2093922043D+01 EUMP2 =    -0.67162889511437D+03

 The electronic state is 1-A.
 Alpha  occ. eigenvalues --  -20.60863 -20.60858 -15.85916 -11.31314 -11.27873
 Alpha  occ. eigenvalues --  -11.27870 -11.27625 -11.26900 -11.26888 -11.22024
 Alpha  occ. eigenvalues --  -11.21922 -11.21737 -11.21655 -11.21489 -11.21316
 Alpha  occ. eigenvalues --   -1.59937  -1.39490  -1.19492  -1.08891  -1.08768
 Alpha  occ. eigenvalues --   -1.04903  -1.03889  -0.96320  -0.95705  -0.87334
 Alpha  occ. eigenvalues --   -0.86290  -0.82548  -0.79965  -0.78619  -0.77571
 Alpha  occ. eigenvalues --   -0.72132  -0.71262  -0.70585  -0.65474  -0.65134
 Alpha  occ. eigenvalues --   -0.64874  -0.62306  -0.61227  -0.59692  -0.57942
 Alpha  occ. eigenvalues --   -0.55612  -0.55372  -0.53242  -0.53047  -0.52959
 Alpha  occ. eigenvalues --   -0.52736  -0.50251  -0.48896  -0.48886  -0.48274
 Alpha  occ. eigenvalues --   -0.46998  -0.46140  -0.46057  -0.44887  -0.44127
 Alpha  occ. eigenvalues --   -0.37443  -0.36430
 Alpha virt. eigenvalues --    0.04907   0.11045   0.16264   0.20294   0.22881
 Alpha virt. eigenvalues --    0.23578   0.25771   0.26627   0.27123   0.28278
 Alpha virt. eigenvalues --    0.28880   0.30079   0.31282   0.31580   0.32307

 Mulliken charges:
               1
     1  C   -0.297405
     2  C   -0.303541
     3  C   -0.479428
     4  H    0.153643
     5  H    0.151623
     6  H    0.143508
     7  H    0.151308
     8  H    0.158328
     9  H    0.162565
    10  H    0.158799
    11  C   -0.301072
    12  C   -0.299849
    13  C   -0.475034
    14  H    0.146976
    15  H    0.147913
    16  H    0.154305
    17  H    0.153643
    18  H    0.155162
    19  H    0.150200
    20  H    0.161895
    21  C   -0.172519
    22  C   -0.218760
    23  C   -0.170933
    24  C    0.157598
    25  C   -0.170871
    26  C   -0.217442
    27  H    0.226902
    28  H    0.224219
    29  H    0.276112
    30  H    0.278003
    31  H    0.226168
    32  N    0.488054
    33  O   -0.460162
    34  O   -0.459906
 Sum of Mulliken charges =  -0.00000

 Dipole moment (field-independent basis, Debye):
    X=             -3.0065    Y=             -2.8684    Z=              2.9800  Tot=              5.1134
 Quadrupole moment (field-independent basis, Debye-Ang):
   XX=           -108.5423   YY=            -90.5472   ZZ=            -94.0010
   XY=             -8.2933   XZ=              6.4540   YZ=              1.0793

 Normal termination of Gaussian 16 at Wed May  5 18:49:14 2021.
