 Gaussian 16, Revision A.03,
 Gaussian 16:  EM64L-G16RevA.03 25-Dec-2016

 -------------
 #p 6-31g* mp2
 -------------

 ------------------------------------------------------
 Input file generated by CHIRIPA (05-May-2021 14:51:14)
 ------------------------------------------------------
 Symbolic Z-matrix:
 Charge =  0 Multiplicity = 1

                         Standard orientation:
 ---------------------------------------------------------------------
 Center     Atomic      Atomic             Coordinates (Angstroms)
 Number     Number       Type             X           Y           Z
 ---------------------------------------------------------------------
      1          6           0       -3.844165    0.638347   -0.312976
      2          6           0       -4.148988    1.955468    0.401349
      3          6           0       -4.646912    3.043027   -0.551059
      4          1           0       -3.091557    0.817279   -1.093046
      5          1           0       -4.750551    0.289853   -0.827185
      6          1           0       -3.242672    2.300665    0.915202
      7          1           0       -4.900817    1.773342    1.179937
      8          1           0       -5.565001    2.723353   -1.054568
      9          1           0       -3.897434    3.253672   -1.320807
     10          1           0       -4.858739    3.975983   -0.019474
     11          6           0       -3.345389   -0.458690    0.625887
     12          6           0       -3.040566   -1.775811   -0.088438
     13          6           0       -2.542642   -2.863371    0.863970
     14          1           0       -2.439003   -0.110196    1.140096
     15          1           0       -4.097997   -0.637622    1.405957
     16          1           0       -2.288737   -1.593685   -0.867026
     17          1           0       -3.946882   -2.121008   -0.602291
     18          1           0       -3.292119   -3.074015    1.633718
     19          1           0       -1.624553   -2.543696    1.367479
     20          1           0       -2.330815   -3.796327    0.332385
     21          6           0        3.277190   -0.710395   -0.468654
     22          6           0        1.755082   -0.748432   -0.328206
     23          6           0        1.134327   -1.995918   -0.957677
     24          1           0        3.542003   -0.755801   -1.533904
     25          1           0        3.704076   -1.608884   -0.001879
     26          1           0        1.331291    0.150542   -0.793890
     27          1           0        1.493856   -0.702737    0.736824
     28          1           0        1.529442   -2.902089   -0.487209
     29          1           0        1.365952   -2.043962   -2.026621
     30          1           0        0.045612   -2.002669   -0.845815
     31          6           0        3.912364    0.530738    0.155744
     32          6           0        5.434471    0.568775    0.015294
     33          6           0        6.055227    1.816262    0.644766
     34          1           0        3.485477    1.429228   -0.311033
     35          1           0        3.647550    0.576144    1.220993
     36          1           0        5.695698    0.523080   -1.049736
     37          1           0        5.858264   -0.330199    0.480979
     38          1           0        5.823601    1.864305    1.713710
     39          1           0        5.660111    2.722433    0.174298
     40          1           0        7.143943    1.823012    0.532904
 ---------------------------------------------------------------------

 SCF Done:  E(RHF) =  -470.733176886     A.U. after   11 cycles
 E2 =    -0.1582882683D+01 EUMP2 =    -0.47231605956919D+03

 The electronic state is 1-A.
 Alpha  occ. eigenvalues --  -11.21642 -11.21618 -11.21612 -11.21601 -11.21428
 Alpha  occ. eigenvalues --  -11.21408 -11.21368 -11.21349 -11.21085 -11.21072
 Alpha  occ. eigenvalues --  -11.21068 -11.21046  -1.08460  -1.08430  -1.03581
 Alpha  occ. eigenvalues --   -1.03508  -0.96034  -0.95945  -0.87024  -0.86987
 Alpha  occ. eigenvalues --   -0.79631  -0.79583  -0.78269  -0.78247  -0.65098
 Alpha  occ. eigenvalues --   -0.65078  -0.61059  -0.60937  -0.59418  -0.59248
 Alpha  occ. eigenvalues --   -0.57653  -0.57535  -0.55327  -0.55226  -0.52706
 Alpha  occ. eigenvalues --   -0.52633  -0.52430  -0.52384  -0.49977  -0.49881
 Alpha  occ. eigenvalues --   -0.47999  -0.47852  -0.46654  -0.46623  -0.45816
 Alpha  occ. eigenvalues --   -0.45787  -0.45734  -0.45702  -0.43805  -0.43755
 Alpha virt. eigenvalues --    0.20699   0.23103   0.23635   0.25283   0.26444
 Alpha virt. eigenvalues --    0.26475   0.27108   0.27560   0.27869   0.28912
 Alpha virt. eigenvalues --    0.30669   0.31098   0.31404   0.31805   0.32149

 Mulliken charges:
               1
     1  C   -0.298323
     2  C   -0.299723
     3  C   -0.475700
     4  H    0.149694
     5  H    0.149541
     6  H    0.152114
     7  H    0.151929
     8  H    0.155177
     9  H    0.155125
    10  H    0.160269
    11  C   -0.298323
    12  C   -0.305323
    13  C   -0.476919
    14  H    0.149934
    15  H    0.149791
    16  H    0.155186
    17  H    0.152662
    18  H    0.155456
    19  H    0.156262
    20  H    0.160915
    21  C   -0.298301
    22  C   -0.299379
    23  C   -0.485298
    24  H    0.149803
    25  H    0.149763
    26  H    0.151259
    27  H    0.151313
    28  H    0.155565
    29  H    0.154847
    30  H    0.170641
    31  C   -0.298261
    32  C   -0.299674
    33  C   -0.475721
    34  H    0.149406
    35  H    0.149603
    36  H    0.151985
    37  H    0.152014
    38  H    0.155196
    39  H    0.155168
    40  H    0.160329
 Sum of Mulliken charges =  -0.00000

 Dipole moment (field-independent basis, Debye):
    X=             -0.0097    Y=             -0.0107    Z=              0.0037  Tot=              0.0150
 Quadrupole moment (field-independent basis, Debye-Ang):
   XX=            -84.3148   YY=            -85.9292   ZZ=            -84.4475
   XY=              0.0992   XZ=             -0.5187   YZ=             -0.3565

 Normal termination of Gaussian 16 at Thu May  6 05:37:28 2021.
