 Gaussian 16, Revision A.03,
 Gaussian 16:  EM64L-G16RevA.03 25-Dec-2016

 -------------
 #p 6-31g* mp2
 -------------

 ------------------------------------------------------
 Input file generated by CHIRIPA (05-May-2021 14:53:12)
 ------------------------------------------------------
 Symbolic Z-matrix:
 Charge =  0 Multiplicity = 1

                         Standard orientation:
 ---------------------------------------------------------------------
 Center     Atomic      Atomic             Coordinates (Angstroms)
 Number     Number       Type             X           Y           Z
 ---------------------------------------------------------------------
      1          6           0        3.064846    0.902783    0.147664
      2          6           0        3.436241    2.229053   -0.516458
      3          6           0        2.612852    3.404855    0.010147
      4          1           0        1.996257    0.705585   -0.014121
      5          1           0        3.205178    0.992626    1.233772
      6          1           0        3.296571    2.136295   -1.601126
      7          1           0        4.504113    2.423021   -0.353236
      8          1           0        2.759863    3.525901    1.088264
      9          1           0        1.545459    3.237545   -0.166716
     10          1           0        2.894686    4.342952   -0.478120
     11          6           0        3.879404   -0.282123   -0.368303
     12          6           0        3.508009   -1.608393    0.295820
     13          6           0        4.331398   -2.784195   -0.230785
     14          1           0        3.739072   -0.371967   -1.454411
     15          1           0        4.947994   -0.084926   -0.206517
     16          1           0        2.440137   -1.802361    0.132598
     17          1           0        3.647680   -1.515635    1.380487
     18          1           0        5.398792   -2.616886   -0.053923
     19          1           0        4.184388   -2.905241   -1.308902
     20          1           0        4.049565   -3.722292    0.257482
     21          6           0       -5.091771    0.242492   -0.599592
     22          6           0       -4.699225    0.410080    0.732452
     23          6           0       -3.383611    0.144377    1.123747
     24          6           0       -2.482589   -0.289327    0.152486
     25          6           0       -2.843251   -0.465867   -1.182448
     26          6           0       -4.164167   -0.194178   -1.551113
     27          1           0       -6.115831    0.451220   -0.894770
     28          1           0       -5.417472    0.749076    1.473565
     29          1           0       -3.052856    0.265675    2.148103
     30          1           0       -2.104685   -0.805121   -1.898579
     31          1           0       -4.466208   -0.325214   -2.586316
     32          7           0       -1.087000   -0.573783    0.554753
     33          8           0       -0.312264   -0.954759   -0.320047
     34          8           0       -0.794302   -0.410380    1.737235
 ---------------------------------------------------------------------

 SCF Done:  E(RHF) =  -669.536753188     A.U. after   15 cycles
 E2 =    -0.2092221082D+01 EUMP2 =    -0.67162897426991D+03

 The electronic state is 1-A.
 Alpha  occ. eigenvalues --  -20.61187 -20.61171 -15.86175 -11.31427 -11.27977
 Alpha  occ. eigenvalues --  -11.27970 -11.27699 -11.26962 -11.26953 -11.20475
 Alpha  occ. eigenvalues --  -11.20195 -11.19904 -11.19788 -11.19730 -11.19713
 Alpha  occ. eigenvalues --   -1.60216  -1.39775  -1.19583  -1.09002  -1.06956
 Alpha  occ. eigenvalues --   -1.04966  -1.02199  -0.95854  -0.94688  -0.86370
 Alpha  occ. eigenvalues --   -0.85719  -0.82692  -0.78243  -0.77755  -0.76712
 Alpha  occ. eigenvalues --   -0.72390  -0.71520  -0.70690  -0.65240  -0.64969
 Alpha  occ. eigenvalues --   -0.63581  -0.62312  -0.59604  -0.58073  -0.56282
 Alpha  occ. eigenvalues --   -0.55473  -0.53995  -0.53300  -0.53056  -0.51450
 Alpha  occ. eigenvalues --   -0.51115  -0.49230  -0.49144  -0.48659  -0.46576
 Alpha  occ. eigenvalues --   -0.45387  -0.45070  -0.44291  -0.43966  -0.42406
 Alpha  occ. eigenvalues --   -0.37555  -0.36562
 Alpha virt. eigenvalues --    0.04733   0.11095   0.16246   0.21229   0.24302
 Alpha virt. eigenvalues --    0.25512   0.27165   0.27945   0.28238   0.28943
 Alpha virt. eigenvalues --    0.29478   0.30881   0.32343   0.32595   0.33004

 Mulliken charges:
               1
     1  C   -0.305298
     2  C   -0.298578
     3  C   -0.473520
     4  H    0.170112
     5  H    0.147429
     6  H    0.147899
     7  H    0.147574
     8  H    0.154764
     9  H    0.152286
    10  H    0.154881
    11  C   -0.295175
    12  C   -0.309627
    13  C   -0.474682
    14  H    0.144853
    15  H    0.141817
    16  H    0.180334
    17  H    0.148264
    18  H    0.149199
    19  H    0.151130
    20  H    0.156647
    21  C   -0.170227
    22  C   -0.218622
    23  C   -0.170338
    24  C    0.158058
    25  C   -0.170638
    26  C   -0.218553
    27  H    0.226543
    28  H    0.224365
    29  H    0.276316
    30  H    0.275870
    31  H    0.224313
    32  N    0.488878
    33  O   -0.460137
    34  O   -0.456137
 Sum of Mulliken charges =  -0.00000

 Dipole moment (field-independent basis, Debye):
    X=             -5.4632    Y=              0.8989    Z=             -1.3271  Tot=              5.6935
 Quadrupole moment (field-independent basis, Debye-Ang):
   XX=            -72.1340   YY=            -97.6915   ZZ=            -90.3726
   XY=             -0.8867   XZ=              2.5434   YZ=              1.8669

 Normal termination of Gaussian 16 at Thu May  6 10:26:19 2021.
