 Gaussian 16, Revision A.03,
 Gaussian 16:  EM64L-G16RevA.03 25-Dec-2016

 -------------
 #p 6-31g* mp2
 -------------

 ------------------------------------------------------
 Input file generated by CHIRIPA (05-May-2021 14:57:22)
 ------------------------------------------------------
 Symbolic Z-matrix:
 Charge =  0 Multiplicity = 1

                         Standard orientation:
 ---------------------------------------------------------------------
 Center     Atomic      Atomic             Coordinates (Angstroms)
 Number     Number       Type             X           Y           Z
 ---------------------------------------------------------------------
      1          6           0       -2.037800   -1.952096    1.400903
      2          6           0       -1.672614   -1.596194    0.098408
      3          6           0       -2.358216   -0.583939   -0.579706
      4          6           0       -3.408746    0.054390    0.077722
      5          6           0       -3.796346   -0.277529    1.374983
      6          6           0       -3.096634   -1.292790    2.033918
      7          1           0       -1.499727   -2.739607    1.920229
      8          1           0       -0.850718   -2.106504   -0.395673
      9          1           0       -2.096464   -0.288404   -1.588450
     10          1           0       -4.619954    0.249254    1.841447
     11          1           0       -3.382439   -1.567091    3.045411
     12          7           0       -4.142032    1.127610   -0.630014
     13          8           0       -5.063919    1.674714   -0.028817
     14          8           0       -3.781008    1.401375   -1.772535
     15          6           0        4.338915    1.900510    1.254742
     16          6           0        3.242687    2.215186    0.444939
     17          6           0        2.652357    1.238018   -0.362031
     18          6           0        3.186283   -0.049404   -0.334460
     19          6           0        4.277571   -0.393932    0.461579
     20          6           0        4.851955    0.599249    1.260468
     21          1           0        4.791304    2.665817    1.878477
     22          1           0        2.842148    3.224925    0.438470
     23          1           0        1.802889    1.454269   -0.998473
     24          1           0        4.654656   -1.409316    0.446718
     25          1           0        5.703216    0.352000    1.888374
     26          7           0        2.569768   -1.092363   -1.184485
     27          8           0        3.058894   -2.219131   -1.142204
     28          8           0        1.609091   -0.763320   -1.876921
 ---------------------------------------------------------------------

 SCF Done:  E(RHF) =  -868.340116892     A.U. after   16 cycles
 E2 =    -0.2598644127D+01 EUMP2 =    -0.87093876101934D+03

 The electronic state is 1-A.
 Alpha  occ. eigenvalues --  -20.61608 -20.61590 -20.60381 -20.60371 -15.86624
 Alpha  occ. eigenvalues --  -15.85423 -11.31709 -11.30646 -11.28260 -11.28219
 Alpha  occ. eigenvalues --  -11.27935 -11.27244 -11.27209 -11.27164 -11.27071
 Alpha  occ. eigenvalues --  -11.26900 -11.26258 -11.25990  -1.60672  -1.59459
 Alpha  occ. eigenvalues --   -1.40229  -1.39014  -1.19858  -1.18797  -1.09306
 Alpha  occ. eigenvalues --   -1.08226  -1.05213  -1.04144  -0.96184  -0.95083
 Alpha  occ. eigenvalues --   -0.86624  -0.85559  -0.83023  -0.81893  -0.78102
 Alpha  occ. eigenvalues --   -0.76957  -0.72846  -0.71985  -0.71643  -0.70957
 Alpha  occ. eigenvalues --   -0.70784  -0.69905  -0.65510  -0.65207  -0.64432
 Alpha  occ. eigenvalues --   -0.64112  -0.62558  -0.61463  -0.55724  -0.54681
 Alpha  occ. eigenvalues --   -0.53564  -0.53295  -0.52533  -0.52202  -0.49614
 Alpha  occ. eigenvalues --   -0.49583  -0.48406  -0.48388  -0.45686  -0.44450
 Alpha  occ. eigenvalues --   -0.37826  -0.36808  -0.36803  -0.35754
 Alpha virt. eigenvalues --    0.04374   0.05526   0.10853   0.11879   0.15919
 Alpha virt. eigenvalues --    0.17054   0.21016   0.22131   0.26964   0.27633
 Alpha virt. eigenvalues --    0.28304   0.28920   0.30683   0.31690   0.32121

 Mulliken charges:
               1
     1  C   -0.172683
     2  C   -0.225004
     3  C   -0.174058
     4  C    0.157220
     5  C   -0.173187
     6  C   -0.219034
     7  H    0.224651
     8  H    0.240709
     9  H    0.281613
    10  H    0.272791
    11  H    0.220401
    12  N    0.487734
    13  O   -0.463216
    14  O   -0.460505
    15  C   -0.169928
    16  C   -0.218697
    17  C   -0.170200
    18  C    0.156880
    19  C   -0.171447
    20  C   -0.218807
    21  H    0.227773
    22  H    0.227220
    23  H    0.277772
    24  H    0.275181
    25  H    0.224613
    26  N    0.487270
    27  O   -0.459607
    28  O   -0.465453
 Sum of Mulliken charges =  -0.00000

 Dipole moment (field-independent basis, Debye):
    X=              5.1005    Y=             -0.0724    Z=              5.4166  Tot=              7.4404
 Quadrupole moment (field-independent basis, Debye-Ang):
   XX=           -105.9514   YY=           -104.0543   ZZ=           -103.7519
   XY=             22.3039   XZ=             -0.2527   YZ=             -2.0648

 Normal termination of Gaussian 16 at Fri May  7 04:49:21 2021.
