 Gaussian 16, Revision A.03,
 Gaussian 16:  EM64L-G16RevA.03 25-Dec-2016

 -------------
 #p 6-31g* mp2
 -------------

 ------------------------------------------------------
 Input file generated by CHIRIPA (05-May-2021 14:53:12)
 ------------------------------------------------------
 Symbolic Z-matrix:
 Charge =  0 Multiplicity = 1

                         Standard orientation:
 ---------------------------------------------------------------------
 Center     Atomic      Atomic             Coordinates (Angstroms)
 Number     Number       Type             X           Y           Z
 ---------------------------------------------------------------------
      1          6           0       -3.984643   -0.465959    0.740830
      2          6           0       -2.548641   -0.193650    0.291684
      3          6           0       -1.511328   -0.655742    1.315523
      4          1           0       -4.164007    0.038722    1.700033
      5          1           0       -4.105512   -1.542209    0.926497
      6          1           0       -2.430899    0.881581    0.105588
      7          1           0       -2.372734   -0.698880   -0.666656
      8          1           0       -1.599932   -1.732131    1.494789
      9          1           0       -1.658427   -0.142690    2.271420
     10          1           0       -0.491701   -0.451451    0.974221
     11          6           0       -5.033097   -0.009570   -0.272176
     12          6           0       -6.469099   -0.281880    0.176970
     13          6           0       -7.506412    0.180213   -0.846869
     14          1           0       -4.912228    1.066680   -0.457843
     15          1           0       -4.853733   -0.514251   -1.231379
     16          1           0       -6.645006    0.223351    1.135310
     17          1           0       -6.586841   -1.357110    0.363066
     18          1           0       -7.359313   -0.332839   -1.802767
     19          1           0       -7.417808    1.256602   -1.026135
     20          1           0       -8.526039   -0.024078   -0.505568
     21          6           0        1.476529    1.650849   -0.365259
     22          6           0        1.449037    0.344795   -0.865244
     23          6           0        2.576812   -0.475908   -0.769750
     24          6           0        3.720357    0.044113   -0.165454
     25          6           0        3.778885    1.341082    0.342224
     26          6           0        2.639314    2.143956    0.235820
     27          1           0        0.595864    2.281466   -0.443679
     28          1           0        0.547386   -0.040815   -1.332551
     29          1           0        2.583003   -1.490795   -1.148411
     30          1           0        4.692282    1.697480    0.802772
     31          1           0        2.663545    3.157859    0.624996
     32          7           0        4.920526   -0.815290   -0.058584
     33          8           0        5.915674   -0.333514    0.478265
     34          8           0        4.843343   -1.954393   -0.513691
 ---------------------------------------------------------------------

 SCF Done:  E(RHF) =  -669.534996823     A.U. after   15 cycles
 E2 =    -0.2092294711D+01 EUMP2 =    -0.67162729153437D+03

 The electronic state is 1-A.
 Alpha  occ. eigenvalues --  -20.60785 -20.60779 -15.85839 -11.31226 -11.27795
 Alpha  occ. eigenvalues --  -11.27792 -11.27538 -11.26810 -11.26787 -11.22486
 Alpha  occ. eigenvalues --  -11.22071 -11.22038 -11.21939 -11.21611 -11.21479
 Alpha  occ. eigenvalues --   -1.59859  -1.39412  -1.19408  -1.09059  -1.08795
 Alpha  occ. eigenvalues --   -1.04819  -1.04135  -0.96552  -0.95622  -0.87566
 Alpha  occ. eigenvalues --   -0.86204  -0.82454  -0.80222  -0.78868  -0.77500
 Alpha  occ. eigenvalues --   -0.72057  -0.71182  -0.70500  -0.65687  -0.65056
 Alpha  occ. eigenvalues --   -0.64839  -0.62187  -0.61532  -0.59934  -0.58187
 Alpha  occ. eigenvalues --   -0.55822  -0.55296  -0.53568  -0.53095  -0.52930
 Alpha  occ. eigenvalues --   -0.52620  -0.50482  -0.48817  -0.48810  -0.48525
 Alpha  occ. eigenvalues --   -0.47270  -0.46402  -0.46323  -0.44814  -0.44390
 Alpha  occ. eigenvalues --   -0.37348  -0.36373
 Alpha virt. eigenvalues --    0.05031   0.11134   0.16491   0.20067   0.22528
 Alpha virt. eigenvalues --    0.23982   0.25431   0.26108   0.27143   0.27781
 Alpha virt. eigenvalues --    0.28872   0.29720   0.31195   0.31547   0.31931

 Mulliken charges:
               1
     1  C   -0.297895
     2  C   -0.301351
     3  C   -0.485398
     4  H    0.151636
     5  H    0.152488
     6  H    0.145019
     7  H    0.147346
     8  H    0.158173
     9  H    0.157042
    10  H    0.166198
    11  C   -0.298566
    12  C   -0.300150
    13  C   -0.475991
    14  H    0.148240
    15  H    0.149557
    16  H    0.152723
    17  H    0.153301
    18  H    0.155584
    19  H    0.155000
    20  H    0.161874
    21  C   -0.170419
    22  C   -0.221971
    23  C   -0.171936
    24  C    0.158765
    25  C   -0.170628
    26  C   -0.218303
    27  H    0.227126
    28  H    0.229195
    29  H    0.276151
    30  H    0.275854
    31  H    0.223716
    32  N    0.488111
    33  O   -0.460296
    34  O   -0.460196
 Sum of Mulliken charges =  -0.00000

 Dipole moment (field-independent basis, Debye):
    X=             -4.2769    Y=              3.0168    Z=             -0.3444  Tot=              5.2452
 Quadrupole moment (field-independent basis, Debye-Ang):
   XX=           -125.7085   YY=            -91.1902   ZZ=            -94.4564
   XY=             13.6284   XZ=             -0.1022   YZ=              2.0380

 Normal termination of Gaussian 16 at Wed May  5 17:00:21 2021.
