 Gaussian 16, Revision A.03,
 Gaussian 16:  EM64L-G16RevA.03 25-Dec-2016

 -------------
 #p 6-31g* mp2
 -------------

 ------------------------------------------------------
 Input file generated by CHIRIPA (05-May-2021 14:51:08)
 ------------------------------------------------------
 Symbolic Z-matrix:
 Charge =  0 Multiplicity = 1

                         Standard orientation:
 ---------------------------------------------------------------------
 Center     Atomic      Atomic             Coordinates (Angstroms)
 Number     Number       Type             X           Y           Z
 ---------------------------------------------------------------------
      1          6           0       -3.607867    0.321623    0.038967
      2          6           0       -5.062076   -0.041165   -0.263763
      3          6           0       -5.937171    1.186707   -0.517404
      4          1           0       -3.576524    0.983355    0.915366
      5          1           0       -3.198167    0.897554   -0.802367
      6          1           0       -5.468489   -0.617428    0.577287
      7          1           0       -5.089946   -0.702264   -1.139427
      8          1           0       -5.558447    1.760300   -1.369555
      9          1           0       -5.939141    1.845619    0.356914
     10          1           0       -6.972638    0.904372   -0.731776
     11          6           0       -2.720534   -0.895314    0.294766
     12          6           0       -1.266325   -0.532526    0.597497
     13          6           0       -0.391230   -1.760398    0.851138
     14          1           0       -3.130234   -1.471245    1.136101
     15          1           0       -2.751877   -1.557045   -0.581632
     16          1           0       -1.238455    0.128573    1.473161
     17          1           0       -0.859912    0.043737   -0.243554
     18          1           0       -0.389260   -2.419310   -0.023180
     19          1           0       -0.769954   -2.333991    1.703288
     20          1           0        0.644237   -1.478063    1.065510
     21          6           0        2.972025    0.981266   -0.420403
     22          6           0        3.405583    2.109954    0.515585
     23          6           0        3.014027    3.493134   -0.005273
     24          1           0        3.420023    1.142127   -1.410537
     25          1           0        1.882940    1.027147   -0.558905
     26          1           0        4.493353    2.061112    0.653380
     27          1           0        2.956655    1.946284    1.503661
     28          1           0        1.928326    3.566287   -0.125697
     29          1           0        3.473754    3.681766   -0.980808
     30          1           0        3.333575    4.285125    0.679197
     31          6           0        3.356376   -0.407575    0.086669
     32          6           0        2.922817   -1.536264   -0.849319
     33          6           0        3.314374   -2.919443   -0.328461
     34          1           0        4.445462   -0.453456    0.225172
     35          1           0        2.908378   -0.568436    1.076804
     36          1           0        3.371745   -1.372593   -1.837394
     37          1           0        1.835048   -1.487421   -0.987114
     38          1           0        2.854647   -3.108076    0.647075
     39          1           0        4.400075   -2.992596   -0.208036
     40          1           0        2.994826   -3.711435   -1.012930
 ---------------------------------------------------------------------

 SCF Done:  E(RHF) =  -470.731934815     A.U. after   11 cycles
 E2 =    -0.1584563473D+01 EUMP2 =    -0.47231649828816D+03

 The electronic state is 1-A.
 Alpha  occ. eigenvalues --  -11.21695 -11.21633 -11.21590 -11.21471 -11.21458
 Alpha  occ. eigenvalues --  -11.21396 -11.21390 -11.21332 -11.21095 -11.21094
 Alpha  occ. eigenvalues --  -11.21059 -11.21000  -1.08506  -1.08394  -1.03629
 Alpha  occ. eigenvalues --   -1.03456  -0.96044  -0.95942  -0.87084  -0.86941
 Alpha  occ. eigenvalues --   -0.79680  -0.79531  -0.78304  -0.78222  -0.65272
 Alpha  occ. eigenvalues --   -0.65011  -0.61204  -0.60844  -0.59323  -0.59254
 Alpha  occ. eigenvalues --   -0.57617  -0.57552  -0.55386  -0.55180  -0.52703
 Alpha  occ. eigenvalues --   -0.52632  -0.52456  -0.52371  -0.50044  -0.49831
 Alpha  occ. eigenvalues --   -0.47993  -0.47830  -0.46784  -0.46460  -0.45907
 Alpha  occ. eigenvalues --   -0.45776  -0.45750  -0.45579  -0.43801  -0.43748
 Alpha virt. eigenvalues --    0.20257   0.23071   0.23807   0.24458   0.25932
 Alpha virt. eigenvalues --    0.26270   0.26946   0.27397   0.28123   0.29406
 Alpha virt. eigenvalues --    0.30568   0.31305   0.31763   0.32023   0.32120

 Mulliken charges:
               1
     1  C   -0.298356
     2  C   -0.299693
     3  C   -0.475752
     4  H    0.149701
     5  H    0.149556
     6  H    0.152017
     7  H    0.152053
     8  H    0.155271
     9  H    0.155222
    10  H    0.160385
    11  C   -0.298466
    12  C   -0.302869
    13  C   -0.484261
    14  H    0.149975
    15  H    0.149980
    16  H    0.152127
    17  H    0.153342
    18  H    0.155936
    19  H    0.155904
    20  H    0.169017
    21  C   -0.301172
    22  C   -0.299413
    23  C   -0.475808
    24  H    0.149800
    25  H    0.152254
    26  H    0.151927
    27  H    0.151887
    28  H    0.155367
    29  H    0.155067
    30  H    0.160204
    31  C   -0.301422
    32  C   -0.306856
    33  C   -0.476088
    34  H    0.150453
    35  H    0.149560
    36  H    0.151989
    37  H    0.160256
    38  H    0.156317
    39  H    0.154844
    40  H    0.159746
 Sum of Mulliken charges =  -0.00000

 Dipole moment (field-independent basis, Debye):
    X=             -0.0344    Y=             -0.0078    Z=              0.0015  Tot=              0.0353
 Quadrupole moment (field-independent basis, Debye-Ang):
   XX=            -84.6567   YY=            -86.5539   ZZ=            -83.6521
   XY=              0.9003   XZ=             -0.8422   YZ=              0.4317

 Normal termination of Gaussian 16 at Wed May  5 15:06:35 2021.
