 Gaussian 16, Revision A.03,
 Gaussian 16:  EM64L-G16RevA.03 25-Dec-2016

 -------------
 #p 6-31g* mp2
 -------------

 ------------------------------------------------------
 Input file generated by CHIRIPA (05-May-2021 14:53:16)
 ------------------------------------------------------
 Symbolic Z-matrix:
 Charge =  0 Multiplicity = 1

                         Standard orientation:
 ---------------------------------------------------------------------
 Center     Atomic      Atomic             Coordinates (Angstroms)
 Number     Number       Type             X           Y           Z
 ---------------------------------------------------------------------
      1          6           0        2.099290    1.712496   -0.195270
      2          6           0        0.767561    1.973318    0.509326
      3          6           0        0.150306    3.319022    0.127394
      4          1           0        2.800824    2.521861    0.049114
      5          1           0        1.944559    1.750614   -1.282468
      6          1           0        0.924487    1.933349    1.594864
      7          1           0        0.069179    1.163137    0.263390
      8          1           0       -0.034786    3.365865   -0.950636
      9          1           0        0.825381    4.140452    0.388403
     10          1           0       -0.801006    3.485001    0.642481
     11          6           0        2.728757    0.371076    0.176340
     12          6           0        4.060486    0.110254   -0.528255
     13          6           0        4.677741   -1.235450   -0.146323
     14          1           0        2.883488    0.332958    1.263538
     15          1           0        2.027223   -0.438289   -0.068043
     16          1           0        4.758868    0.920435   -0.282320
     17          1           0        3.903560    0.150223   -1.613793
     18          1           0        4.002665   -2.056880   -0.407333
     19          1           0        4.862833   -1.282293    0.931706
     20          1           0        5.629053   -1.401430   -0.661411
     21          6           0       -0.237735   -2.683418    0.400046
     22          6           0       -0.700725   -1.920653    1.477242
     23          6           0       -1.614036   -0.882360    1.271432
     24          6           0       -2.045300   -0.633157   -0.030566
     25          6           0       -1.602504   -1.375371   -1.124339
     26          6           0       -0.689306   -2.408827   -0.895023
     27          1           0        0.471703   -3.488111    0.569054
     28          1           0       -0.351754   -2.131649    2.484090
     29          1           0       -1.988785   -0.276192    2.087241
     30          1           0       -1.968549   -1.141280   -2.116624
     31          1           0       -0.331453   -2.999559   -1.733487
     32          7           0       -3.012122    0.463478   -0.260889
     33          8           0       -3.376721    0.662966   -1.417570
     34          8           0       -3.387009    1.102766    0.719624
 ---------------------------------------------------------------------

 SCF Done:  E(RHF) =  -669.534471569     A.U. after   15 cycles
 E2 =    -0.2095338351D+01 EUMP2 =    -0.67162980992047D+03

 The electronic state is 1-A.
 Alpha  occ. eigenvalues --  -20.60879 -20.60869 -15.85918 -11.31259 -11.27885
 Alpha  occ. eigenvalues --  -11.27832 -11.27637 -11.26913 -11.26862 -11.21840
 Alpha  occ. eigenvalues --  -11.21506 -11.21474 -11.21358 -11.21297 -11.20588
 Alpha  occ. eigenvalues --   -1.59943  -1.39497  -1.19497  -1.08882  -1.08465
 Alpha  occ. eigenvalues --   -1.04885  -1.03541  -0.95981  -0.95705  -0.86995
 Alpha  occ. eigenvalues --   -0.86280  -0.82532  -0.79634  -0.78284  -0.77574
 Alpha  occ. eigenvalues --   -0.72139  -0.71283  -0.70584  -0.65146  -0.65110
 Alpha  occ. eigenvalues --   -0.64876  -0.62221  -0.60974  -0.59378  -0.57581
 Alpha  occ. eigenvalues --   -0.55383  -0.55290  -0.53376  -0.52967  -0.52611
 Alpha  occ. eigenvalues --   -0.52410  -0.49948  -0.48900  -0.48894  -0.47950
 Alpha  occ. eigenvalues --   -0.46715  -0.45780  -0.45613  -0.44880  -0.43762
 Alpha  occ. eigenvalues --   -0.37373  -0.36448
 Alpha virt. eigenvalues --    0.04924   0.11134   0.16373   0.21164   0.22820
 Alpha virt. eigenvalues --    0.24155   0.26380   0.27072   0.27508   0.27829
 Alpha virt. eigenvalues --    0.28305   0.30897   0.31381   0.31644   0.32049

 Mulliken charges:
               1
     1  C   -0.296699
     2  C   -0.305903
     3  C   -0.479608
     4  H    0.149455
     5  H    0.149268
     6  H    0.146910
     7  H    0.157315
     8  H    0.157087
     9  H    0.152595
    10  H    0.171265
    11  C   -0.302500
    12  C   -0.299245
    13  C   -0.474302
    14  H    0.145766
    15  H    0.151782
    16  H    0.153374
    17  H    0.151775
    18  H    0.148152
    19  H    0.154423
    20  H    0.161441
    21  C   -0.171161
    22  C   -0.212871
    23  C   -0.172224
    24  C    0.156804
    25  C   -0.172688
    26  C   -0.218233
    27  H    0.227003
    28  H    0.224529
    29  H    0.275921
    30  H    0.276110
    31  H    0.224236
    32  N    0.490898
    33  O   -0.460177
    34  O   -0.460497
 Sum of Mulliken charges =  -0.00000

 Dipole moment (field-independent basis, Debye):
    X=              3.2323    Y=             -3.8699    Z=              0.8224  Tot=              5.1088
 Quadrupole moment (field-independent basis, Debye-Ang):
   XX=           -109.9087   YY=            -90.8113   ZZ=            -89.4230
   XY=              6.4462   XZ=             -1.5830   YZ=              1.1663

 Normal termination of Gaussian 16 at Thu May  6 07:32:05 2021.
