 Gaussian 16, Revision A.03,
 Gaussian 16:  EM64L-G16RevA.03 25-Dec-2016

 -------------
 #p 6-31g* mp2
 -------------

 ------------------------------------------------------
 Input file generated by CHIRIPA (05-May-2021 14:57:24)
 ------------------------------------------------------
 Symbolic Z-matrix:
 Charge =  0 Multiplicity = 1

                         Standard orientation:
 ---------------------------------------------------------------------
 Center     Atomic      Atomic             Coordinates (Angstroms)
 Number     Number       Type             X           Y           Z
 ---------------------------------------------------------------------
      1          6           0       -1.514665   -0.672863    0.412883
      2          6           0       -2.486768   -0.964151    1.375530
      3          6           0       -3.830597   -0.656343    1.143309
      4          6           0       -4.168548   -0.054853   -0.068008
      5          6           0       -3.223198    0.247795   -1.046787
      6          6           0       -1.885329   -0.068885   -0.793077
      7          1           0       -0.473062   -0.915422    0.601625
      8          1           0       -2.201805   -1.433184    2.312999
      9          1           0       -4.603620   -0.870880    1.871201
     10          1           0       -3.537816    0.715612   -1.971763
     11          1           0       -1.132525    0.158483   -1.542500
     12          7           0       -5.588045    0.275706   -0.325225
     13          8           0       -5.859986    0.805399   -1.400451
     14          8           0       -6.401827   -0.001154    0.553264
     15          6           0        4.319482   -2.338872   -0.447753
     16          6           0        5.295816   -1.397701   -0.790516
     17          6           0        5.093290   -0.038590   -0.532928
     18          6           0        3.897389    0.346016    0.071379
     19          6           0        2.905592   -0.567672    0.424657
     20          6           0        3.129584   -1.921591    0.157672
     21          1           0        4.485146   -3.392645   -0.651504
     22          1           0        6.220866   -1.718887   -1.260800
     23          1           0        5.832327    0.711233   -0.787895
     24          1           0        1.993570   -0.217147    0.892380
     25          1           0        2.369588   -2.650295    0.424955
     26          7           0        3.671622    1.782097    0.349050
     27          8           0        2.609493    2.095312    0.882356
     28          8           0        4.561070    2.567290    0.028125
 ---------------------------------------------------------------------

 SCF Done:  E(RHF) =  -868.336768485     A.U. after   16 cycles
 E2 =    -0.2599747173D+01 EUMP2 =    -0.87093651565804D+03

 The electronic state is 1-A.
 Alpha  occ. eigenvalues --  -20.61531 -20.61515 -20.60793 -20.60787 -15.86583
 Alpha  occ. eigenvalues --  -15.85847 -11.32069 -11.31274 -11.28748 -11.28572
 Alpha  occ. eigenvalues --  -11.28341 -11.27841 -11.27814 -11.27731 -11.27723
 Alpha  occ. eigenvalues --  -11.27593 -11.26930 -11.26880  -1.60599  -1.59866
 Alpha  occ. eigenvalues --   -1.40151  -1.39418  -1.20236  -1.19454  -1.09592
 Alpha  occ. eigenvalues --   -1.08865  -1.05672  -1.04858  -0.96419  -0.95690
 Alpha  occ. eigenvalues --   -0.87049  -0.86267  -0.83259  -0.82511  -0.78305
 Alpha  occ. eigenvalues --   -0.77523  -0.72795  -0.72067  -0.71928  -0.71366
 Alpha  occ. eigenvalues --   -0.71187  -0.70626  -0.65886  -0.65666  -0.65120
 Alpha  occ. eigenvalues --   -0.64871  -0.63033  -0.62198  -0.56138  -0.55455
 Alpha  occ. eigenvalues --   -0.53966  -0.53750  -0.53183  -0.52961  -0.49563
 Alpha  occ. eigenvalues --   -0.49546  -0.48831  -0.48816  -0.45531  -0.44809
 Alpha  occ. eigenvalues --   -0.38184  -0.37466  -0.37277  -0.36440
 Alpha virt. eigenvalues --    0.04237   0.04989   0.10373   0.11207   0.15698
 Alpha virt. eigenvalues --    0.16417   0.18193   0.21949   0.24686   0.27115
 Alpha virt. eigenvalues --    0.27292   0.29588   0.30207   0.31019   0.32461

 Mulliken charges:
               1
     1  C   -0.169746
     2  C   -0.218358
     3  C   -0.170444
     4  C    0.159306
     5  C   -0.170312
     6  C   -0.217081
     7  H    0.216355
     8  H    0.222513
     9  H    0.276134
    10  H    0.276945
    11  H    0.225693
    12  N    0.487963
    13  O   -0.459443
    14  O   -0.460097
    15  C   -0.170429
    16  C   -0.217872
    17  C   -0.169842
    18  C    0.161243
    19  C   -0.179952
    20  C   -0.218710
    21  H    0.228564
    22  H    0.226930
    23  H    0.278449
    24  H    0.271812
    25  H    0.220516
    26  N    0.487671
    27  O   -0.461077
    28  O   -0.456731
 Sum of Mulliken charges =  -0.00000

 Dipole moment (field-independent basis, Debye):
    X=              5.9619    Y=             -6.1604    Z=             -0.1815  Tot=              8.5749
 Quadrupole moment (field-independent basis, Debye-Ang):
   XX=           -134.8935   YY=           -108.4406   ZZ=           -101.1274
   XY=            -13.5912   XZ=            -11.4895   YZ=             -3.0265

 Normal termination of Gaussian 16 at Fri May  7 00:21:52 2021.
