 Gaussian 16, Revision A.03,
 Gaussian 16:  EM64L-G16RevA.03 25-Dec-2016

 -------------
 #p 6-31g* mp2
 -------------

 ------------------------------------------------------
 Input file generated by CHIRIPA (05-May-2021 14:51:13)
 ------------------------------------------------------
 Symbolic Z-matrix:
 Charge =  0 Multiplicity = 1

                         Standard orientation:
 ---------------------------------------------------------------------
 Center     Atomic      Atomic             Coordinates (Angstroms)
 Number     Number       Type             X           Y           Z
 ---------------------------------------------------------------------
      1          6           0       -4.548181   -0.551628    0.368751
      2          6           0       -5.264635   -1.497920   -0.595205
      3          6           0       -5.988225   -2.637199    0.123304
      4          1           0       -3.827858   -1.125199    0.967998
      5          1           0       -5.280197   -0.134992    1.074415
      6          1           0       -4.531718   -1.911581   -1.299714
      7          1           0       -5.983200   -0.921997   -1.192360
      8          1           0       -6.740397   -2.241316    0.813314
      9          1           0       -5.280668   -3.236522    0.705350
     10          1           0       -6.493518   -3.301543   -0.584641
     11          6           0       -3.820156    0.592509   -0.334568
     12          6           0       -3.103702    1.538801    0.629388
     13          6           0       -2.380113    2.678080   -0.089121
     14          1           0       -3.088140    0.175873   -1.040232
     15          1           0       -4.540479    1.166080   -0.933815
     16          1           0       -2.385138    0.962878    1.226542
     17          1           0       -3.836620    1.952462    1.333897
     18          1           0       -3.087669    3.277403   -0.671167
     19          1           0       -1.627940    2.282197   -0.779131
     20          1           0       -1.874819    3.342424    0.618824
     21          6           0        4.575243   -0.649304    0.170056
     22          6           0        6.048372   -0.590367   -0.235406
     23          6           0        6.817483   -1.855679    0.145709
     24          1           0        4.506188   -0.809361    1.254749
     25          1           0        4.105980   -1.521866   -0.305152
     26          1           0        6.514380    0.282609    0.239321
     27          1           0        6.113927   -0.430241   -1.319231
     28          1           0        6.379091   -2.733785   -0.339413
     29          1           0        6.781818   -2.016885    1.227994
     30          1           0        7.868372   -1.792115   -0.153379
     31          6           0        3.793095    0.608423   -0.204239
     32          6           0        2.319965    0.549486    0.201223
     33          6           0        1.550854    1.814799   -0.179892
     34          1           0        4.262357    1.480985    0.270969
     35          1           0        3.862149    0.768480   -1.288932
     36          1           0        2.254410    0.389359    1.285049
     37          1           0        1.853957   -0.323491   -0.273502
     38          1           0        1.586518    1.976005   -1.262177
     39          1           0        1.989247    2.692905    0.305230
     40          1           0        0.499966    1.751234    0.119196
 ---------------------------------------------------------------------

 SCF Done:  E(RHF) =  -470.732978083     A.U. after   11 cycles
 E2 =    -0.1582443747D+01 EUMP2 =    -0.47231542183029D+03

 The electronic state is 1-A.
 Alpha  occ. eigenvalues --  -11.21610 -11.21603 -11.21602 -11.21595 -11.21407
 Alpha  occ. eigenvalues --  -11.21401 -11.21348 -11.21342 -11.21073 -11.21072
 Alpha  occ. eigenvalues --  -11.21020 -11.21001  -1.08437  -1.08421  -1.03556
 Alpha  occ. eigenvalues --   -1.03498  -0.96035  -0.95915  -0.87076  -0.86907
 Alpha  occ. eigenvalues --   -0.79644  -0.79534  -0.78249  -0.78235  -0.65076
 Alpha  occ. eigenvalues --   -0.65054  -0.61008  -0.60912  -0.59410  -0.59263
 Alpha  occ. eigenvalues --   -0.57594  -0.57585  -0.55320  -0.55224  -0.52799
 Alpha  occ. eigenvalues --   -0.52549  -0.52405  -0.52344  -0.49949  -0.49845
 Alpha  occ. eigenvalues --   -0.47934  -0.47866  -0.46652  -0.46592  -0.45786
 Alpha  occ. eigenvalues --   -0.45780  -0.45716  -0.45704  -0.43819  -0.43697
 Alpha virt. eigenvalues --    0.21622   0.23038   0.23590   0.25085   0.26534
 Alpha virt. eigenvalues --    0.26663   0.27304   0.27469   0.27600   0.28886
 Alpha virt. eigenvalues --    0.31111   0.31263   0.31508   0.31850   0.32067

 Mulliken charges:
               1
     1  C   -0.298325
     2  C   -0.299653
     3  C   -0.475713
     4  H    0.149678
     5  H    0.149553
     6  H    0.151887
     7  H    0.151959
     8  H    0.155196
     9  H    0.155194
    10  H    0.160247
    11  C   -0.298161
    12  C   -0.301707
    13  C   -0.479670
    14  H    0.149538
    15  H    0.149799
    16  H    0.152106
    17  H    0.152294
    18  H    0.155634
    19  H    0.158958
    20  H    0.160716
    21  C   -0.298207
    22  C   -0.299623
    23  C   -0.475693
    24  H    0.149582
    25  H    0.149355
    26  H    0.151956
    27  H    0.151937
    28  H    0.155132
    29  H    0.155163
    30  H    0.160261
    31  C   -0.298422
    32  C   -0.299317
    33  C   -0.482755
    34  H    0.149584
    35  H    0.149601
    36  H    0.151648
    37  H    0.151146
    38  H    0.154375
    39  H    0.155035
    40  H    0.169711
 Sum of Mulliken charges =  -0.00000

 Dipole moment (field-independent basis, Debye):
    X=             -0.0155    Y=              0.0156    Z=             -0.0013  Tot=              0.0220
 Quadrupole moment (field-independent basis, Debye-Ang):
   XX=            -84.8947   YY=            -85.7629   ZZ=            -84.1434
   XY=             -0.3145   XZ=              0.2485   YZ=              0.9292

 Normal termination of Gaussian 16 at Thu May  6 05:34:47 2021.
