 Gaussian 16, Revision A.03,
 Gaussian 16:  EM64L-G16RevA.03 25-Dec-2016

 -------------
 #p 6-31g* mp2
 -------------

 ------------------------------------------------------
 Input file generated by CHIRIPA (05-May-2021 14:53:12)
 ------------------------------------------------------
 Symbolic Z-matrix:
 Charge =  0 Multiplicity = 1

                         Standard orientation:
 ---------------------------------------------------------------------
 Center     Atomic      Atomic             Coordinates (Angstroms)
 Number     Number       Type             X           Y           Z
 ---------------------------------------------------------------------
      1          6           0       -4.257139   -0.160610    0.726978
      2          6           0       -2.785906   -0.351207    0.356662
      3          6           0       -1.922304   -0.751973    1.553062
      4          1           0       -4.335173    0.605627    1.510391
      5          1           0       -4.642217   -1.093112    1.162350
      6          1           0       -2.404095    0.580940   -0.079156
      7          1           0       -2.711382   -1.116943   -0.426097
      8          1           0       -2.275959   -1.693653    1.985228
      9          1           0       -1.966926    0.013877    2.334140
     10          1           0       -0.874355   -0.882938    1.265814
     11          6           0       -5.133240    0.240201   -0.458571
     12          6           0       -6.604473    0.430798   -0.088255
     13          6           0       -7.468075    0.831564   -1.284655
     14          1           0       -4.748162    1.172703   -0.893943
     15          1           0       -5.055206   -0.526036   -1.241984
     16          1           0       -6.678997    1.196533    0.694504
     17          1           0       -6.986284   -0.501350    0.347563
     18          1           0       -7.423453    0.065714   -2.065733
     19          1           0       -7.114420    1.773244   -1.716821
     20          1           0       -8.516024    0.962528   -0.997407
     21          6           0        4.909714    2.162913   -0.001346
     22          6           0        5.422730    1.103231   -0.756601
     23          6           0        4.743276   -0.116902   -0.821148
     24          6           0        3.548084   -0.243199   -0.114852
     25          6           0        3.011315    0.793996    0.646330
     26          6           0        3.707763    2.005191    0.696479
     27          1           0        5.444131    3.107270    0.043203
     28          1           0        6.355964    1.222866   -1.299561
     29          1           0        5.117815   -0.953678   -1.398162
     30          1           0        2.078741    0.644675    1.176825
     31          1           0        3.306977    2.826434    1.283824
     32          7           0        2.819782   -1.530167   -0.175564
     33          8           0        1.768741   -1.616054    0.455763
     34          8           0        3.313769   -2.428638   -0.853328
 ---------------------------------------------------------------------

 SCF Done:  E(RHF) =  -669.536131097     A.U. after   15 cycles
 E2 =    -0.2090746994D+01 EUMP2 =    -0.67162687809171D+03

 The electronic state is 1-A.
 Alpha  occ. eigenvalues --  -20.60912 -20.60900 -15.85953 -11.31267 -11.27832
 Alpha  occ. eigenvalues --  -11.27829 -11.27572 -11.26842 -11.26832 -11.21299
 Alpha  occ. eigenvalues --  -11.21001 -11.20949 -11.20865 -11.20825 -11.20139
 Alpha  occ. eigenvalues --   -1.59973  -1.39530  -1.19438  -1.08843  -1.07969
 Alpha  occ. eigenvalues --   -1.04835  -1.03017  -0.95689  -0.95452  -0.86473
 Alpha  occ. eigenvalues --   -0.86235  -0.82521  -0.79097  -0.77778  -0.77572
 Alpha  occ. eigenvalues --   -0.72181  -0.71288  -0.70548  -0.65096  -0.64838
 Alpha  occ. eigenvalues --   -0.64609  -0.62183  -0.60428  -0.58822  -0.57043
 Alpha  occ. eigenvalues --   -0.55340  -0.54763  -0.53167  -0.52927  -0.52103
 Alpha  occ. eigenvalues --   -0.51879  -0.49425  -0.48929  -0.48918  -0.47396
 Alpha  occ. eigenvalues --   -0.46154  -0.45315  -0.45250  -0.44941  -0.43246
 Alpha  occ. eigenvalues --   -0.37418  -0.36436
 Alpha virt. eigenvalues --    0.04950   0.11218   0.16441   0.21134   0.23267
 Alpha virt. eigenvalues --    0.24544   0.26859   0.27080   0.27635   0.27949
 Alpha virt. eigenvalues --    0.28983   0.30492   0.31705   0.31877   0.32259

 Mulliken charges:
               1
     1  C   -0.297575
     2  C   -0.298224
     3  C   -0.488026
     4  H    0.146710
     5  H    0.149773
     6  H    0.146209
     7  H    0.155663
     8  H    0.155571
     9  H    0.145466
    10  H    0.184655
    11  C   -0.297757
    12  C   -0.299219
    13  C   -0.475418
    14  H    0.147526
    15  H    0.150346
    16  H    0.150639
    17  H    0.152082
    18  H    0.155403
    19  H    0.154121
    20  H    0.159236
    21  C   -0.170573
    22  C   -0.218591
    23  C   -0.170873
    24  C    0.157784
    25  C   -0.170836
    26  C   -0.218818
    27  H    0.225903
    28  H    0.223726
    29  H    0.275765
    30  H    0.276864
    31  H    0.223915
    32  N    0.494886
    33  O   -0.467242
    34  O   -0.459089
 Sum of Mulliken charges =  -0.00000

 Dipole moment (field-independent basis, Debye):
    X=              2.7961    Y=              4.4463    Z=              0.1728  Tot=              5.2552
 Quadrupole moment (field-independent basis, Debye-Ang):
   XX=            -75.5079   YY=            -95.8335   ZZ=            -94.3262
   XY=             14.8886   XZ=             -2.4887   YZ=              1.1642

 Normal termination of Gaussian 16 at Thu May  6 13:38:53 2021.
