 Gaussian 16, Revision A.03,
 Gaussian 16:  EM64L-G16RevA.03 25-Dec-2016

 -------------
 #p 6-31g* mp2
 -------------

 ------------------------------------------------------
 Input file generated by CHIRIPA (05-May-2021 14:55:21)
 ------------------------------------------------------
 Symbolic Z-matrix:
 Charge =  0 Multiplicity = 1

                         Standard orientation:
 ---------------------------------------------------------------------
 Center     Atomic      Atomic             Coordinates (Angstroms)
 Number     Number       Type             X           Y           Z
 ---------------------------------------------------------------------
      1          6           0       -3.186783   -2.081181    0.726758
      2          6           0       -3.473739   -1.467265   -0.496877
      3          6           0       -3.070008   -0.151619   -0.743101
      4          6           0       -2.378056    0.523702    0.261107
      5          6           0       -2.077169   -0.060584    1.490483
      6          6           0       -2.490641   -1.377123    1.714791
      7          1           0       -3.504195   -3.103553    0.909519
      8          1           0       -4.014222   -2.011627   -1.266028
      9          1           0       -3.278937    0.347809   -1.681365
     10          1           0       -1.536799    0.507548    2.237909
     11          1           0       -2.266401   -1.851367    2.666029
     12          7           0       -1.945488    1.916990    0.012041
     13          8           0       -1.337219    2.490433    0.913046
     14          8           0       -2.222900    2.409224   -1.079465
     15          6           0        2.559998   -0.861681   -0.517633
     16          6           0        1.429732   -0.252532   -1.347948
     17          6           0        0.286384   -1.235553   -1.601365
     18          1           0        2.946880   -1.751242   -1.033334
     19          1           0        2.154096   -1.208875    0.442625
     20          1           0        1.837908    0.094661   -2.305792
     21          1           0        1.045624    0.635793   -0.830304
     22          1           0       -0.147920   -1.573591   -0.654945
     23          1           0        0.648866   -2.117797   -2.138817
     24          1           0       -0.510729   -0.779401   -2.196678
     25          6           0        3.710334    0.108858   -0.255886
     26          6           0        4.840600   -0.500291    0.574429
     27          6           0        5.983947    0.482729    0.827847
     28          1           0        4.116235    0.456052   -1.216143
     29          1           0        3.323452    0.998419    0.259815
     30          1           0        5.224707   -1.388616    0.056786
     31          1           0        4.432424   -0.847485    1.532273
     32          1           0        5.621466    1.364973    1.365298
     33          1           0        6.418252    0.820768   -0.118573
     34          1           0        6.781061    0.026578    1.423160
 ---------------------------------------------------------------------

 SCF Done:  E(RHF) =  -669.534767819     A.U. after   15 cycles
 E2 =    -0.2094090590D+01 EUMP2 =    -0.67162885840900D+03

 The electronic state is 1-A.
 Alpha  occ. eigenvalues --  -20.60837 -20.60831 -15.85886 -11.31203 -11.27826
 Alpha  occ. eigenvalues --  -11.27778 -11.27569 -11.26849 -11.26795 -11.21427
 Alpha  occ. eigenvalues --  -11.21338 -11.21213 -11.21101 -11.20877 -11.20872
 Alpha  occ. eigenvalues --   -1.59911  -1.39465  -1.19420  -1.08813  -1.08218
 Alpha  occ. eigenvalues --   -1.04823  -1.03333  -0.95807  -0.95637  -0.86817
 Alpha  occ. eigenvalues --   -0.86216  -0.82482  -0.79392  -0.78024  -0.77530
 Alpha  occ. eigenvalues --   -0.72105  -0.71245  -0.70534  -0.65071  -0.64853
 Alpha  occ. eigenvalues --   -0.64824  -0.62172  -0.60762  -0.59180  -0.57403
 Alpha  occ. eigenvalues --   -0.55325  -0.55262  -0.53229  -0.52915  -0.52338
 Alpha  occ. eigenvalues --   -0.52169  -0.49632  -0.48862  -0.48860  -0.47710
 Alpha  occ. eigenvalues --   -0.46395  -0.45564  -0.45490  -0.44863  -0.43598
 Alpha  occ. eigenvalues --   -0.37378  -0.36370
 Alpha virt. eigenvalues --    0.04993   0.11186   0.16478   0.21310   0.22963
 Alpha virt. eigenvalues --    0.24312   0.26788   0.27056   0.27633   0.28076
 Alpha virt. eigenvalues --    0.28375   0.30820   0.31312   0.31637   0.32053

 Mulliken charges:
               1
     1  C   -0.170761
     2  C   -0.216012
     3  C   -0.169852
     4  C    0.162926
     5  C   -0.173089
     6  C   -0.219156
     7  H    0.226150
     8  H    0.223835
     9  H    0.275335
    10  H    0.275599
    11  H    0.223816
    12  N    0.488675
    13  O   -0.461305
    14  O   -0.460093
    15  C   -0.297213
    16  C   -0.301864
    17  C   -0.480291
    18  H    0.147735
    19  H    0.145672
    20  H    0.153824
    21  H    0.156739
    22  H    0.157208
    23  H    0.151343
    24  H    0.158375
    25  C   -0.299448
    26  C   -0.299193
    27  C   -0.475779
    28  H    0.150256
    29  H    0.154857
    30  H    0.150467
    31  H    0.149892
    32  H    0.156868
    33  H    0.155559
    34  H    0.158927
 Sum of Mulliken charges =  -0.00000

 Dipole moment (field-independent basis, Debye):
    X=             -1.6241    Y=             -4.8407    Z=              0.8880  Tot=              5.1826
 Quadrupole moment (field-independent basis, Debye-Ang):
   XX=            -87.8901   YY=           -100.9415   ZZ=            -89.6554
   XY=             10.8358   XZ=             -1.0151   YZ=             -0.6602

 Normal termination of Gaussian 16 at Thu May  6 07:45:55 2021.
