 Gaussian 16, Revision A.03,
 Gaussian 16:  EM64L-G16RevA.03 25-Dec-2016

 -------------
 #p 6-31g* mp2
 -------------

 ------------------------------------------------------
 Input file generated by CHIRIPA (05-May-2021 14:51:11)
 ------------------------------------------------------
 Symbolic Z-matrix:
 Charge =  0 Multiplicity = 1

                         Standard orientation:
 ---------------------------------------------------------------------
 Center     Atomic      Atomic             Coordinates (Angstroms)
 Number     Number       Type             X           Y           Z
 ---------------------------------------------------------------------
      1          6           0       -2.765293   -0.787823    0.149492
      2          6           0       -3.058619    0.397436   -0.770892
      3          6           0       -4.396568    1.069521   -0.461073
      4          1           0       -3.576313   -1.523392    0.059328
      5          1           0       -2.770584   -0.443038    1.192800
      6          1           0       -3.051408    0.050790   -1.812238
      7          1           0       -2.246711    1.130181   -0.678669
      8          1           0       -4.411108    1.442543    0.568123
      9          1           0       -5.220378    0.357018   -0.571886
     10          1           0       -4.586146    1.914166   -1.130772
     11          6           0       -1.431205   -1.470107   -0.147874
     12          6           0       -1.137879   -2.655366    0.772510
     13          6           0        0.200070   -3.327451    0.462692
     14          1           0       -1.425914   -1.814892   -1.191181
     15          1           0       -0.620185   -0.734538   -0.057709
     16          1           0       -1.949787   -3.388111    0.680288
     17          1           0       -1.145090   -2.308720    1.813856
     18          1           0        1.023880   -2.614949    0.573505
     19          1           0        0.214610   -3.700473   -0.566505
     20          1           0        0.389648   -4.172096    1.132390
     21          6           0        1.946095    1.835194    0.247228
     22          6           0        0.462098    2.196539    0.175345
     23          6           0        0.173574    3.612487    0.674985
     24          1           0        2.291861    1.936918    1.285035
     25          1           0        2.521704    2.558877   -0.346363
     26          1           0       -0.110683    1.471574    0.767768
     27          1           0        0.119777    2.093757   -0.862378
     28          1           0        0.719641    4.350299    0.078291
     29          1           0        0.487870    3.724581    1.717700
     30          1           0       -0.893140    3.849881    0.614785
     31          6           0        2.250403    0.422737   -0.248847
     32          6           0        3.734400    0.061392   -0.176963
     33          6           0        4.022924   -1.354556   -0.676603
     34          1           0        1.674794   -0.300948    0.344744
     35          1           0        1.904637    0.321013   -1.286654
     36          1           0        4.076720    0.164172    0.860760
     37          1           0        4.307181    0.786356   -0.769386
     38          1           0        3.708628   -1.466652   -1.719317
     39          1           0        3.476858   -2.092369   -0.079909
     40          1           0        5.089639   -1.591951   -0.616403
 ---------------------------------------------------------------------

 SCF Done:  E(RHF) =  -470.730845136     A.U. after   11 cycles
 E2 =    -0.1586680648D+01 EUMP2 =    -0.47231752578387D+03

 The electronic state is 1-A.
 Alpha  occ. eigenvalues --  -11.21703 -11.21639 -11.21555 -11.21478 -11.21464
 Alpha  occ. eigenvalues --  -11.21409 -11.21303 -11.21193 -11.21163 -11.21066
 Alpha  occ. eigenvalues --  -11.21029 -11.21011  -1.08560  -1.08318  -1.03627
 Alpha  occ. eigenvalues --   -1.03452  -0.96054  -0.95916  -0.87070  -0.86933
 Alpha  occ. eigenvalues --   -0.79779  -0.79468  -0.78663  -0.77878  -0.65369
 Alpha  occ. eigenvalues --   -0.64813  -0.61092  -0.60854  -0.59476  -0.59226
 Alpha  occ. eigenvalues --   -0.57725  -0.57468  -0.55344  -0.55218  -0.52754
 Alpha  occ. eigenvalues --   -0.52616  -0.52512  -0.52307  -0.50000  -0.49881
 Alpha  occ. eigenvalues --   -0.48270  -0.47725  -0.46957  -0.46683  -0.46429
 Alpha  occ. eigenvalues --   -0.45726  -0.45643  -0.44548  -0.43828  -0.43697
 Alpha virt. eigenvalues --    0.20961   0.21804   0.23604   0.24782   0.25409
 Alpha virt. eigenvalues --    0.26127   0.26586   0.27455   0.28411   0.29965
 Alpha virt. eigenvalues --    0.30826   0.31538   0.31670   0.31907   0.32407

 Mulliken charges:
               1
     1  C   -0.297057
     2  C   -0.308466
     3  C   -0.475217
     4  H    0.149261
     5  H    0.147852
     6  H    0.150935
     7  H    0.162639
     8  H    0.154532
     9  H    0.154900
    10  H    0.159594
    11  C   -0.310410
    12  C   -0.299117
    13  C   -0.483262
    14  H    0.148690
    15  H    0.163468
    16  H    0.151920
    17  H    0.150299
    18  H    0.161548
    19  H    0.155840
    20  H    0.159913
    21  C   -0.297007
    22  C   -0.305994
    23  C   -0.476673
    24  H    0.149396
    25  H    0.149977
    26  H    0.155011
    27  H    0.154279
    28  H    0.155824
    29  H    0.155514
    30  H    0.161085
    31  C   -0.306518
    32  C   -0.299193
    33  C   -0.479283
    34  H    0.156075
    35  H    0.150778
    36  H    0.151565
    37  H    0.152084
    38  H    0.155495
    39  H    0.159366
    40  H    0.160357
 Sum of Mulliken charges =  -0.00000

 Dipole moment (field-independent basis, Debye):
    X=              0.0817    Y=              0.0510    Z=             -0.0213  Tot=              0.0986
 Quadrupole moment (field-independent basis, Debye-Ang):
   XX=            -85.8255   YY=            -85.6601   ZZ=            -83.5777
   XY=              1.2068   XZ=              0.3814   YZ=             -0.2837

 Normal termination of Gaussian 16 at Thu May  6 03:52:16 2021.
