 Gaussian 16, Revision A.03,
 Gaussian 16:  EM64L-G16RevA.03 25-Dec-2016

 -------------
 #p 6-31g* mp2
 -------------

 ------------------------------------------------------
 Input file generated by CHIRIPA (05-May-2021 14:53:16)
 ------------------------------------------------------
 Symbolic Z-matrix:
 Charge =  0 Multiplicity = 1

                         Standard orientation:
 ---------------------------------------------------------------------
 Center     Atomic      Atomic             Coordinates (Angstroms)
 Number     Number       Type             X           Y           Z
 ---------------------------------------------------------------------
      1          6           0       -4.410004   -0.540944    0.301011
      2          6           0       -5.353813   -1.318257   -0.617135
      3          6           0       -5.729680   -2.689356   -0.054458
      4          1           0       -3.499554   -1.133089    0.466509
      5          1           0       -4.885347   -0.417181    1.283929
      6          1           0       -4.877402   -1.439316   -1.598458
      7          1           0       -6.262041   -0.724110   -0.780621
      8          1           0       -6.228062   -2.584607    0.914688
      9          1           0       -4.835556   -3.303876    0.092204
     10          1           0       -6.404906   -3.227842   -0.726739
     11          6           0       -4.025148    0.831773   -0.247862
     12          6           0       -3.081339    1.609087    0.670285
     13          6           0       -2.705473    2.980186    0.107608
     14          1           0       -3.549806    0.708010   -1.230779
     15          1           0       -4.935599    1.423918   -0.413359
     16          1           0       -2.173112    1.014939    0.833771
     17          1           0       -3.557750    1.730145    1.651608
     18          1           0       -3.599596    3.594706   -0.039054
     19          1           0       -2.207091    2.875436   -0.861538
     20          1           0       -2.030246    3.518671    0.779889
     21          6           0        1.001751    0.937764   -0.061284
     22          6           0        1.142260   -0.424684    0.222464
     23          6           0        2.407993   -1.017843    0.247617
     24          6           0        3.516682   -0.215248   -0.016844
     25          6           0        3.409261    1.144893   -0.302795
     26          6           0        2.133704    1.716831   -0.322547
     27          1           0        0.014684    1.390301   -0.078726
     28          1           0        0.264938   -1.032158    0.425749
     29          1           0        2.545511   -2.070222    0.464422
     30          1           0        4.302438    1.724733   -0.501387
     31          1           0        2.027596    2.775176   -0.543210
     32          7           0        4.861857   -0.831966    0.006926
     33          8           0        5.822895   -0.103164   -0.229487
     34          8           0        4.929695   -2.032472    0.261518
 ---------------------------------------------------------------------

 SCF Done:  E(RHF) =  -669.535403099     A.U. after   15 cycles
 E2 =    -0.2091581764D+01 EUMP2 =    -0.67162698486264D+03

 The electronic state is 1-A.
 Alpha  occ. eigenvalues --  -20.60730 -20.60725 -15.85784 -11.31142 -11.27718
 Alpha  occ. eigenvalues --  -11.27710 -11.27400 -11.26726 -11.26707 -11.22904
 Alpha  occ. eigenvalues --  -11.22424 -11.22381 -11.22333 -11.22269 -11.21672
 Alpha  occ. eigenvalues --   -1.59806  -1.39360  -1.19313  -1.09436  -1.08705
 Alpha  occ. eigenvalues --   -1.04719  -1.04527  -0.96961  -0.95542  -0.87972
 Alpha  occ. eigenvalues --   -0.86115  -0.82381  -0.80601  -0.79202  -0.77429
 Alpha  occ. eigenvalues --   -0.72002  -0.71130  -0.70462  -0.66082  -0.64963
 Alpha  occ. eigenvalues --   -0.64722  -0.62074  -0.61938  -0.60350  -0.58552
 Alpha  occ. eigenvalues --   -0.56330  -0.55081  -0.53651  -0.53365  -0.53046
 Alpha  occ. eigenvalues --   -0.52809  -0.50916  -0.48894  -0.48759  -0.48757
 Alpha  occ. eigenvalues --   -0.47655  -0.46746  -0.46650  -0.44767  -0.44760
 Alpha  occ. eigenvalues --   -0.37285  -0.36327
 Alpha virt. eigenvalues --    0.05104   0.11320   0.16580   0.18568   0.22632
 Alpha virt. eigenvalues --    0.23322   0.24693   0.25888   0.26710   0.28380
 Alpha virt. eigenvalues --    0.29423   0.30575   0.30726   0.30859   0.32146

 Mulliken charges:
               1
     1  C   -0.297709
     2  C   -0.300525
     3  C   -0.476112
     4  H    0.144743
     5  H    0.152366
     6  H    0.152782
     7  H    0.154032
     8  H    0.156511
     9  H    0.154882
    10  H    0.162925
    11  C   -0.298985
    12  C   -0.304247
    13  C   -0.481947
    14  H    0.149404
    15  H    0.154165
    16  H    0.142352
    17  H    0.159105
    18  H    0.163847
    19  H    0.151757
    20  H    0.161237
    21  C   -0.179215
    22  C   -0.221914
    23  C   -0.170589
    24  C    0.158061
    25  C   -0.170580
    26  C   -0.220749
    27  H    0.240114
    28  H    0.222770
    29  H    0.275386
    30  H    0.275410
    31  H    0.223831
    32  N    0.488033
    33  O   -0.460531
    34  O   -0.460612
 Sum of Mulliken charges =  -0.00000

 Dipole moment (field-independent basis, Debye):
    X=             -5.0440    Y=              2.2165    Z=             -0.0799  Tot=              5.5101
 Quadrupole moment (field-independent basis, Debye-Ang):
   XX=           -125.9627   YY=            -92.4354   ZZ=            -95.1953
   XY=              9.9351   XZ=             -1.0821   YZ=             -0.6468

 Normal termination of Gaussian 16 at Thu May  6 02:45:33 2021.
