 Gaussian 16, Revision A.03,
 Gaussian 16:  EM64L-G16RevA.03 25-Dec-2016

 -------------
 #p 6-31g* mp2
 -------------

 ------------------------------------------------------
 Input file generated by CHIRIPA (05-May-2021 14:53:12)
 ------------------------------------------------------
 Symbolic Z-matrix:
 Charge =  0 Multiplicity = 1

                         Standard orientation:
 ---------------------------------------------------------------------
 Center     Atomic      Atomic             Coordinates (Angstroms)
 Number     Number       Type             X           Y           Z
 ---------------------------------------------------------------------
      1          6           0        3.508279    0.972910    0.041268
      2          6           0        2.281893    1.716444   -0.488939
      3          6           0        2.106822    3.096232    0.146144
      4          1           0        3.422656    0.868124    1.131513
      5          1           0        4.405197    1.579755   -0.144934
      6          1           0        1.387715    1.107756   -0.303034
      7          1           0        2.370353    1.819304   -1.578072
      8          1           0        2.981381    3.724710   -0.050739
      9          1           0        1.993160    3.009119    1.231544
     10          1           0        1.224229    3.610183   -0.247232
     11          6           0        3.696738   -0.408054   -0.584152
     12          6           0        4.923124   -1.151588   -0.053946
     13          6           0        5.098195   -2.531376   -0.689028
     14          1           0        2.799819   -1.014899   -0.397951
     15          1           0        3.782361   -0.303268   -1.674397
     16          1           0        4.834663   -1.254447    1.035187
     17          1           0        5.817302   -0.542900   -0.239851
     18          1           0        5.211857   -2.444263   -1.774428
     19          1           0        4.223635   -3.159854   -0.492146
     20          1           0        5.980787   -3.045327   -0.295653
     21          6           0       -0.716327   -0.094584    1.607724
     22          6           0       -1.457874   -1.279796    1.564105
     23          6           0       -2.621999   -1.361043    0.794195
     24          6           0       -3.017299   -0.232834    0.077137
     25          6           0       -2.299950    0.962226    0.100204
     26          6           0       -1.138986    1.020677    0.876923
     27          1           0        0.186767   -0.040324    2.208454
     28          1           0       -1.132018   -2.147499    2.130632
     29          1           0       -3.215027   -2.266059    0.742433
     30          1           0       -2.649930    1.810584   -0.475315
     31          1           0       -0.565077    1.942442    0.908913
     32          7           0       -4.248033   -0.306781   -0.741536
     33          8           0       -4.575061    0.701198   -1.364168
     34          8           0       -4.862349   -1.371318   -0.745080
 ---------------------------------------------------------------------

 SCF Done:  E(RHF) =  -669.534515639     A.U. after   15 cycles
 E2 =    -0.2093244105D+01 EUMP2 =    -0.67162775974417D+03

 The electronic state is 1-A.
 Alpha  occ. eigenvalues --  -20.60789 -20.60783 -15.85841 -11.31230 -11.27790
 Alpha  occ. eigenvalues --  -11.27770 -11.27538 -11.26823 -11.26748 -11.22365
 Alpha  occ. eigenvalues --  -11.22190 -11.22181 -11.22162 -11.22019 -11.21559
 Alpha  occ. eigenvalues --   -1.59863  -1.39416  -1.19402  -1.09181  -1.08792
 Alpha  occ. eigenvalues --   -1.04816  -1.04280  -0.96758  -0.95626  -0.87762
 Alpha  occ. eigenvalues --   -0.86210  -0.82453  -0.80340  -0.78956  -0.77498
 Alpha  occ. eigenvalues --   -0.72061  -0.71185  -0.70514  -0.65930  -0.65047
 Alpha  occ. eigenvalues --   -0.64790  -0.62300  -0.61526  -0.60110  -0.58338
 Alpha  occ. eigenvalues --   -0.56077  -0.55280  -0.53455  -0.53215  -0.53120
 Alpha  occ. eigenvalues --   -0.52817  -0.50689  -0.48821  -0.48814  -0.48644
 Alpha  occ. eigenvalues --   -0.47380  -0.46496  -0.46421  -0.44816  -0.44528
 Alpha  occ. eigenvalues --   -0.37343  -0.36363
 Alpha virt. eigenvalues --    0.05014   0.11120   0.16457   0.19406   0.22676
 Alpha virt. eigenvalues --    0.23918   0.25335   0.26126   0.26940   0.28424
 Alpha virt. eigenvalues --    0.29374   0.30532   0.30849   0.31449   0.32011

 Mulliken charges:
               1
     1  C   -0.297308
     2  C   -0.310892
     3  C   -0.482355
     4  H    0.143420
     5  H    0.152566
     6  H    0.157489
     7  H    0.157339
     8  H    0.163765
     9  H    0.149103
    10  H    0.158234
    11  C   -0.298994
    12  C   -0.299880
    13  C   -0.475885
    14  H    0.148844
    15  H    0.153039
    16  H    0.149704
    17  H    0.153639
    18  H    0.157239
    19  H    0.154650
    20  H    0.161661
    21  C   -0.173291
    22  C   -0.218469
    23  C   -0.171080
    24  C    0.158935
    25  C   -0.173960
    26  C   -0.222447
    27  H    0.226266
    28  H    0.223526
    29  H    0.275761
    30  H    0.276008
    31  H    0.235773
    32  N    0.488049
    33  O   -0.460127
    34  O   -0.460321
 Sum of Mulliken charges =  -0.00000

 Dipole moment (field-independent basis, Debye):
    X=              4.4248    Y=              0.2433    Z=              2.7865  Tot=              5.2347
 Quadrupole moment (field-independent basis, Debye-Ang):
   XX=           -120.8483   YY=            -91.1941   ZZ=            -94.2048
   XY=             -0.5624   XZ=             -9.2941   YZ=             -3.0361

 Normal termination of Gaussian 16 at Wed May  5 23:20:36 2021.
