 Gaussian 16, Revision A.03,
 Gaussian 16:  EM64L-G16RevA.03 25-Dec-2016

 -------------
 #p 6-31g* mp2
 -------------

 ------------------------------------------------------
 Input file generated by CHIRIPA (05-May-2021 14:55:22)
 ------------------------------------------------------
 Symbolic Z-matrix:
 Charge =  0 Multiplicity = 1

                         Standard orientation:
 ---------------------------------------------------------------------
 Center     Atomic      Atomic             Coordinates (Angstroms)
 Number     Number       Type             X           Y           Z
 ---------------------------------------------------------------------
      1          6           0       -1.021356    0.554062    0.306691
      2          6           0       -1.715692    0.909854   -0.854270
      3          6           0       -3.057009    0.550997   -1.017485
      4          6           0       -3.675717   -0.166764    0.004919
      5          6           0       -3.010893   -0.535965    1.173246
      6          6           0       -1.670029   -0.166442    1.314966
      7          1           0        0.020435    0.836973    0.425131
      8          1           0       -1.214475    1.469398   -1.638959
      9          1           0       -3.618329    0.813455   -1.905997
     10          1           0       -3.537410   -1.093839    1.938083
     11          1           0       -1.133292   -0.444116    2.217660
     12          7           0       -5.095469   -0.552316   -0.156492
     13          8           0       -5.617859   -1.184586    0.758921
     14          8           0       -5.658998   -0.214941   -1.195362
     15          6           0        3.880751    0.635974   -0.273370
     16          6           0        3.828710    1.898924    0.587000
     17          6           0        2.774257    2.897300    0.108283
     18          1           0        4.086788    0.917833   -1.315027
     19          1           0        2.891969    0.156719   -0.268970
     20          1           0        4.817666    2.374905    0.582099
     21          1           0        3.622963    1.614010    1.626764
     22          1           0        1.777520    2.444920    0.129899
     23          1           0        2.979010    3.210138   -0.920701
     24          1           0        2.754190    3.792622    0.737453
     25          6           0        4.930065   -0.371731    0.192676
     26          6           0        4.982106   -1.634679   -0.667694
     27          6           0        6.036558   -2.633056   -0.188978
     28          1           0        5.918846    0.107525    0.188276
     29          1           0        4.724028   -0.653589    1.234332
     30          1           0        5.187853   -1.349766   -1.707459
     31          1           0        3.993150   -2.110662   -0.662793
     32          1           0        5.831805   -2.945894    0.840007
     33          1           0        7.033296   -2.180676   -0.210593
     34          1           0        6.056626   -3.528378   -0.818148
 ---------------------------------------------------------------------

 SCF Done:  E(RHF) =  -669.535436671     A.U. after   15 cycles
 E2 =    -0.2091078016D+01 EUMP2 =    -0.67162651468688D+03

 The electronic state is 1-A.
 Alpha  occ. eigenvalues --  -20.60747 -20.60742 -15.85801 -11.31169 -11.27737
 Alpha  occ. eigenvalues --  -11.27730 -11.27467 -11.26757 -11.26741 -11.22620
 Alpha  occ. eigenvalues --  -11.22375 -11.22282 -11.22246 -11.22140 -11.21596
 Alpha  occ. eigenvalues --   -1.59823  -1.39376  -1.19340  -1.09305  -1.08735
 Alpha  occ. eigenvalues --   -1.04743  -1.04385  -0.96844  -0.95572  -0.87858
 Alpha  occ. eigenvalues --   -0.86140  -0.82406  -0.80452  -0.79091  -0.77448
 Alpha  occ. eigenvalues --   -0.72019  -0.71146  -0.70480  -0.65942  -0.64992
 Alpha  occ. eigenvalues --   -0.64747  -0.62091  -0.61792  -0.60217  -0.58441
 Alpha  occ. eigenvalues --   -0.56209  -0.55221  -0.53514  -0.53258  -0.53068
 Alpha  occ. eigenvalues --   -0.52834  -0.50793  -0.48794  -0.48774  -0.48742
 Alpha  occ. eigenvalues --   -0.47487  -0.46630  -0.46546  -0.44781  -0.44629
 Alpha  occ. eigenvalues --   -0.37319  -0.36347
 Alpha virt. eigenvalues --    0.05075   0.11305   0.16535   0.18615   0.22508
 Alpha virt. eigenvalues --    0.23658   0.25193   0.26309   0.26842   0.27555
 Alpha virt. eigenvalues --    0.28939   0.30429   0.30884   0.31325   0.32201

 Mulliken charges:
               1
     1  C   -0.178561
     2  C   -0.221107
     3  C   -0.170878
     4  C    0.158397
     5  C   -0.170661
     6  C   -0.220145
     7  H    0.236732
     8  H    0.223869
     9  H    0.275640
    10  H    0.275454
    11  H    0.223675
    12  N    0.487995
    13  O   -0.460480
    14  O   -0.460423
    15  C   -0.299375
    16  C   -0.300786
    17  C   -0.478569
    18  H    0.152433
    19  H    0.142609
    20  H    0.157109
    21  H    0.151580
    22  H    0.144127
    23  H    0.159192
    24  H    0.166063
    25  C   -0.298580
    26  C   -0.300284
    27  C   -0.476160
    28  H    0.152217
    29  H    0.149661
    30  H    0.153199
    31  H    0.151745
    32  H    0.155566
    33  H    0.156337
    34  H    0.162410
 Sum of Mulliken charges =  -0.00000

 Dipole moment (field-independent basis, Debye):
    X=              5.2467    Y=              1.3776    Z=              0.5489  Tot=              5.4522
 Quadrupole moment (field-independent basis, Debye-Ang):
   XX=           -131.1587   YY=            -95.0533   ZZ=            -90.5333
   XY=             -4.8539   XZ=             -2.5982   YZ=             -2.5174

 Normal termination of Gaussian 16 at Wed May  5 15:58:59 2021.
