 Gaussian 16, Revision A.03,
 Gaussian 16:  EM64L-G16RevA.03 25-Dec-2016

 -------------
 #p 6-31g* mp2
 -------------

 ------------------------------------------------------
 Input file generated by CHIRIPA (05-May-2021 14:55:24)
 ------------------------------------------------------
 Symbolic Z-matrix:
 Charge =  0 Multiplicity = 1

                         Standard orientation:
 ---------------------------------------------------------------------
 Center     Atomic      Atomic             Coordinates (Angstroms)
 Number     Number       Type             X           Y           Z
 ---------------------------------------------------------------------
      1          6           0        4.686642   -0.441181   -1.274953
      2          6           0        4.441100    0.716576   -0.529415
      3          6           0        3.338557    0.788965    0.327152
      4          6           0        2.498385   -0.320011    0.414170
      5          6           0        2.716358   -1.487580   -0.315598
      6          6           0        3.825006   -1.537631   -1.165857
      7          1           0        5.545495   -0.488739   -1.937905
      8          1           0        5.108566    1.569625   -0.612135
      9          1           0        3.124938    1.672851    0.915820
     10          1           0        2.033163   -2.321806   -0.212013
     11          1           0        4.013230   -2.438062   -1.743647
     12          7           0        1.327940   -0.255200    1.317640
     13          8           0        0.602801   -1.245831    1.376468
     14          8           0        1.157846    0.785003    1.949845
     15          6           0       -3.728485   -0.267197   -0.177633
     16          6           0       -5.231925   -0.380126   -0.432389
     17          6           0       -5.784627   -1.767333   -0.103799
     18          1           0       -3.203667   -1.023913   -0.776710
     19          1           0       -3.523228   -0.504707    0.875389
     20          1           0       -5.434442   -0.141126   -1.484282
     21          1           0       -5.753210    0.377072    0.167219
     22          1           0       -5.611598   -2.011425    0.949330
     23          1           0       -5.291018   -2.532568   -0.711556
     24          1           0       -6.860993   -1.825839   -0.293199
     25          6           0       -3.161213    1.113770   -0.501451
     26          6           0       -1.657773    1.226699   -0.246696
     27          6           0       -1.105070    2.613906   -0.575284
     28          1           0       -3.366469    1.351280   -1.554472
     29          1           0       -3.686031    1.870486    0.097625
     30          1           0       -1.136488    0.469500   -0.846303
     31          1           0       -1.455255    0.987699    0.805199
     32          1           0       -1.598679    3.379141    0.032472
     33          1           0       -1.278100    2.857998   -1.628414
     34          1           0       -0.028705    2.672411   -0.385885
 ---------------------------------------------------------------------

 SCF Done:  E(RHF) =  -669.536383191     A.U. after   15 cycles
 E2 =    -0.2092674523D+01 EUMP2 =    -0.67162905771418D+03

 The electronic state is 1-A.
 Alpha  occ. eigenvalues --  -20.60967 -20.60962 -15.85956 -11.31295 -11.27851
 Alpha  occ. eigenvalues --  -11.27846 -11.27585 -11.26858 -11.26849 -11.20870
 Alpha  occ. eigenvalues --  -11.20473 -11.20431 -11.20410 -11.20365 -11.20183
 Alpha  occ. eigenvalues --   -1.60001  -1.39559  -1.19456  -1.08860  -1.07504
 Alpha  occ. eigenvalues --   -1.04852  -1.02651  -0.95703  -0.95133  -0.86253
 Alpha  occ. eigenvalues --   -0.86154  -0.82539  -0.78720  -0.77594  -0.77304
 Alpha  occ. eigenvalues --   -0.72191  -0.71294  -0.70565  -0.65112  -0.64856
 Alpha  occ. eigenvalues --   -0.64136  -0.62200  -0.60047  -0.58496  -0.56727
 Alpha  occ. eigenvalues --   -0.55356  -0.54432  -0.53181  -0.52944  -0.51850
 Alpha  occ. eigenvalues --   -0.51561  -0.49144  -0.48957  -0.48955  -0.47010
 Alpha  occ. eigenvalues --   -0.45746  -0.45057  -0.44770  -0.44615  -0.42900
 Alpha  occ. eigenvalues --   -0.37426  -0.36451
 Alpha virt. eigenvalues --    0.04896   0.11167   0.16369   0.21293   0.23763
 Alpha virt. eigenvalues --    0.24985   0.27163   0.27564   0.27892   0.28614
 Alpha virt. eigenvalues --    0.28760   0.30706   0.31720   0.32211   0.32707

 Mulliken charges:
               1
     1  C   -0.170549
     2  C   -0.218418
     3  C   -0.171504
     4  C    0.160029
     5  C   -0.171131
     6  C   -0.218521
     7  H    0.226019
     8  H    0.223953
     9  H    0.276014
    10  H    0.275883
    11  H    0.223821
    12  N    0.489682
    13  O   -0.458571
    14  O   -0.459907
    15  C   -0.297676
    16  C   -0.299154
    17  C   -0.475016
    18  H    0.148094
    19  H    0.157283
    20  H    0.148680
    21  H    0.150734
    22  H    0.156655
    23  H    0.153660
    24  H    0.157274
    25  C   -0.298002
    26  C   -0.308989
    27  C   -0.473035
    28  H    0.143676
    29  H    0.148069
    30  H    0.143128
    31  H    0.179138
    32  H    0.154731
    33  H    0.147715
    34  H    0.156236
 Sum of Mulliken charges =  -0.00000

 Dipole moment (field-independent basis, Debye):
    X=              4.3313    Y=             -0.3342    Z=             -2.9574  Tot=              5.2553
 Quadrupole moment (field-independent basis, Debye-Ang):
   XX=            -75.3255   YY=            -91.5288   ZZ=            -97.0149
   XY=             -1.0661   XZ=             -6.7209   YZ=              3.1271

 Normal termination of Gaussian 16 at Thu May  6 17:41:49 2021.
