 Gaussian 16, Revision A.03,
 Gaussian 16:  EM64L-G16RevA.03 25-Dec-2016

 -------------
 #p 6-31g* mp2
 -------------

 ------------------------------------------------------
 Input file generated by CHIRIPA (05-May-2021 14:57:21)
 ------------------------------------------------------
 Symbolic Z-matrix:
 Charge =  0 Multiplicity = 1

                         Standard orientation:
 ---------------------------------------------------------------------
 Center     Atomic      Atomic             Coordinates (Angstroms)
 Number     Number       Type             X           Y           Z
 ---------------------------------------------------------------------
      1          6           0        3.252210   -2.378724   -0.916893
      2          6           0        2.231085   -1.941576   -0.066761
      3          6           0        2.195088   -0.616207    0.376690
      4          6           0        3.200734    0.248985   -0.051571
      5          6           0        4.231273   -0.156468   -0.898264
      6          6           0        4.247291   -1.486348   -1.329205
      7          1           0        3.272414   -3.410055   -1.256517
      8          1           0        1.456977   -2.632396    0.255061
      9          1           0        1.416184   -0.251232    1.035112
     10          1           0        4.989080    0.555472   -1.202051
     11          1           0        5.041528   -1.823061   -1.989400
     12          7           0        3.173201    1.654482    0.411268
     13          8           0        4.070880    2.397049    0.019599
     14          8           0        2.254463    1.986931    1.156946
     15          6           0       -4.462188    1.037642   -1.788679
     16          6           0       -4.660259   -0.312246   -1.480307
     17          6           0       -3.969239   -0.907273   -0.420600
     18          6           0       -3.083758   -0.119334    0.313136
     19          6           0       -2.864826    1.228067    0.030526
     20          6           0       -3.566682    1.802142   -1.033609
     21          1           0       -5.003198    1.491735   -2.613605
     22          1           0       -5.355098   -0.908394   -2.064988
     23          1           0       -4.103529   -1.950127   -0.160138
     24          1           0       -2.165614    1.796756    0.631452
     25          1           0       -3.410861    2.850711   -1.270816
     26          7           0       -2.346470   -0.738172    1.437345
     27          8           0       -1.571902   -0.022401    2.068496
     28          8           0       -2.557113   -1.927271    1.666062
 ---------------------------------------------------------------------

 SCF Done:  E(RHF) =  -868.339742561     A.U. after   16 cycles
 E2 =    -0.2598722120D+01 EUMP2 =    -0.87093846468063D+03

 The electronic state is 1-A.
 Alpha  occ. eigenvalues --  -20.61225 -20.61212 -20.60302 -20.60284 -15.86234
 Alpha  occ. eigenvalues --  -15.85344 -11.31370 -11.30612 -11.27958 -11.27848
 Alpha  occ. eigenvalues --  -11.27635 -11.27248 -11.27032 -11.26959 -11.26917
 Alpha  occ. eigenvalues --  -11.26838 -11.26256 -11.26104  -1.60292  -1.59379
 Alpha  occ. eigenvalues --   -1.39843  -1.38929  -1.19531  -1.18794  -1.08974
 Alpha  occ. eigenvalues --   -1.08221  -1.04890  -1.04166  -0.95838  -0.95059
 Alpha  occ. eigenvalues --   -0.86301  -0.85574  -0.82667  -0.81880  -0.77740
 Alpha  occ. eigenvalues --   -0.76924  -0.72445  -0.71622  -0.71552  -0.70706
 Alpha  occ. eigenvalues --   -0.70630  -0.69896  -0.65181  -0.64887  -0.64442
 Alpha  occ. eigenvalues --   -0.64159  -0.62227  -0.61479  -0.55411  -0.54705
 Alpha  occ. eigenvalues --   -0.53247  -0.52971  -0.52536  -0.52238  -0.49226
 Alpha  occ. eigenvalues --   -0.49198  -0.48330  -0.48307  -0.45285  -0.44358
 Alpha  occ. eigenvalues --   -0.37514  -0.36811  -0.36485  -0.35779
 Alpha virt. eigenvalues --    0.04720   0.05571   0.11167   0.11868   0.16230
 Alpha virt. eigenvalues --    0.17068   0.21324   0.22081   0.27287   0.27827
 Alpha virt. eigenvalues --    0.28271   0.28999   0.30922   0.31570   0.32336

 Mulliken charges:
               1
     1  C   -0.171198
     2  C   -0.222660
     3  C   -0.179103
     4  C    0.156504
     5  C   -0.171880
     6  C   -0.219507
     7  H    0.223809
     8  H    0.230001
     9  H    0.291685
    10  H    0.273105
    11  H    0.220762
    12  N    0.487155
    13  O   -0.464188
    14  O   -0.458211
    15  C   -0.170137
    16  C   -0.218959
    17  C   -0.171717
    18  C    0.155776
    19  C   -0.171598
    20  C   -0.219002
    21  H    0.226630
    22  H    0.223300
    23  H    0.273927
    24  H    0.283665
    25  H    0.227108
    26  N    0.486192
    27  O   -0.458725
    28  O   -0.462734
 Sum of Mulliken charges =  -0.00000

 Dipole moment (field-independent basis, Debye):
    X=             -2.7721    Y=             -2.6783    Z=             -5.5142  Tot=              6.7279
 Quadrupole moment (field-independent basis, Debye-Ang):
   XX=            -85.1756   YY=           -104.5534   ZZ=           -106.8845
   XY=            -19.7531   XZ=              4.7311   YZ=              1.2971

 Normal termination of Gaussian 16 at Thu May  6 11:13:01 2021.
