 Gaussian 16, Revision A.03,
 Gaussian 16:  EM64L-G16RevA.03 25-Dec-2016

 -------------
 #p 6-31g* mp2
 -------------

 ------------------------------------------------------
 Input file generated by CHIRIPA (05-May-2021 14:55:22)
 ------------------------------------------------------
 Symbolic Z-matrix:
 Charge =  0 Multiplicity = 1

                         Standard orientation:
 ---------------------------------------------------------------------
 Center     Atomic      Atomic             Coordinates (Angstroms)
 Number     Number       Type             X           Y           Z
 ---------------------------------------------------------------------
      1          6           0        3.398633    2.601559    0.198802
      2          6           0        4.410265    1.921420   -0.487151
      3          6           0        4.335492    0.537849   -0.673395
      4          6           0        3.229958   -0.137132   -0.158141
      5          6           0        2.205988    0.512198    0.529715
      6          6           0        2.301657    1.896021    0.704155
      7          1           0        3.464835    3.676448    0.338896
      8          1           0        5.263356    2.466764   -0.880702
      9          1           0        5.104497   -0.013671   -1.200533
     10          1           0        1.367855   -0.058680    0.910567
     11          1           0        1.514525    2.421608    1.237284
     12          7           0        3.139738   -1.601990   -0.349061
     13          8           0        2.155404   -2.173641    0.114554
     14          8           0        4.055067   -2.150759   -0.958703
     15          6           0       -4.700334   -0.219037   -0.364122
     16          6           0       -5.830495    0.802839   -0.235711
     17          6           0       -6.917109    0.618806   -1.295521
     18          1           0       -4.255120   -0.139993   -1.365362
     19          1           0       -5.120446   -1.231504   -0.287893
     20          1           0       -5.408192    1.813108   -0.310774
     21          1           0       -6.272944    0.721485    0.765407
     22          1           0       -7.365559   -0.376974   -1.218593
     23          1           0       -6.495893    0.720851   -2.300888
     24          1           0       -7.715090    1.359695   -1.185205
     25          6           0       -3.606425   -0.047957    0.688410
     26          6           0       -2.476262   -1.069832    0.559999
     27          6           0       -1.389649   -0.885799    1.619809
     28          1           0       -3.186313    0.964511    0.612182
     29          1           0       -4.051638   -0.127000    1.689651
     30          1           0       -2.033815   -0.988478   -0.441119
     31          1           0       -2.898566   -2.080100    0.635062
     32          1           0       -1.810865   -0.987844    2.625177
     33          1           0       -0.941199    0.109981    1.542881
     34          1           0       -0.591669   -1.626689    1.509494
 ---------------------------------------------------------------------

 SCF Done:  E(RHF) =  -669.535624896     A.U. after   15 cycles
 E2 =    -0.2091763139D+01 EUMP2 =    -0.67162738803487D+03

 The electronic state is 1-A.
 Alpha  occ. eigenvalues --  -20.60794 -20.60789 -15.85838 -11.31134 -11.27727
 Alpha  occ. eigenvalues --  -11.27629 -11.27472 -11.26733 -11.26712 -11.21660
 Alpha  occ. eigenvalues --  -11.21598 -11.21465 -11.21390 -11.21222 -11.21104
 Alpha  occ. eigenvalues --   -1.59861  -1.39417  -1.19317  -1.08730  -1.08481
 Alpha  occ. eigenvalues --   -1.04716  -1.03589  -0.96071  -0.95565  -0.87099
 Alpha  occ. eigenvalues --   -0.86112  -0.82407  -0.79662  -0.78291  -0.77451
 Alpha  occ. eigenvalues --   -0.72063  -0.71179  -0.70441  -0.65135  -0.64975
 Alpha  occ. eigenvalues --   -0.64725  -0.62135  -0.60955  -0.59380  -0.57638
 Alpha  occ. eigenvalues --   -0.55474  -0.55145  -0.53050  -0.52958  -0.52559
 Alpha  occ. eigenvalues --   -0.52478  -0.50007  -0.48817  -0.48808  -0.47952
 Alpha  occ. eigenvalues --   -0.46683  -0.45834  -0.45759  -0.44835  -0.43819
 Alpha  occ. eigenvalues --   -0.37310  -0.36316
 Alpha virt. eigenvalues --    0.05070   0.11329   0.16565   0.20603   0.22919
 Alpha virt. eigenvalues --    0.24100   0.25968   0.26865   0.27354   0.27908
 Alpha virt. eigenvalues --    0.29228   0.30375   0.31610   0.31821   0.32235

 Mulliken charges:
               1
     1  C   -0.170237
     2  C   -0.219425
     3  C   -0.169861
     4  C    0.156012
     5  C   -0.178400
     6  C   -0.223751
     7  H    0.225389
     8  H    0.223223
     9  H    0.275325
    10  H    0.292051
    11  H    0.223367
    12  N    0.489135
    13  O   -0.463872
    14  O   -0.460003
    15  C   -0.298483
    16  C   -0.299462
    17  C   -0.475746
    18  H    0.150352
    19  H    0.151177
    20  H    0.150333
    21  H    0.151866
    22  H    0.156035
    23  H    0.155400
    24  H    0.159919
    25  C   -0.298244
    26  C   -0.298813
    27  C   -0.490384
    28  H    0.145430
    29  H    0.149513
    30  H    0.155560
    31  H    0.156544
    32  H    0.157288
    33  H    0.138920
    34  H    0.183842
 Sum of Mulliken charges =  -0.00000

 Dipole moment (field-independent basis, Debye):
    X=              0.2661    Y=              5.0004    Z=              0.6527  Tot=              5.0498
 Quadrupole moment (field-independent basis, Debye-Ang):
   XX=            -89.5822   YY=            -96.2174   ZZ=            -94.5904
   XY=             17.4937   XZ=             -1.2376   YZ=             -1.4903

 Normal termination of Gaussian 16 at Thu May  6 07:51:13 2021.
