 Gaussian 16, Revision A.03,
 Gaussian 16:  EM64L-G16RevA.03 25-Dec-2016

 -------------
 #p 6-31g* mp2
 -------------

 ------------------------------------------------------
 Input file generated by CHIRIPA (05-May-2021 14:53:14)
 ------------------------------------------------------
 Symbolic Z-matrix:
 Charge =  0 Multiplicity = 1

                         Standard orientation:
 ---------------------------------------------------------------------
 Center     Atomic      Atomic             Coordinates (Angstroms)
 Number     Number       Type             X           Y           Z
 ---------------------------------------------------------------------
      1          6           0        5.775981   -0.430053   -0.095229
      2          6           0        6.702120    0.780018   -0.221635
      3          6           0        8.164870    0.385860   -0.428501
      4          1           0        6.111265   -1.054275    0.744340
      5          1           0        5.865863   -1.047849   -0.999466
      6          1           0        6.609484    1.396075    0.681974
      7          1           0        6.364477    1.401533   -1.060881
      8          1           0        8.278101   -0.209931   -1.339990
      9          1           0        8.524501   -0.215419    0.412767
     10          1           0        8.809292    1.266124   -0.516336
     11          6           0        4.310371   -0.052195    0.111987
     12          6           0        3.384232   -1.262266    0.238394
     13          6           0        1.921481   -0.868107    0.445259
     14          1           0        4.220489    0.565601    1.016224
     15          1           0        3.975086    0.572028   -0.727581
     16          1           0        3.721875   -1.883780    1.077639
     17          1           0        3.476867   -1.878323   -0.665215
     18          1           0        1.561851   -0.266828   -0.396008
     19          1           0        1.808251   -0.272317    1.356749
     20          1           0        1.277060   -1.748372    0.533095
     21          6           0       -1.642548    1.166094    0.356492
     22          6           0       -2.746155    2.011100    0.199850
     23          6           0       -4.023749    1.480423   -0.001859
     24          6           0       -4.162089    0.093856   -0.041644
     25          6           0       -3.082089   -0.774224    0.111093
     26          6           0       -1.813736   -0.221425    0.311693
     27          1           0       -0.653672    1.586929    0.512754
     28          1           0       -2.616189    3.089049    0.234193
     29          1           0       -4.895376    2.111499   -0.126064
     30          1           0       -3.243044   -1.844735    0.072130
     31          1           0       -0.958468   -0.880089    0.433035
     32          7           0       -5.509728   -0.479657   -0.254597
     33          8           0       -5.605097   -1.704638   -0.285657
     34          8           0       -6.445122    0.306663   -0.386417
 ---------------------------------------------------------------------

 SCF Done:  E(RHF) =  -669.535355160     A.U. after   15 cycles
 E2 =    -0.2091379973D+01 EUMP2 =    -0.67162673513326D+03

 The electronic state is 1-A.
 Alpha  occ. eigenvalues --  -20.60673 -20.60668 -15.85723 -11.31060 -11.27626
 Alpha  occ. eigenvalues --  -11.27599 -11.27328 -11.26641 -11.26528 -11.22623
 Alpha  occ. eigenvalues --  -11.22517 -11.22234 -11.22162 -11.22027 -11.21528
 Alpha  occ. eigenvalues --   -1.59749  -1.39303  -1.19220  -1.09227  -1.08619
 Alpha  occ. eigenvalues --   -1.04624  -1.04370  -0.96870  -0.95461  -0.87918
 Alpha  occ. eigenvalues --   -0.86004  -0.82295  -0.80469  -0.78991  -0.77346
 Alpha  occ. eigenvalues --   -0.71942  -0.71071  -0.70326  -0.65847  -0.64868
 Alpha  occ. eigenvalues --   -0.64642  -0.62016  -0.61752  -0.60242  -0.58442
 Alpha  occ. eigenvalues --   -0.56144  -0.55120  -0.53692  -0.53282  -0.52952
 Alpha  occ. eigenvalues --   -0.52560  -0.50789  -0.48766  -0.48699  -0.48695
 Alpha  occ. eigenvalues --   -0.47452  -0.46546  -0.46431  -0.44715  -0.44603
 Alpha  occ. eigenvalues --   -0.37199  -0.36221
 Alpha virt. eigenvalues --    0.05174   0.11406   0.16677   0.20319   0.22246
 Alpha virt. eigenvalues --    0.23742   0.25788   0.25897   0.26222   0.27515
 Alpha virt. eigenvalues --    0.29314   0.29489   0.30523   0.31572   0.32186

 Mulliken charges:
               1
     1  C   -0.299088
     2  C   -0.300153
     3  C   -0.476140
     4  H    0.151231
     5  H    0.151258
     6  H    0.152141
     7  H    0.152274
     8  H    0.156165
     9  H    0.156052
    10  H    0.161679
    11  C   -0.299724
    12  C   -0.299130
    13  C   -0.486327
    14  H    0.149436
    15  H    0.149728
    16  H    0.156030
    17  H    0.156171
    18  H    0.155763
    19  H    0.155989
    20  H    0.158632
    21  C   -0.175894
    22  C   -0.218483
    23  C   -0.171677
    24  C    0.158944
    25  C   -0.173175
    26  C   -0.224871
    27  H    0.226843
    28  H    0.222688
    29  H    0.274982
    30  H    0.275251
    31  H    0.237083
    32  N    0.487976
    33  O   -0.460769
    34  O   -0.460884
 Sum of Mulliken charges =  -0.00000

 Dipole moment (field-independent basis, Debye):
    X=              5.0888    Y=              1.9766    Z=              0.7431  Tot=              5.5095
 Quadrupole moment (field-independent basis, Debye-Ang):
   XX=           -134.4513   YY=            -90.1906   ZZ=            -94.7012
   XY=            -10.0629   XZ=             -2.9541   YZ=             -0.2818

 Normal termination of Gaussian 16 at Thu May  6 20:19:46 2021.
