 Gaussian 16, Revision A.03,
 Gaussian 16:  EM64L-G16RevA.03 25-Dec-2016

 -------------
 #p 6-31g* mp2
 -------------

 ------------------------------------------------------
 Input file generated by CHIRIPA (05-May-2021 14:51:11)
 ------------------------------------------------------
 Symbolic Z-matrix:
 Charge =  0 Multiplicity = 1

                         Standard orientation:
 ---------------------------------------------------------------------
 Center     Atomic      Atomic             Coordinates (Angstroms)
 Number     Number       Type             X           Y           Z
 ---------------------------------------------------------------------
      1          6           0       -4.710889   -0.427020   -0.272790
      2          6           0       -4.714034   -1.776166    0.446779
      3          6           0       -5.764770   -2.739035   -0.106964
      4          1           0       -5.707356    0.028041   -0.189617
      5          1           0       -4.530688   -0.591201   -1.344223
      6          1           0       -4.892799   -1.609376    1.516751
      7          1           0       -3.717390   -2.227980    0.362047
      8          1           0       -5.586171   -2.934764   -1.169223
      9          1           0       -6.768259   -2.312645   -0.007957
     10          1           0       -5.749594   -3.697185    0.421789
     11          6           0       -3.665843    0.546380    0.269519
     12          6           0       -3.662698    1.895526   -0.450051
     13          6           0       -2.611962    2.858395    0.103692
     14          1           0       -3.846043    0.710561    1.340951
     15          1           0       -2.669376    0.091319    0.186345
     16          1           0       -4.659342    2.347340   -0.365319
     17          1           0       -3.483933    1.728736   -1.520023
     18          1           0       -1.608473    2.432005    0.004686
     19          1           0       -2.790560    3.054124    1.165951
     20          1           0       -2.627138    3.816544   -0.425060
     21          6           0        3.628766    0.345398    0.327507
     22          6           0        2.299484    0.256048   -0.422832
     23          6           0        1.189783    1.071694    0.241306
     24          1           0        3.483985   -0.001987    1.359644
     25          1           0        3.935193    1.398632    0.392277
     26          1           0        1.996347   -0.796833   -0.487375
     27          1           0        2.447490    0.603506   -1.453359
     28          1           0        1.466891    2.129640    0.291925
     29          1           0        1.013185    0.721345    1.263397
     30          1           0        0.248414    0.993637   -0.311497
     31          6           0        4.747966   -0.464757   -0.324236
     32          6           0        6.077248   -0.375408    0.426104
     33          6           0        7.186949   -1.191054   -0.238035
     34          1           0        4.441539   -1.517992   -0.389005
     35          1           0        4.892747   -0.117373   -1.356373
     36          1           0        5.929243   -0.722865    1.456630
     37          1           0        6.380385    0.677473    0.490646
     38          1           0        7.363547   -0.840705   -1.260126
     39          1           0        6.909840   -2.249000   -0.288654
     40          1           0        8.128318   -1.112996    0.314769
 ---------------------------------------------------------------------

 SCF Done:  E(RHF) =  -470.733165933     A.U. after   11 cycles
 E2 =    -0.1582473365D+01 EUMP2 =    -0.47231563929818D+03

 The electronic state is 1-A.
 Alpha  occ. eigenvalues --  -11.21647 -11.21618 -11.21584 -11.21545 -11.21432
 Alpha  occ. eigenvalues --  -11.21374 -11.21372 -11.21313 -11.21131 -11.21084
 Alpha  occ. eigenvalues --  -11.21059 -11.20933  -1.08460  -1.08394  -1.03570
 Alpha  occ. eigenvalues --   -1.03480  -0.96033  -0.95918  -0.87067  -0.86920
 Alpha  occ. eigenvalues --   -0.79664  -0.79515  -0.78273  -0.78203  -0.65088
 Alpha  occ. eigenvalues --   -0.65033  -0.60963  -0.60917  -0.59440  -0.59259
 Alpha  occ. eigenvalues --   -0.57654  -0.57516  -0.55322  -0.55211  -0.52809
 Alpha  occ. eigenvalues --   -0.52623  -0.52440  -0.52280  -0.49975  -0.49831
 Alpha  occ. eigenvalues --   -0.47959  -0.47846  -0.46659  -0.46576  -0.45815
 Alpha  occ. eigenvalues --   -0.45746  -0.45735  -0.45678  -0.43773  -0.43730
 Alpha virt. eigenvalues --    0.21504   0.23001   0.23626   0.24858   0.26155
 Alpha virt. eigenvalues --    0.26621   0.27173   0.27455   0.27885   0.28839
 Alpha virt. eigenvalues --    0.30501   0.31357   0.31699   0.31801   0.32037

 Mulliken charges:
               1
     1  C   -0.298214
     2  C   -0.299599
     3  C   -0.475680
     4  H    0.149687
     5  H    0.149345
     6  H    0.151906
     7  H    0.151821
     8  H    0.155133
     9  H    0.155177
    10  H    0.160143
    11  C   -0.299650
    12  C   -0.299300
    13  C   -0.483529
    14  H    0.149625
    15  H    0.150430
    16  H    0.151712
    17  H    0.151135
    18  H    0.164552
    19  H    0.154806
    20  H    0.159474
    21  C   -0.298755
    22  C   -0.299759
    23  C   -0.479696
    24  H    0.149813
    25  H    0.149754
    26  H    0.151820
    27  H    0.152109
    28  H    0.156310
    29  H    0.156291
    30  H    0.162842
    31  C   -0.298288
    32  C   -0.299648
    33  C   -0.475718
    34  H    0.149529
    35  H    0.149690
    36  H    0.152004
    37  H    0.152009
    38  H    0.155199
    39  H    0.155191
    40  H    0.160331
 Sum of Mulliken charges =  -0.00000

 Dipole moment (field-independent basis, Debye):
    X=              0.0492    Y=             -0.0018    Z=              0.0124  Tot=              0.0508
 Quadrupole moment (field-independent basis, Debye-Ang):
   XX=            -85.6704   YY=            -84.9964   ZZ=            -84.2324
   XY=             -0.0395   XZ=             -0.5145   YZ=             -0.6422

 Normal termination of Gaussian 16 at Wed May  5 18:16:14 2021.
