 Gaussian 16, Revision A.03,
 Gaussian 16:  EM64L-G16RevA.03 25-Dec-2016

 -------------
 #p 6-31g* mp2
 -------------

 ------------------------------------------------------
 Input file generated by CHIRIPA (05-May-2021 14:57:25)
 ------------------------------------------------------
 Symbolic Z-matrix:
 Charge =  0 Multiplicity = 1

                         Standard orientation:
 ---------------------------------------------------------------------
 Center     Atomic      Atomic             Coordinates (Angstroms)
 Number     Number       Type             X           Y           Z
 ---------------------------------------------------------------------
      1          6           0       -6.017550    0.810435   -0.702893
      2          6           0       -5.429866    1.434663    0.402316
      3          6           0       -4.193351    1.000084    0.888856
      4          6           0       -3.569551   -0.066301    0.243111
      5          6           0       -4.129496   -0.708735   -0.860080
      6          6           0       -5.366637   -0.257389   -1.329459
      7          1           0       -6.978347    1.154538   -1.074183
      8          1           0       -5.933087    2.264179    0.890902
      9          1           0       -3.715815    1.465252    1.742669
     10          1           0       -3.603768   -1.533216   -1.326192
     11          1           0       -5.820675   -0.744069   -2.187968
     12          7           0       -2.260177   -0.535246    0.749105
     13          8           0       -1.730948   -1.476777    0.162528
     14          8           0       -1.787911    0.047607    1.722699
     15          6           0        5.897247    1.368023   -0.095236
     16          6           0        5.937909    0.009540    0.235514
     17          6           0        4.773949   -0.764218    0.203241
     18          6           0        3.581181   -0.144304   -0.165950
     19          6           0        3.508362    1.206905   -0.500947
     20          6           0        4.684740    1.961323   -0.461766
     21          1           0        6.806263    1.961585   -0.067482
     22          1           0        6.878145   -0.453887    0.520536
     23          1           0        4.776923   -1.817921    0.454477
     24          1           0        2.556194    1.640810   -0.781165
     25          1           0        4.650173    3.016125   -0.719136
     26          7           0        2.342375   -0.953210   -0.203774
     27          8           0        1.304120   -0.383374   -0.532331
     28          8           0        2.433111   -2.141749    0.095853
 ---------------------------------------------------------------------

 SCF Done:  E(RHF) =  -868.334738386     A.U. after   16 cycles
 E2 =    -0.2600676814D+01 EUMP2 =    -0.87093541520003D+03

 The electronic state is 1-A.
 Alpha  occ. eigenvalues --  -20.59531 -20.59494 -20.59487 -20.59355 -15.84597
 Alpha  occ. eigenvalues --  -15.84494 -11.30355 -11.30318 -11.26977 -11.26972
 Alpha  occ. eigenvalues --  -11.26962 -11.26915 -11.26802 -11.26780 -11.26090
 Alpha  occ. eigenvalues --  -11.26079 -11.26078 -11.26049  -1.58570  -1.58478
 Alpha  occ. eigenvalues --   -1.38125  -1.38029  -1.18567  -1.18534  -1.07890
 Alpha  occ. eigenvalues --   -1.07841  -1.04033  -1.04007  -0.94668  -0.94586
 Alpha  occ. eigenvalues --   -0.85414  -0.85384  -0.81503  -0.81432  -0.76472
 Alpha  occ. eigenvalues --   -0.76405  -0.70880  -0.70660  -0.69938  -0.69776
 Alpha  occ. eigenvalues --   -0.69678  -0.69644  -0.64217  -0.64177  -0.64048
 Alpha  occ. eigenvalues --   -0.64014  -0.61381  -0.61350  -0.54533  -0.54497
 Alpha  occ. eigenvalues --   -0.52338  -0.52311  -0.52137  -0.52108  -0.47826
 Alpha  occ. eigenvalues --   -0.47539  -0.47464  -0.47148  -0.43442  -0.43304
 Alpha  occ. eigenvalues --   -0.36573  -0.36540  -0.35655  -0.35633
 Alpha virt. eigenvalues --    0.06064   0.06168   0.11994   0.12015   0.17495
 Alpha virt. eigenvalues --    0.17563   0.22054   0.22084   0.27934   0.27960
 Alpha virt. eigenvalues --    0.28980   0.29022   0.31566   0.31598   0.33241

 Mulliken charges:
               1
     1  C   -0.172502
     2  C   -0.218674
     3  C   -0.172265
     4  C    0.160184
     5  C   -0.171121
     6  C   -0.218728
     7  H    0.222205
     8  H    0.219975
     9  H    0.273468
    10  H    0.277457
    11  H    0.221028
    12  N    0.488315
    13  O   -0.442708
    14  O   -0.466655
    15  C   -0.172189
    16  C   -0.218513
    17  C   -0.171403
    18  C    0.160321
    19  C   -0.170678
    20  C   -0.218530
    21  H    0.222469
    22  H    0.220896
    23  H    0.275091
    24  H    0.274573
    25  H    0.220335
    26  N    0.488111
    27  O   -0.450922
    28  O   -0.459540
 Sum of Mulliken charges =  -0.00000

 Dipole moment (field-independent basis, Debye):
    X=             -0.2168    Y=              4.2540    Z=             -1.6839  Tot=              4.5803
 Quadrupole moment (field-independent basis, Debye-Ang):
   XX=            -43.5703   YY=           -100.9170   ZZ=           -104.2426
   XY=              1.6430   XZ=              6.0681   YZ=              1.5906

 Normal termination of Gaussian 16 at Thu May  6 13:02:14 2021.
