 Gaussian 16, Revision A.03,
 Gaussian 16:  EM64L-G16RevA.03 25-Dec-2016

 -------------
 #p 6-31g* mp2
 -------------

 ------------------------------------------------------
 Input file generated by CHIRIPA (05-May-2021 14:55:20)
 ------------------------------------------------------
 Symbolic Z-matrix:
 Charge =  0 Multiplicity = 1

                         Standard orientation:
 ---------------------------------------------------------------------
 Center     Atomic      Atomic             Coordinates (Angstroms)
 Number     Number       Type             X           Y           Z
 ---------------------------------------------------------------------
      1          6           0       -1.672727   -2.201586    1.470509
      2          6           0       -2.859610   -2.338299    0.743089
      3          6           0       -3.321294   -1.295015   -0.064968
      4          6           0       -2.567681   -0.123670   -0.122478
      5          6           0       -1.381308    0.042886    0.590311
      6          6           0       -0.938659   -1.013525    1.391937
      7          1           0       -1.321473   -3.017133    2.095730
      8          1           0       -3.431754   -3.259821    0.802188
      9          1           0       -4.236739   -1.374077   -0.638664
     10          1           0       -0.832642    0.973541    0.511153
     11          1           0       -0.016554   -0.904545    1.955756
     12          7           0       -3.046370    0.987757   -0.974528
     13          8           0       -2.364135    2.009552   -1.008103
     14          8           0       -4.094736    0.816052   -1.592656
     15          6           0        2.534174    0.756256    0.140994
     16          6           0        2.745366    2.066069    0.901107
     17          6           0        1.432793    2.781637    1.221907
     18          1           0        1.990903    0.964070   -0.791001
     19          1           0        1.890719    0.094252    0.736907
     20          1           0        3.389361    2.724864    0.304555
     21          1           0        3.288365    1.855140    1.831310
     22          1           0        0.787962    2.146041    1.837383
     23          1           0        0.889532    3.020706    0.301954
     24          1           0        1.607077    3.715494    1.765412
     25          6           0        3.837122    0.029270   -0.186946
     26          6           0        3.625930   -1.280543   -0.947059
     27          6           0        4.938502   -1.996111   -1.267859
     28          1           0        4.480576    0.691274   -0.782859
     29          1           0        4.380393   -0.178544    0.745049
     30          1           0        3.082930   -1.069614   -1.877261
     31          1           0        2.981934   -1.939339   -0.350507
     32          1           0        5.481763   -2.235181   -0.347906
     33          1           0        5.583334   -1.360514   -1.883335
     34          1           0        4.764219   -2.929967   -1.811364
 ---------------------------------------------------------------------

 SCF Done:  E(RHF) =  -669.534811333     A.U. after   15 cycles
 E2 =    -0.2093414245D+01 EUMP2 =    -0.67162822557823D+03

 The electronic state is 1-A.
 Alpha  occ. eigenvalues --  -20.60721 -20.60716 -15.85769 -11.31085 -11.27691
 Alpha  occ. eigenvalues --  -11.27585 -11.27438 -11.26697 -11.26670 -11.22084
 Alpha  occ. eigenvalues --  -11.22002 -11.21973 -11.21827 -11.21564 -11.21404
 Alpha  occ. eigenvalues --   -1.59793  -1.39348  -1.19277  -1.08934  -1.08684
 Alpha  occ. eigenvalues --   -1.04685  -1.03984  -0.96445  -0.95520  -0.87462
 Alpha  occ. eigenvalues --   -0.86078  -0.82371  -0.80059  -0.78795  -0.77368
 Alpha  occ. eigenvalues --   -0.71991  -0.71114  -0.70397  -0.65605  -0.64926
 Alpha  occ. eigenvalues --   -0.64691  -0.62106  -0.61337  -0.59777  -0.58064
 Alpha  occ. eigenvalues --   -0.55747  -0.55197  -0.53149  -0.53093  -0.52960
 Alpha  occ. eigenvalues --   -0.52550  -0.50379  -0.48751  -0.48742  -0.48330
 Alpha  occ. eigenvalues --   -0.47072  -0.46270  -0.46194  -0.44762  -0.44242
 Alpha  occ. eigenvalues --   -0.37269  -0.36254
 Alpha virt. eigenvalues --    0.05105   0.11327   0.16511   0.19719   0.22777
 Alpha virt. eigenvalues --    0.23810   0.25047   0.26304   0.27032   0.28479
 Alpha virt. eigenvalues --    0.29811   0.30551   0.31402   0.31574   0.32205

 Mulliken charges:
               1
     1  C   -0.170704
     2  C   -0.219418
     3  C   -0.169826
     4  C    0.156594
     5  C   -0.176297
     6  C   -0.224473
     7  H    0.225172
     8  H    0.223078
     9  H    0.275259
    10  H    0.290093
    11  H    0.223777
    12  N    0.487803
    13  O   -0.461510
    14  O   -0.460610
    15  C   -0.305049
    16  C   -0.299062
    17  C   -0.486779
    18  H    0.156916
    19  H    0.140548
    20  H    0.156879
    21  H    0.151111
    22  H    0.144566
    23  H    0.170428
    24  H    0.167266
    25  C   -0.298320
    26  C   -0.299477
    27  C   -0.476052
    28  H    0.153092
    29  H    0.148797
    30  H    0.155438
    31  H    0.148014
    32  H    0.154517
    33  H    0.157093
    34  H    0.161136
 Sum of Mulliken charges =  -0.00000

 Dipole moment (field-independent basis, Debye):
    X=              1.8249    Y=             -3.7689    Z=              2.8753  Tot=              5.0796
 Quadrupole moment (field-independent basis, Debye-Ang):
   XX=           -101.0031   YY=            -92.3642   ZZ=            -95.2606
   XY=             13.3033   XZ=             -6.7889   YZ=              0.2399

 Normal termination of Gaussian 16 at Thu May  6 10:50:52 2021.
