 Gaussian 16, Revision A.03,
 Gaussian 16:  EM64L-G16RevA.03 25-Dec-2016

 -------------
 #p 6-31g* mp2
 -------------

 ------------------------------------------------------
 Input file generated by CHIRIPA (05-May-2021 14:53:16)
 ------------------------------------------------------
 Symbolic Z-matrix:
 Charge =  0 Multiplicity = 1

                         Standard orientation:
 ---------------------------------------------------------------------
 Center     Atomic      Atomic             Coordinates (Angstroms)
 Number     Number       Type             X           Y           Z
 ---------------------------------------------------------------------
      1          6           0        2.746576    0.922055   -0.001959
      2          6           0        3.268831    2.325723   -0.310099
      3          6           0        2.145831    3.331537   -0.565059
      4          1           0        2.126115    0.576397   -0.840109
      5          1           0        2.087909    0.968080    0.876355
      6          1           0        3.927415    2.276838   -1.186737
      7          1           0        3.888276    2.668003    0.528797
      8          1           0        1.492748    3.409827    0.310129
      9          1           0        1.532109    3.016439   -1.415152
     10          1           0        2.541567    4.328341   -0.783315
     11          6           0        3.857347   -0.094693    0.255214
     12          6           0        3.335092   -1.498361    0.563355
     13          6           0        4.458092   -2.504174    0.818314
     14          1           0        4.516013   -0.140717   -0.623099
     15          1           0        4.477807    0.250966    1.093364
     16          1           0        2.715646   -1.840640   -0.275542
     17          1           0        2.676508   -1.449476    1.439992
     18          1           0        5.071814   -2.189077    1.668408
     19          1           0        5.111175   -2.582464   -0.056874
     20          1           0        4.062356   -3.500978    1.036570
     21          6           0       -4.304764    1.272452    0.819690
     22          6           0       -4.639978   -0.066561    0.593427
     23          6           0       -3.692187   -0.959564    0.084717
     24          6           0       -2.412880   -0.477449   -0.187736
     25          6           0       -2.048406    0.850841    0.026956
     26          6           0       -3.012327    1.726080    0.536232
     27          1           0       -5.047296    1.959259    1.215088
     28          1           0       -5.642927   -0.421643    0.812643
     29          1           0       -3.924793   -2.001303   -0.099923
     30          1           0       -1.040449    1.175418   -0.201276
     31          1           0       -2.749174    2.765439    0.710958
     32          7           0       -1.400958   -1.413428   -0.726583
     33          8           0       -0.280784   -0.963875   -0.958420
     34          8           0       -1.747149   -2.578880   -0.906894
 ---------------------------------------------------------------------

 SCF Done:  E(RHF) =  -669.536269919     A.U. after   15 cycles
 E2 =    -0.2091985685D+01 EUMP2 =    -0.67162825560422D+03

 The electronic state is 1-A.
 Alpha  occ. eigenvalues --  -20.60902 -20.60893 -15.85934 -11.31235 -11.27805
 Alpha  occ. eigenvalues --  -11.27776 -11.27541 -11.26809 -11.26791 -11.21209
 Alpha  occ. eigenvalues --  -11.21069 -11.20590 -11.20531 -11.20435 -11.20180
 Alpha  occ. eigenvalues --   -1.59961  -1.39518  -1.19405  -1.08815  -1.07688
 Alpha  occ. eigenvalues --   -1.04797  -1.02882  -0.95661  -0.95372  -0.86407
 Alpha  occ. eigenvalues --   -0.86199  -0.82498  -0.78945  -0.77654  -0.77307
 Alpha  occ. eigenvalues --   -0.72159  -0.71272  -0.70514  -0.65066  -0.64800
 Alpha  occ. eigenvalues --   -0.64312  -0.62142  -0.60285  -0.58773  -0.56947
 Alpha  occ. eigenvalues --   -0.55307  -0.54681  -0.53134  -0.52888  -0.52105
 Alpha  occ. eigenvalues --   -0.51809  -0.49362  -0.48923  -0.48915  -0.47246
 Alpha  occ. eigenvalues --   -0.45945  -0.45149  -0.44889  -0.44682  -0.43092
 Alpha  occ. eigenvalues --   -0.37388  -0.36399
 Alpha virt. eigenvalues --    0.04971   0.11248   0.16467   0.20576   0.23226
 Alpha virt. eigenvalues --    0.24363   0.26779   0.27258   0.27699   0.28642
 Alpha virt. eigenvalues --    0.29478   0.30973   0.31893   0.32105   0.32284

 Mulliken charges:
               1
     1  C   -0.304927
     2  C   -0.298412
     3  C   -0.477057
     4  H    0.172370
     5  H    0.142227
     6  H    0.152575
     7  H    0.149674
     8  H    0.146805
     9  H    0.155049
    10  H    0.159989
    11  C   -0.298271
    12  C   -0.302508
    13  C   -0.475748
    14  H    0.147737
    15  H    0.144195
    16  H    0.172541
    17  H    0.147965
    18  H    0.150189
    19  H    0.153227
    20  H    0.160291
    21  C   -0.170491
    22  C   -0.218788
    23  C   -0.170660
    24  C    0.157354
    25  C   -0.173461
    26  C   -0.219413
    27  H    0.225790
    28  H    0.223549
    29  H    0.275544
    30  H    0.280084
    31  H    0.224278
    32  N    0.494243
    33  O   -0.466320
    34  O   -0.459620
 Sum of Mulliken charges =  -0.00000

 Dipole moment (field-independent basis, Debye):
    X=             -3.7283    Y=              3.1371    Z=              1.7481  Tot=              5.1767
 Quadrupole moment (field-independent basis, Debye-Ang):
   XX=            -76.8166   YY=            -96.5763   ZZ=            -95.4992
   XY=             -3.1190   XZ=             -4.8411   YZ=             -1.0962

 Normal termination of Gaussian 16 at Wed May  5 23:36:27 2021.
