 Gaussian 16, Revision A.03,
 Gaussian 16:  EM64L-G16RevA.03 25-Dec-2016

 -------------
 #p 6-31g* mp2
 -------------

 ------------------------------------------------------
 Input file generated by CHIRIPA (05-May-2021 14:55:22)
 ------------------------------------------------------
 Symbolic Z-matrix:
 Charge =  0 Multiplicity = 1

                         Standard orientation:
 ---------------------------------------------------------------------
 Center     Atomic      Atomic             Coordinates (Angstroms)
 Number     Number       Type             X           Y           Z
 ---------------------------------------------------------------------
      1          6           0       -0.747638   -0.663671    0.615208
      2          6           0       -1.697540   -1.679586    0.763944
      3          6           0       -3.041117   -1.445956    0.456104
      4          6           0       -3.401458   -0.178926   -0.000056
      5          6           0       -2.478527    0.853702   -0.158701
      6          6           0       -1.140470    0.597507    0.155172
      7          1           0        0.293941   -0.853925    0.856689
      8          1           0       -1.395333   -2.660003    1.121013
      9          1           0       -3.797219   -2.214402    0.562025
     10          1           0       -2.810041    1.820810   -0.516775
     11          1           0       -0.404935    1.388371    0.038694
     12          7           0       -4.820921    0.080351   -0.329145
     13          8           0       -5.112835    1.205234   -0.729224
     14          8           0       -5.614704   -0.846218   -0.180776
     15          6           0        4.005951   -0.471971    0.030700
     16          6           0        5.181758   -1.240279   -0.573588
     17          6           0        5.070467   -2.750914   -0.365279
     18          1           0        3.945973   -0.691918    1.105396
     19          1           0        3.070456   -0.836659   -0.415669
     20          1           0        6.114865   -0.873289   -0.127220
     21          1           0        5.239060   -1.018328   -1.646933
     22          1           0        4.155441   -3.136955   -0.826039
     23          1           0        5.036223   -2.991091    0.702309
     24          1           0        5.921295   -3.280581   -0.805058
     25          6           0        4.102883    1.039416   -0.169406
     26          6           0        2.927076    1.807726    0.434882
     27          6           0        3.038367    3.318360    0.226572
     28          1           0        5.038378    1.404105    0.276963
     29          1           0        4.162861    1.259363   -1.244102
     30          1           0        2.869774    1.585774    1.508227
     31          1           0        1.993969    1.440735   -0.011487
     32          1           0        3.072611    3.558538   -0.841015
     33          1           0        3.953393    3.704400    0.687333
     34          1           0        2.187539    3.848026    0.666351
 ---------------------------------------------------------------------

 SCF Done:  E(RHF) =  -669.535643413     A.U. after   15 cycles
 E2 =    -0.2091572662D+01 EUMP2 =    -0.67162721607450D+03

 The electronic state is 1-A.
 Alpha  occ. eigenvalues --  -20.60716 -20.60711 -15.85769 -11.31121 -11.27691
 Alpha  occ. eigenvalues --  -11.27684 -11.27399 -11.26698 -11.26663 -11.22851
 Alpha  occ. eigenvalues --  -11.22473 -11.22410 -11.22372 -11.22065 -11.21821
 Alpha  occ. eigenvalues --   -1.59792  -1.39346  -1.19290  -1.09454  -1.08683
 Alpha  occ. eigenvalues --   -1.04695  -1.04501  -0.96922  -0.95521  -0.87937
 Alpha  occ. eigenvalues --   -0.86094  -0.82355  -0.80595  -0.79291  -0.77408
 Alpha  occ. eigenvalues --   -0.71987  -0.71115  -0.70387  -0.66099  -0.64939
 Alpha  occ. eigenvalues --   -0.64707  -0.62137  -0.61805  -0.60296  -0.58549
 Alpha  occ. eigenvalues --   -0.56196  -0.55172  -0.53608  -0.53345  -0.53022
 Alpha  occ. eigenvalues --   -0.52797  -0.50854  -0.48905  -0.48743  -0.48728
 Alpha  occ. eigenvalues --   -0.47612  -0.46804  -0.46723  -0.44762  -0.44754
 Alpha  occ. eigenvalues --   -0.37265  -0.36299
 Alpha virt. eigenvalues --    0.05122   0.11332   0.16603   0.19207   0.22449
 Alpha virt. eigenvalues --    0.23076   0.24893   0.25454   0.26142   0.28050
 Alpha virt. eigenvalues --    0.29511   0.30604   0.30708   0.31263   0.31612

 Mulliken charges:
               1
     1  C   -0.175538
     2  C   -0.218931
     3  C   -0.171138
     4  C    0.158678
     5  C   -0.171298
     6  C   -0.224419
     7  H    0.229961
     8  H    0.223333
     9  H    0.275314
    10  H    0.275554
    11  H    0.230048
    12  N    0.487963
    13  O   -0.460599
    14  O   -0.460619
    15  C   -0.301483
    16  C   -0.300117
    17  C   -0.476588
    18  H    0.148924
    19  H    0.145522
    20  H    0.154751
    21  H    0.154670
    22  H    0.154440
    23  H    0.155082
    24  H    0.163787
    25  C   -0.297691
    26  C   -0.306939
    27  C   -0.476973
    28  H    0.154028
    29  H    0.153182
    30  H    0.153636
    31  H    0.144364
    32  H    0.158340
    33  H    0.160335
    34  H    0.160422
 Sum of Mulliken charges =  -0.00000

 Dipole moment (field-independent basis, Debye):
    X=              5.3051    Y=             -0.8625    Z=              1.1380  Tot=              5.4939
 Quadrupole moment (field-independent basis, Debye-Ang):
   XX=           -127.6918   YY=            -90.8970   ZZ=            -94.4596
   XY=              3.7893   XZ=             -3.9767   YZ=             -1.4205

 Normal termination of Gaussian 16 at Thu May  6 09:24:44 2021.
