 Gaussian 16, Revision A.03,
 Gaussian 16:  EM64L-G16RevA.03 25-Dec-2016

 -------------
 #p 6-31g* mp2
 -------------

 ------------------------------------------------------
 Input file generated by CHIRIPA (05-May-2021 14:53:14)
 ------------------------------------------------------
 Symbolic Z-matrix:
 Charge =  0 Multiplicity = 1

                         Standard orientation:
 ---------------------------------------------------------------------
 Center     Atomic      Atomic             Coordinates (Angstroms)
 Number     Number       Type             X           Y           Z
 ---------------------------------------------------------------------
      1          6           0        3.202146    0.869944   -0.271412
      2          6           0        2.190629    1.780363    0.425694
      3          6           0        2.341435    3.248020    0.024404
      4          1           0        4.218639    1.213480   -0.035468
      5          1           0        3.083899    0.967544   -1.359478
      6          1           0        2.309818    1.680032    1.512130
      7          1           0        1.176429    1.434504    0.188218
      8          1           0        2.201512    3.368681   -1.054699
      9          1           0        3.341341    3.615604    0.276736
     10          1           0        1.608576    3.881010    0.534406
     11          6           0        3.063992   -0.600362    0.119537
     12          6           0        4.075509   -1.510781   -0.577569
     13          6           0        3.924703   -2.978438   -0.176280
     14          1           0        3.182239   -0.697962    1.207603
     15          1           0        2.047499   -0.943897   -0.116407
     16          1           0        5.089709   -1.164922   -0.340093
     17          1           0        3.956320   -1.410450   -1.664006
     18          1           0        2.924797   -3.346022   -0.428612
     19          1           0        4.064626   -3.099099    0.902823
     20          1           0        4.657562   -3.611428   -0.686282
     21          6           0       -2.048530    2.380756   -0.102165
     22          6           0       -2.821368    1.731520   -1.070535
     23          6           0       -3.049108    0.354433   -0.991094
     24          6           0       -2.486301   -0.345649    0.074939
     25          6           0       -1.711808    0.272640    1.055331
     26          6           0       -1.497189    1.650530    0.955811
     27          1           0       -1.876712    3.450822   -0.171677
     28          1           0       -3.250795    2.296083   -1.893278
     29          1           0       -3.643445   -0.173384   -1.727022
     30          1           0       -1.296883   -0.316906    1.863843
     31          1           0       -0.896578    2.152093    1.709300
     32          7           0       -2.720455   -1.803935    0.169668
     33          8           0       -2.213520   -2.398114    1.118670
     34          8           0       -3.406484   -2.325148   -0.706880
 ---------------------------------------------------------------------

 SCF Done:  E(RHF) =  -669.534962948     A.U. after   15 cycles
 E2 =    -0.2092827906D+01 EUMP2 =    -0.67162779085435D+03

 The electronic state is 1-A.
 Alpha  occ. eigenvalues --  -20.60818 -20.60813 -15.85872 -11.31258 -11.27807
 Alpha  occ. eigenvalues --  -11.27801 -11.27544 -11.26838 -11.26809 -11.21991
 Alpha  occ. eigenvalues --  -11.21736 -11.21650 -11.21607 -11.21479 -11.20921
 Alpha  occ. eigenvalues --   -1.59894  -1.39446  -1.19432  -1.08826  -1.08644
 Alpha  occ. eigenvalues --   -1.04838  -1.03763  -0.96216  -0.95647  -0.87229
 Alpha  occ. eigenvalues --   -0.86225  -0.82482  -0.79860  -0.78445  -0.77514
 Alpha  occ. eigenvalues --   -0.72088  -0.71219  -0.70516  -0.65294  -0.65074
 Alpha  occ. eigenvalues --   -0.64824  -0.62182  -0.61162  -0.59637  -0.57825
 Alpha  occ. eigenvalues --   -0.55490  -0.55316  -0.53220  -0.52931  -0.52890
 Alpha  occ. eigenvalues --   -0.52632  -0.50136  -0.48850  -0.48842  -0.48155
 Alpha  occ. eigenvalues --   -0.46872  -0.45981  -0.45880  -0.44845  -0.44013
 Alpha  occ. eigenvalues --   -0.37389  -0.36347
 Alpha virt. eigenvalues --    0.04996   0.11146   0.16461   0.20424   0.22813
 Alpha virt. eigenvalues --    0.24070   0.26166   0.26610   0.26861   0.28342
 Alpha virt. eigenvalues --    0.28844   0.30460   0.31292   0.31460   0.32148

 Mulliken charges:
               1
     1  C   -0.297079
     2  C   -0.310528
     3  C   -0.474574
     4  H    0.149699
     5  H    0.150151
     6  H    0.147224
     7  H    0.161237
     8  H    0.156422
     9  H    0.158625
    10  H    0.149666
    11  C   -0.299430
    12  C   -0.299910
    13  C   -0.476557
    14  H    0.148820
    15  H    0.152230
    16  H    0.151123
    17  H    0.152020
    18  H    0.159891
    19  H    0.155404
    20  H    0.160308
    21  C   -0.171553
    22  C   -0.218370
    23  C   -0.171399
    24  C    0.158521
    25  C   -0.171725
    26  C   -0.218520
    27  H    0.226607
    28  H    0.223807
    29  H    0.275748
    30  H    0.276646
    31  H    0.227828
    32  N    0.487963
    33  O   -0.460016
    34  O   -0.460279
 Sum of Mulliken charges =  -0.00000

 Dipole moment (field-independent basis, Debye):
    X=              0.7907    Y=              5.0440    Z=             -0.3708  Tot=              5.1190
 Quadrupole moment (field-independent basis, Debye-Ang):
   XX=            -97.5159   YY=           -100.2747   ZZ=            -91.0087
   XY=            -13.4470   XZ=              3.9559   YZ=              0.5626

 Normal termination of Gaussian 16 at Wed May  5 21:51:47 2021.
