 Gaussian 16, Revision A.03,
 Gaussian 16:  EM64L-G16RevA.03 25-Dec-2016

 -------------
 #p 6-31g* mp2
 -------------

 ------------------------------------------------------
 Input file generated by CHIRIPA (05-May-2021 14:51:12)
 ------------------------------------------------------
 Symbolic Z-matrix:
 Charge =  0 Multiplicity = 1

                         Standard orientation:
 ---------------------------------------------------------------------
 Center     Atomic      Atomic             Coordinates (Angstroms)
 Number     Number       Type             X           Y           Z
 ---------------------------------------------------------------------
      1          6           0       -2.758157    1.482743    0.076255
      2          6           0       -1.234597    1.525576    0.198385
      3          6           0       -0.696987    2.943267    0.395671
      4          1           0       -3.070038    2.115228   -0.766145
      5          1           0       -3.203918    1.922582    0.979159
      6          1           0       -0.791857    1.084528   -0.703875
      7          1           0       -0.926294    0.892764    1.040474
      8          1           0       -1.111218    3.389187    1.305709
      9          1           0       -0.976018    3.582040   -0.448551
     10          1           0        0.394157    2.950654    0.480578
     11          6           0       -3.310656    0.072278   -0.121384
     12          6           0       -4.834216    0.029446   -0.243514
     13          6           0       -5.371826   -1.388245   -0.440801
     14          1           0       -2.864895   -0.367560   -1.024288
     15          1           0       -2.998775   -0.560206    0.721016
     16          1           0       -5.142520    0.662258   -1.085603
     17          1           0       -5.276956    0.470494    0.658746
     18          1           0       -5.092796   -2.027018    0.403422
     19          1           0       -4.957595   -1.834165   -1.350838
     20          1           0       -6.462971   -1.395632   -0.525707
     21          6           0        3.438013   -0.156376    0.208913
     22          6           0        4.663117    0.059940   -0.680081
     23          6           0        5.460345    1.306474   -0.294889
     24          1           0        2.789265    0.728265    0.149899
     25          1           0        3.762724   -0.236598    1.255585
     26          1           0        4.336327    0.138347   -1.724915
     27          1           0        5.308930   -0.825398   -0.619094
     28          1           0        5.814329    1.233272    0.738522
     29          1           0        4.836200    2.202493   -0.373581
     30          1           0        6.331683    1.441964   -0.943173
     31          6           0        2.630801   -1.398646   -0.163784
     32          6           0        1.405697   -1.614962    0.725211
     33          6           0        0.608468   -2.861496    0.340018
     34          1           0        2.306089   -1.318424   -1.210456
     35          1           0        3.279549   -2.283286   -0.104770
     36          1           0        0.759884   -0.729624    0.664223
     37          1           0        1.732487   -1.693369    1.770044
     38          1           0        1.232614   -3.757515    0.418710
     39          1           0        0.254484   -2.788294   -0.693393
     40          1           0       -0.262870   -2.996986    0.988302
 ---------------------------------------------------------------------

 SCF Done:  E(RHF) =  -470.733100273     A.U. after   11 cycles
 E2 =    -0.1583428606D+01 EUMP2 =    -0.47231652887882D+03

 The electronic state is 1-A.
 Alpha  occ. eigenvalues --  -11.21675 -11.21626 -11.21584 -11.21453 -11.21451
 Alpha  occ. eigenvalues --  -11.21388 -11.21369 -11.21301 -11.21149 -11.21083
 Alpha  occ. eigenvalues --  -11.21060 -11.21004  -1.08487  -1.08377  -1.03591
 Alpha  occ. eigenvalues --   -1.03470  -0.96025  -0.95934  -0.87046  -0.86945
 Alpha  occ. eigenvalues --   -0.79740  -0.79477  -0.78358  -0.78131  -0.65115
 Alpha  occ. eigenvalues --   -0.65016  -0.61000  -0.60873  -0.59420  -0.59276
 Alpha  occ. eigenvalues --   -0.57640  -0.57546  -0.55311  -0.55223  -0.52727
 Alpha  occ. eigenvalues --   -0.52623  -0.52465  -0.52348  -0.49974  -0.49884
 Alpha  occ. eigenvalues --   -0.48198  -0.47731  -0.46761  -0.46520  -0.46000
 Alpha  occ. eigenvalues --   -0.45762  -0.45703  -0.45328  -0.43829  -0.43733
 Alpha virt. eigenvalues --    0.20862   0.22877   0.23928   0.24024   0.25825
 Alpha virt. eigenvalues --    0.26091   0.26951   0.27465   0.28922   0.29135
 Alpha virt. eigenvalues --    0.30632   0.31272   0.31614   0.31739   0.32056

 Mulliken charges:
               1
     1  C   -0.297476
     2  C   -0.305085
     3  C   -0.476625
     4  H    0.149735
     5  H    0.149717
     6  H    0.152015
     7  H    0.156803
     8  H    0.155768
     9  H    0.155492
    10  H    0.160729
    11  C   -0.298627
    12  C   -0.299696
    13  C   -0.475668
    14  H    0.149594
    15  H    0.149967
    16  H    0.151968
    17  H    0.151973
    18  H    0.155302
    19  H    0.155339
    20  H    0.160302
    21  C   -0.299448
    22  C   -0.299569
    23  C   -0.475665
    24  H    0.150033
    25  H    0.149467
    26  H    0.151811
    27  H    0.152025
    28  H    0.155165
    29  H    0.154985
    30  H    0.160220
    31  C   -0.297317
    32  C   -0.310383
    33  C   -0.474743
    34  H    0.148808
    35  H    0.149319
    36  H    0.164228
    37  H    0.150512
    38  H    0.154685
    39  H    0.154768
    40  H    0.159571
 Sum of Mulliken charges =  -0.00000

 Dipole moment (field-independent basis, Debye):
    X=             -0.0509    Y=              0.0332    Z=              0.0055  Tot=              0.0610
 Quadrupole moment (field-independent basis, Debye-Ang):
   XX=            -85.2573   YY=            -86.2168   ZZ=            -83.3750
   XY=             -1.4071   XZ=              0.0833   YZ=             -0.7246

 Normal termination of Gaussian 16 at Thu May  6 05:31:27 2021.
