 Gaussian 16, Revision A.03,
 Gaussian 16:  EM64L-G16RevA.03 25-Dec-2016

 -------------
 #p 6-31g* mp2
 -------------

 ------------------------------------------------------
 Input file generated by CHIRIPA (05-May-2021 14:53:14)
 ------------------------------------------------------
 Symbolic Z-matrix:
 Charge =  0 Multiplicity = 1

                         Standard orientation:
 ---------------------------------------------------------------------
 Center     Atomic      Atomic             Coordinates (Angstroms)
 Number     Number       Type             X           Y           Z
 ---------------------------------------------------------------------
      1          6           0       -4.365983   -0.242312    0.344742
      2          6           0       -5.530929    0.561403   -0.233988
      3          6           0       -6.760487    0.558291    0.674843
      4          1           0       -4.692868   -1.276719    0.518217
      5          1           0       -4.097768    0.169702    1.327442
      6          1           0       -5.795962    0.148866   -1.215918
      7          1           0       -5.201177    1.593969   -0.406285
      8          1           0       -6.518542    0.989233    1.651752
      9          1           0       -7.116707   -0.464081    0.837519
     10          1           0       -7.581208    1.138657    0.241886
     11          6           0       -3.129503   -0.248616   -0.552367
     12          6           0       -1.964557   -1.052331    0.026363
     13          6           0       -0.735000   -1.049219   -0.882468
     14          1           0       -3.397718   -0.660630   -1.535068
     15          1           0       -2.802618    0.785791   -0.725843
     16          1           0       -2.294310   -2.084897    0.198659
     17          1           0       -1.699525   -0.639794    1.008293
     18          1           0       -0.378780   -0.026847   -1.045144
     19          1           0       -0.976944   -1.480161   -1.859378
     20          1           0        0.085722   -1.629585   -0.449512
     21          6           0        3.110784   -2.314961    0.301997
     22          6           0        2.923033   -1.735029   -0.956952
     23          6           0        2.820355   -0.347234   -1.091213
     24          6           0        2.910246    0.434111    0.059749
     25          6           0        3.097109   -0.113877    1.327851
     26          6           0        3.197072   -1.503963    1.438376
     27          1           0        3.189492   -3.393924    0.397075
     28          1           0        2.855658   -2.362394   -1.841214
     29          1           0        2.674827    0.128035   -2.053689
     30          1           0        3.160450    0.537507    2.191046
     31          1           0        3.342864   -1.951587    2.417367
     32          7           0        2.802983    1.904520   -0.069824
     33          8           0        2.885405    2.570937    0.959609
     34          8           0        2.638520    2.362767   -1.198362
 ---------------------------------------------------------------------

 SCF Done:  E(RHF) =  -669.534543524     A.U. after   15 cycles
 E2 =    -0.2092974025D+01 EUMP2 =    -0.67162751754936D+03

 The electronic state is 1-A.
 Alpha  occ. eigenvalues --  -20.60809 -20.60803 -15.85858 -11.31206 -11.27794
 Alpha  occ. eigenvalues --  -11.27752 -11.27538 -11.26819 -11.26762 -11.21597
 Alpha  occ. eigenvalues --  -11.21510 -11.21334 -11.21274 -11.21010 -11.20995
 Alpha  occ. eigenvalues --   -1.59882  -1.39436  -1.19399  -1.08798  -1.08371
 Alpha  occ. eigenvalues --   -1.04802  -1.03482  -0.95940  -0.95625  -0.86964
 Alpha  occ. eigenvalues --   -0.86196  -0.82456  -0.79562  -0.78185  -0.77500
 Alpha  occ. eigenvalues --   -0.72077  -0.71206  -0.70506  -0.65048  -0.65002
 Alpha  occ. eigenvalues --   -0.64797  -0.62140  -0.60890  -0.59362  -0.57567
 Alpha  occ. eigenvalues --   -0.55308  -0.55250  -0.53571  -0.52886  -0.52389
 Alpha  occ. eigenvalues --   -0.52117  -0.49869  -0.48835  -0.48832  -0.47872
 Alpha  occ. eigenvalues --   -0.46589  -0.45729  -0.45649  -0.44839  -0.43736
 Alpha  occ. eigenvalues --   -0.37366  -0.36301
 Alpha virt. eigenvalues --    0.05020   0.11203   0.16478   0.21350   0.22916
 Alpha virt. eigenvalues --    0.24329   0.26682   0.27036   0.27592   0.28071
 Alpha virt. eigenvalues --    0.28385   0.30664   0.31474   0.31810   0.32065

 Mulliken charges:
               1
     1  C   -0.298216
     2  C   -0.299844
     3  C   -0.475706
     4  H    0.148017
     5  H    0.150019
     6  H    0.151379
     7  H    0.153845
     8  H    0.155518
     9  H    0.154198
    10  H    0.160471
    11  C   -0.299003
    12  C   -0.299013
    13  C   -0.482384
    14  H    0.148391
    15  H    0.153455
    16  H    0.148777
    17  H    0.152192
    18  H    0.157596
    19  H    0.150138
    20  H    0.164445
    21  C   -0.172027
    22  C   -0.219372
    23  C   -0.165208
    24  C    0.159599
    25  C   -0.171255
    26  C   -0.218146
    27  H    0.225965
    28  H    0.224164
    29  H    0.275923
    30  H    0.275655
    31  H    0.223712
    32  N    0.487690
    33  O   -0.460445
    34  O   -0.460530
 Sum of Mulliken charges =  -0.00000

 Dipole moment (field-independent basis, Debye):
    X=              0.4735    Y=             -5.1434    Z=              0.4563  Tot=              5.1852
 Quadrupole moment (field-independent basis, Debye-Ang):
   XX=            -94.1875   YY=            -99.2484   ZZ=            -89.9245
   XY=            -14.9154   XZ=              2.6422   YZ=              0.7531

 Normal termination of Gaussian 16 at Wed May  5 18:35:54 2021.
