 Gaussian 16, Revision A.03,
 Gaussian 16:  EM64L-G16RevA.03 25-Dec-2016

 -------------
 #p 6-31g* mp2
 -------------

 ------------------------------------------------------
 Input file generated by CHIRIPA (05-May-2021 14:53:12)
 ------------------------------------------------------
 Symbolic Z-matrix:
 Charge =  0 Multiplicity = 1

                         Standard orientation:
 ---------------------------------------------------------------------
 Center     Atomic      Atomic             Coordinates (Angstroms)
 Number     Number       Type             X           Y           Z
 ---------------------------------------------------------------------
      1          6           0       -4.797344   -0.317713    0.321778
      2          6           0       -4.839442   -1.825055    0.068533
      3          6           0       -5.906463   -2.535005    0.902338
      4          1           0       -4.611054   -0.136741    1.389247
      5          1           0       -5.783850    0.112105    0.099384
      6          1           0       -3.852758   -2.251689    0.290015
      7          1           0       -5.025463   -2.002459   -0.998490
      8          1           0       -6.900731   -2.136830    0.675424
      9          1           0       -5.721363   -2.387477    1.971250
     10          1           0       -5.919142   -3.611577    0.705640
     11          6           0       -3.735646    0.405997   -0.504520
     12          6           0       -3.693549    1.913338   -0.251275
     13          6           0       -2.626527    2.623288   -1.085079
     14          1           0       -2.749141   -0.023821   -0.282125
     15          1           0       -3.921936    0.225025   -1.571989
     16          1           0       -3.507527    2.090743    0.815749
     17          1           0       -4.680232    2.339973   -0.472757
     18          1           0       -2.811628    2.475760   -2.153992
     19          1           0       -1.632259    2.225114   -0.858165
     20          1           0       -2.613848    3.699861   -0.888382
     21          6           0        1.775285    1.853036    0.684642
     22          6           0        1.405172    0.932068   -0.300932
     23          6           0        2.260439   -0.117716   -0.648810
     24          6           0        3.483812   -0.216964    0.012096
     25          6           0        3.881018    0.684749    0.998215
     26          6           0        3.009850    1.726660    1.329932
     27          1           0        1.104716    2.665476    0.948605
     28          1           0        0.447008    1.027748   -0.803736
     29          1           0        1.999015   -0.844702   -1.408130
     30          1           0        4.842647    0.563386    1.481906
     31          1           0        3.299916    2.440428    2.095726
     32          7           0        4.397662   -1.324157   -0.347633
     33          8           0        5.469982   -1.389655    0.249425
     34          8           0        4.024314   -2.105510   -1.219833
 ---------------------------------------------------------------------

 SCF Done:  E(RHF) =  -669.535498528     A.U. after   15 cycles
 E2 =    -0.2090972728D+01 EUMP2 =    -0.67162647125561D+03

 The electronic state is 1-A.
 Alpha  occ. eigenvalues --  -20.60745 -20.60740 -15.85798 -11.31163 -11.27735
 Alpha  occ. eigenvalues --  -11.27728 -11.27472 -11.26750 -11.26725 -11.22476
 Alpha  occ. eigenvalues --  -11.22231 -11.22143 -11.22032 -11.21927 -11.21404
 Alpha  occ. eigenvalues --   -1.59821  -1.39374  -1.19336  -1.09107  -1.08732
 Alpha  occ. eigenvalues --   -1.04741  -1.04217  -0.96684  -0.95566  -0.87704
 Alpha  occ. eigenvalues --   -0.86141  -0.82398  -0.80291  -0.78884  -0.77447
 Alpha  occ. eigenvalues --   -0.72017  -0.71144  -0.70444  -0.65755  -0.64989
 Alpha  occ. eigenvalues --   -0.64763  -0.62140  -0.61574  -0.60064  -0.58271
 Alpha  occ. eigenvalues --   -0.55992  -0.55238  -0.53371  -0.53168  -0.53069
 Alpha  occ. eigenvalues --   -0.52784  -0.50627  -0.48789  -0.48772  -0.48583
 Alpha  occ. eigenvalues --   -0.47315  -0.46430  -0.46330  -0.44780  -0.44454
 Alpha  occ. eigenvalues --   -0.37318  -0.36344
 Alpha virt. eigenvalues --    0.05090   0.11296   0.16576   0.19112   0.22591
 Alpha virt. eigenvalues --    0.23801   0.25141   0.26412   0.26970   0.28089
 Alpha virt. eigenvalues --    0.28746   0.30183   0.31071   0.31390   0.31716

 Mulliken charges:
               1
     1  C   -0.298691
     2  C   -0.300398
     3  C   -0.476138
     4  H    0.150336
     5  H    0.151126
     6  H    0.152812
     7  H    0.152867
     8  H    0.155672
     9  H    0.155689
    10  H    0.162318
    11  C   -0.298860
    12  C   -0.299769
    13  C   -0.479887
    14  H    0.145719
    15  H    0.151550
    16  H    0.152063
    17  H    0.156216
    18  H    0.160293
    19  H    0.144582
    20  H    0.163282
    21  C   -0.172919
    22  C   -0.225928
    23  C   -0.171790
    24  C    0.158956
    25  C   -0.171244
    26  C   -0.218619
    27  H    0.225833
    28  H    0.232878
    29  H    0.276210
    30  H    0.275532
    31  H    0.223333
    32  N    0.487902
    33  O   -0.460528
    34  O   -0.460394
 Sum of Mulliken charges =  -0.00000

 Dipole moment (field-independent basis, Debye):
    X=             -3.4355    Y=              3.8919    Z=              1.2671  Tot=              5.3437
 Quadrupole moment (field-independent basis, Debye-Ang):
   XX=           -114.5796   YY=            -96.7913   ZZ=            -92.5833
   XY=             15.0242   XZ=              7.9912   YZ=              1.3042

 Normal termination of Gaussian 16 at Thu May  6 08:49:16 2021.
