 Gaussian 16, Revision A.03,
 Gaussian 16:  EM64L-G16RevA.03 25-Dec-2016

 -------------
 #p 6-31g* mp2
 -------------

 ------------------------------------------------------
 Input file generated by CHIRIPA (05-May-2021 14:57:23)
 ------------------------------------------------------
 Symbolic Z-matrix:
 Charge =  0 Multiplicity = 1

                         Standard orientation:
 ---------------------------------------------------------------------
 Center     Atomic      Atomic             Coordinates (Angstroms)
 Number     Number       Type             X           Y           Z
 ---------------------------------------------------------------------
      1          6           0       -4.414354    1.486224   -0.820310
      2          6           0       -3.044013    1.653887   -1.045203
      3          6           0       -2.128275    0.699082   -0.593187
      4          6           0       -2.619845   -0.416308    0.083241
      5          6           0       -3.979162   -0.611717    0.322751
      6          6           0       -4.876739    0.355950   -0.138253
      7          1           0       -5.118667    2.232935   -1.174937
      8          1           0       -2.682062    2.530680   -1.574609
      9          1           0       -1.062120    0.803855   -0.753665
     10          1           0       -4.309873   -1.496205    0.853532
     11          1           0       -5.940410    0.223117    0.037831
     12          7           0       -1.660007   -1.433925    0.566528
     13          8           0       -2.118493   -2.407756    1.159892
     14          8           0       -0.467375   -1.238434    0.342812
     15          6           0        2.374917    2.278350    1.439843
     16          6           0        2.553212    2.424716    0.060238
     17          6           0        2.777234    1.307088   -0.749248
     18          6           0        2.817011    0.052362   -0.143135
     19          6           0        2.643010   -0.125971    1.228438
     20          6           0        2.420306    1.005717    2.018519
     21          1           0        2.201403    3.152013    2.061135
     22          1           0        2.518466    3.411836   -0.391903
     23          1           0        2.918474    1.391715   -1.819906
     24          1           0        2.682952   -1.122876    1.650343
     25          1           0        2.282176    0.889042    3.089664
     26          7           0        3.053475   -1.138263   -0.989831
     27          8           0        3.084039   -2.232791   -0.431519
     28          8           0        3.203775   -0.954404   -2.195750
 ---------------------------------------------------------------------

 SCF Done:  E(RHF) =  -868.337731252     A.U. after   16 cycles
 E2 =    -0.2601114807D+01 EUMP2 =    -0.87093884605929D+03

 The electronic state is 1-A.
 Alpha  occ. eigenvalues --  -20.60865 -20.60858 -20.59893 -20.59809 -15.85913
 Alpha  occ. eigenvalues --  -15.84913 -11.31284 -11.30405 -11.27858 -11.27850
 Alpha  occ. eigenvalues --  -11.27620 -11.27158 -11.26933 -11.26912 -11.26891
 Alpha  occ. eigenvalues --  -11.26873 -11.26228 -11.26041  -1.59930  -1.58911
 Alpha  occ. eigenvalues --   -1.39487  -1.38465  -1.19464  -1.18639  -1.08860
 Alpha  occ. eigenvalues --   -1.08021  -1.04870  -1.04085  -0.95693  -0.94827
 Alpha  occ. eigenvalues --   -0.86268  -0.85478  -0.82532  -0.81671  -0.77574
 Alpha  occ. eigenvalues --   -0.76667  -0.72174  -0.71250  -0.71152  -0.70577
 Alpha  occ. eigenvalues --   -0.70174  -0.69792  -0.65122  -0.64878  -0.64314
 Alpha  occ. eigenvalues --   -0.64121  -0.62216  -0.61431  -0.55377  -0.54636
 Alpha  occ. eigenvalues --   -0.53200  -0.52973  -0.52379  -0.52196  -0.48890
 Alpha  occ. eigenvalues --   -0.48877  -0.47926  -0.47874  -0.44889  -0.43844
 Alpha  occ. eigenvalues --   -0.37453  -0.36640  -0.36472  -0.35659
 Alpha virt. eigenvalues --    0.04929   0.05937   0.11180   0.11975   0.16452
 Alpha virt. eigenvalues --    0.17328   0.21268   0.21960   0.27142   0.27858
 Alpha virt. eigenvalues --    0.28093   0.28913   0.30718   0.31444   0.32251

 Mulliken charges:
               1
     1  C   -0.170720
     2  C   -0.219038
     3  C   -0.170861
     4  C    0.157894
     5  C   -0.170733
     6  C   -0.218747
     7  H    0.225422
     8  H    0.221933
     9  H    0.276197
    10  H    0.276056
    11  H    0.223696
    12  N    0.491512
    13  O   -0.458737
    14  O   -0.464512
    15  C   -0.172875
    16  C   -0.223775
    17  C   -0.177774
    18  C    0.165306
    19  C   -0.151565
    20  C   -0.220924
    21  H    0.221203
    22  H    0.217284
    23  H    0.271739
    24  H    0.281235
    25  H    0.222113
    26  N    0.489801
    27  O   -0.452734
    28  O   -0.468395
 Sum of Mulliken charges =  -0.00000

 Dipole moment (field-independent basis, Debye):
    X=             -4.3068    Y=              7.3805    Z=              1.4280  Tot=              8.6637
 Quadrupole moment (field-independent basis, Debye-Ang):
   XX=            -90.1700   YY=           -105.5652   ZZ=           -103.1581
   XY=              5.4680   XZ=             11.3452   YZ=             -3.5388

 Normal termination of Gaussian 16 at Thu May  6 05:03:16 2021.
