 Gaussian 16, Revision A.03,
 Gaussian 16:  EM64L-G16RevA.03 25-Dec-2016

 -------------
 #p 6-31g* mp2
 -------------

 ------------------------------------------------------
 Input file generated by CHIRIPA (05-May-2021 14:53:18)
 ------------------------------------------------------
 Symbolic Z-matrix:
 Charge =  0 Multiplicity = 1

                         Standard orientation:
 ---------------------------------------------------------------------
 Center     Atomic      Atomic             Coordinates (Angstroms)
 Number     Number       Type             X           Y           Z
 ---------------------------------------------------------------------
      1          6           0        3.323076    0.795665    0.105438
      2          6           0        2.275007    1.785645    0.614826
      3          6           0        2.888273    3.102566    1.091708
      4          1           0        4.048553    0.595375    0.905757
      5          1           0        3.885256    1.258609   -0.717381
      6          1           0        1.714046    1.320462    1.435523
      7          1           0        1.551831    1.983453   -0.186737
      8          1           0        3.432126    3.591582    0.277037
      9          1           0        3.595263    2.924824    1.908515
     10          1           0        2.121343    3.795505    1.451589
     11          6           0        2.725409   -0.525657   -0.374802
     12          6           0        3.773478   -1.515637   -0.884190
     13          6           0        3.160212   -2.832559   -1.361072
     14          1           0        2.163229   -0.988601    0.448017
     15          1           0        1.999932   -0.325368   -1.175121
     16          1           0        4.496654   -1.713446   -0.082627
     17          1           0        4.334439   -1.050455   -1.704887
     18          1           0        2.453222   -2.654816   -2.177879
     19          1           0        2.616359   -3.321574   -0.546401
     20          1           0        3.927142   -3.525498   -1.720953
     21          6           0       -3.046679    1.782261   -1.422701
     22          6           0       -3.893093    0.682714   -1.246357
     23          6           0       -3.524373   -0.368958   -0.402212
     24          6           0       -2.296564   -0.287971    0.252934
     25          6           0       -1.431478    0.794090    0.097816
     26          6           0       -1.820735    1.834349   -0.751234
     27          1           0       -3.341087    2.594792   -2.080359
     28          1           0       -4.845767    0.639571   -1.766546
     29          1           0       -4.160418   -1.232056   -0.247536
     30          1           0       -0.488013    0.808745    0.629866
     31          1           0       -1.161383    2.687029   -0.886282
     32          7           0       -1.895346   -1.395287    1.149190
     33          8           0       -0.808404   -1.300002    1.714977
     34          8           0       -2.675410   -2.337520    1.268917
 ---------------------------------------------------------------------

 SCF Done:  E(RHF) =  -669.535654294     A.U. after   15 cycles
 E2 =    -0.2093041582D+01 EUMP2 =    -0.67162869587587D+03

 The electronic state is 1-A.
 Alpha  occ. eigenvalues --  -20.60794 -20.60788 -15.85829 -11.31104 -11.27707
 Alpha  occ. eigenvalues --  -11.27585 -11.27449 -11.26709 -11.26679 -11.22128
 Alpha  occ. eigenvalues --  -11.21501 -11.21486 -11.21371 -11.21143 -11.20712
 Alpha  occ. eigenvalues --   -1.59855  -1.39412  -1.19292  -1.08709  -1.08485
 Alpha  occ. eigenvalues --   -1.04688  -1.03601  -0.96001  -0.95551  -0.87032
 Alpha  occ. eigenvalues --   -0.86091  -0.82393  -0.79785  -0.78294  -0.77377
 Alpha  occ. eigenvalues --   -0.72054  -0.71167  -0.70407  -0.65136  -0.64925
 Alpha  occ. eigenvalues --   -0.64691  -0.62071  -0.60988  -0.59410  -0.57620
 Alpha  occ. eigenvalues --   -0.55260  -0.55211  -0.53028  -0.52892  -0.52665
 Alpha  occ. eigenvalues --   -0.52401  -0.49941  -0.48819  -0.48805  -0.48000
 Alpha  occ. eigenvalues --   -0.46781  -0.45782  -0.45629  -0.44789  -0.43819
 Alpha  occ. eigenvalues --   -0.37286  -0.36279
 Alpha virt. eigenvalues --    0.05055   0.11340   0.16508   0.20476   0.23080
 Alpha virt. eigenvalues --    0.24160   0.25454   0.25808   0.27693   0.28243
 Alpha virt. eigenvalues --    0.29425   0.30448   0.31555   0.31751   0.32083

 Mulliken charges:
               1
     1  C   -0.295962
     2  C   -0.313740
     3  C   -0.474201
     4  H    0.153236
     5  H    0.148393
     6  H    0.161676
     7  H    0.142195
     8  H    0.155763
     9  H    0.160262
    10  H    0.157386
    11  C   -0.308078
    12  C   -0.299371
    13  C   -0.476858
    14  H    0.169070
    15  H    0.144581
    16  H    0.152900
    17  H    0.148948
    18  H    0.153062
    19  H    0.162970
    20  H    0.158974
    21  C   -0.170227
    22  C   -0.219495
    23  C   -0.169812
    24  C    0.156190
    25  C   -0.176810
    26  C   -0.226144
    27  H    0.225295
    28  H    0.223110
    29  H    0.275228
    30  H    0.291607
    31  H    0.224491
    32  N    0.488180
    33  O   -0.462980
    34  O   -0.459841
 Sum of Mulliken charges =  -0.00000

 Dipole moment (field-independent basis, Debye):
    X=             -1.3094    Y=              3.7769    Z=             -3.0251  Tot=              5.0130
 Quadrupole moment (field-independent basis, Debye-Ang):
   XX=            -84.6216   YY=            -97.2910   ZZ=            -96.2173
   XY=             -6.7204   XZ=              8.4542   YZ=              1.6313

 Normal termination of Gaussian 16 at Wed May  5 20:28:00 2021.
