 Gaussian 16, Revision A.03,
 Gaussian 16:  EM64L-G16RevA.03 25-Dec-2016

 -------------
 #p 6-31g* mp2
 -------------

 ------------------------------------------------------
 Input file generated by CHIRIPA (05-May-2021 14:53:14)
 ------------------------------------------------------
 Symbolic Z-matrix:
 Charge =  0 Multiplicity = 1

                         Standard orientation:
 ---------------------------------------------------------------------
 Center     Atomic      Atomic             Coordinates (Angstroms)
 Number     Number       Type             X           Y           Z
 ---------------------------------------------------------------------
      1          6           0       -3.756002   -0.397523   -0.270442
      2          6           0       -5.214232   -0.708860    0.068114
      3          6           0       -5.482481   -2.207985    0.203977
      4          1           0       -3.486939   -0.905917   -1.206437
      5          1           0       -3.107696   -0.817623    0.510974
      6          1           0       -5.859682   -0.287100   -0.712993
      7          1           0       -5.479910   -0.199510    1.003311
      8          1           0       -4.862795   -2.639960    0.996434
      9          1           0       -5.244726   -2.728048   -0.729623
     10          1           0       -6.530928   -2.407890    0.446172
     11          6           0       -3.472159    1.097073   -0.409524
     12          6           0       -2.013930    1.408409   -0.748080
     13          6           0       -1.745680    2.907534   -0.883943
     14          1           0       -4.120465    1.517173   -1.190941
     15          1           0       -3.741222    1.605467    0.526470
     16          1           0       -1.748251    0.899059   -1.683278
     17          1           0       -1.368479    0.986649    0.033027
     18          1           0       -1.983436    3.427597    0.049656
     19          1           0       -2.365366    3.339510   -1.676400
     20          1           0       -0.697234    3.107440   -1.126139
     21          6           0        0.752199    0.151630    1.642239
     22          6           0        0.787232   -0.918625    0.742323
     23          6           0        1.929562   -1.163488   -0.025578
     24          6           0        3.023746   -0.314338    0.132524
     25          6           0        3.019510    0.760133    1.020660
     26          6           0        1.866485    0.986121    1.778296
     27          1           0       -0.139344    0.334513    2.234776
     28          1           0       -0.076656   -1.568341    0.634574
     29          1           0        1.983744   -1.984851   -0.729741
     30          1           0        3.896276    1.390528    1.106096
     31          1           0        1.842115    1.818048    2.476399
     32          7           0        4.238741   -0.563573   -0.674984
     33          8           0        5.189548    0.199112   -0.517144
     34          8           0        4.217240   -1.516889   -1.450461
 ---------------------------------------------------------------------

 SCF Done:  E(RHF) =  -669.534570433     A.U. after   15 cycles
 E2 =    -0.2093044147D+01 EUMP2 =    -0.67162761457961D+03

 The electronic state is 1-A.
 Alpha  occ. eigenvalues --  -20.60783 -20.60778 -15.85837 -11.31217 -11.27786
 Alpha  occ. eigenvalues --  -11.27768 -11.27533 -11.26811 -11.26788 -11.22275
 Alpha  occ. eigenvalues --  -11.22204 -11.22116 -11.22023 -11.21683 -11.21570
 Alpha  occ. eigenvalues --   -1.59858  -1.39411  -1.19397  -1.09127  -1.08794
 Alpha  occ. eigenvalues --   -1.04796  -1.04140  -0.96600  -0.95630  -0.87612
 Alpha  occ. eigenvalues --   -0.86200  -0.82453  -0.80212  -0.78956  -0.77487
 Alpha  occ. eigenvalues --   -0.72056  -0.71182  -0.70533  -0.65782  -0.65046
 Alpha  occ. eigenvalues --   -0.64785  -0.62138  -0.61556  -0.59964  -0.58212
 Alpha  occ. eigenvalues --   -0.55911  -0.55314  -0.53305  -0.53133  -0.53000
 Alpha  occ. eigenvalues --   -0.52882  -0.50546  -0.48815  -0.48809  -0.48517
 Alpha  occ. eigenvalues --   -0.47259  -0.46482  -0.46424  -0.44814  -0.44418
 Alpha  occ. eigenvalues --   -0.37285  -0.36375
 Alpha virt. eigenvalues --    0.05003   0.11193   0.16421   0.19607   0.22809
 Alpha virt. eigenvalues --    0.23711   0.25107   0.26209   0.27311   0.27873
 Alpha virt. eigenvalues --    0.29683   0.30518   0.31115   0.31429   0.31688

 Mulliken charges:
               1
     1  C   -0.297484
     2  C   -0.299826
     3  C   -0.476037
     4  H    0.151814
     5  H    0.138468
     6  H    0.155084
     7  H    0.152129
     8  H    0.152902
     9  H    0.156490
    10  H    0.162884
    11  C   -0.298475
    12  C   -0.305493
    13  C   -0.475934
    14  H    0.152771
    15  H    0.147622
    16  H    0.153924
    17  H    0.152305
    18  H    0.151757
    19  H    0.157519
    20  H    0.163664
    21  C   -0.171968
    22  C   -0.215527
    23  C   -0.171793
    24  C    0.158754
    25  C   -0.171304
    26  C   -0.219277
    27  H    0.225692
    28  H    0.226516
    29  H    0.275878
    30  H    0.275772
    31  H    0.223779
    32  N    0.488027
    33  O   -0.460363
    34  O   -0.460270
 Sum of Mulliken charges =  -0.00000

 Dipole moment (field-independent basis, Debye):
    X=             -4.3230    Y=              0.8955    Z=              2.7759  Tot=              5.2150
 Quadrupole moment (field-independent basis, Debye-Ang):
   XX=           -119.9186   YY=            -93.5846   ZZ=            -92.6559
   XY=              5.7646   XZ=              9.6862   YZ=              1.3535

 Normal termination of Gaussian 16 at Thu May  6 04:13:39 2021.
