 Gaussian 16, Revision A.03,
 Gaussian 16:  EM64L-G16RevA.03 25-Dec-2016

 -------------
 #p 6-31g* mp2
 -------------

 ------------------------------------------------------
 Input file generated by CHIRIPA (05-May-2021 14:57:21)
 ------------------------------------------------------
 Symbolic Z-matrix:
 Charge =  0 Multiplicity = 1

                         Standard orientation:
 ---------------------------------------------------------------------
 Center     Atomic      Atomic             Coordinates (Angstroms)
 Number     Number       Type             X           Y           Z
 ---------------------------------------------------------------------
      1          6           0       -5.284507    0.010153   -1.407468
      2          6           0       -5.266682    0.846101   -0.286132
      3          6           0       -4.215016    0.779313    0.632609
      4          6           0       -3.192962   -0.139173    0.397921
      5          6           0       -3.182288   -0.985452   -0.709774
      6          6           0       -4.244087   -0.901349   -1.615343
      7          1           0       -6.105403    0.068761   -2.116052
      8          1           0       -6.073341    1.554941   -0.122143
      9          1           0       -4.176127    1.414650    1.509110
     10          1           0       -2.363998   -1.681987   -0.846371
     11          1           0       -4.255301   -1.551797   -2.485307
     12          7           0       -2.074246   -0.219044    1.363579
     13          8           0       -1.185781   -1.036736    1.134130
     14          8           0       -2.107045    0.537557    2.331627
     15          6           0        3.841869   -2.341187    0.012384
     16          6           0        4.878351   -1.414550    0.165923
     17          6           0        4.632510   -0.045115    0.028974
     18          6           0        3.332431    0.364529   -0.263050
     19          6           0        2.278695   -0.534193   -0.421885
     20          6           0        2.547632   -1.898830   -0.280514
     21          1           0        4.041816   -3.403134    0.120488
     22          1           0        5.884453   -1.755216    0.393410
     23          1           0        5.416332    0.693881    0.142666
     24          1           0        1.286090   -0.164305   -0.648459
     25          1           0        1.740738   -2.616201   -0.400296
     26          7           0        3.059945    1.811750   -0.410373
     27          8           0        1.905855    2.147067   -0.667813
     28          8           0        4.005620    2.583359   -0.265615
 ---------------------------------------------------------------------

 SCF Done:  E(RHF) =  -868.339023411     A.U. after   16 cycles
 E2 =    -0.2598939866D+01 EUMP2 =    -0.87093796327645D+03

 The electronic state is 1-A.
 Alpha  occ. eigenvalues --  -20.61146 -20.61054 -20.60041 -20.60032 -15.86138
 Alpha  occ. eigenvalues --  -15.85088 -11.31375 -11.30313 -11.27987 -11.27886
 Alpha  occ. eigenvalues --  -11.27638 -11.26943 -11.26939 -11.26885 -11.26801
 Alpha  occ. eigenvalues --  -11.26663 -11.25951 -11.25827  -1.60150  -1.59113
 Alpha  occ. eigenvalues --   -1.39718  -1.38671  -1.19530  -1.18492  -1.08946
 Alpha  occ. eigenvalues --   -1.07929  -1.04923  -1.03866  -0.95807  -0.94779
 Alpha  occ. eigenvalues --   -0.86329  -0.85289  -0.82656  -0.81608  -0.77722
 Alpha  occ. eigenvalues --   -0.76660  -0.72372  -0.71454  -0.71315  -0.70651
 Alpha  occ. eigenvalues --   -0.70425  -0.69626  -0.65195  -0.64931  -0.64154
 Alpha  occ. eigenvalues --   -0.63889  -0.62285  -0.61213  -0.55425  -0.54430
 Alpha  occ. eigenvalues --   -0.53243  -0.53022  -0.52213  -0.51972  -0.49134
 Alpha  occ. eigenvalues --   -0.49090  -0.48073  -0.48062  -0.45144  -0.44106
 Alpha  occ. eigenvalues --   -0.37491  -0.36515  -0.36500  -0.35442
 Alpha virt. eigenvalues --    0.04799   0.05872   0.11137   0.12194   0.16305
 Alpha virt. eigenvalues --    0.17369   0.21088   0.22240   0.26776   0.27556
 Alpha virt. eigenvalues --    0.28653   0.29121   0.31037   0.31723   0.32554

 Mulliken charges:
               1
     1  C   -0.170065
     2  C   -0.217946
     3  C   -0.169058
     4  C    0.160487
     5  C   -0.170494
     6  C   -0.217641
     7  H    0.226644
     8  H    0.225100
     9  H    0.277606
    10  H    0.268477
    11  H    0.223053
    12  N    0.490780
    13  O   -0.471937
    14  O   -0.452601
    15  C   -0.171254
    16  C   -0.219205
    17  C   -0.171593
    18  C    0.157176
    19  C   -0.162660
    20  C   -0.215963
    21  H    0.222513
    22  H    0.220084
    23  H    0.272846
    24  H    0.277505
    25  H    0.224346
    26  N    0.488768
    27  O   -0.461508
    28  O   -0.463460
 Sum of Mulliken charges =  -0.00000

 Dipole moment (field-independent basis, Debye):
    X=             -3.3729    Y=             -4.7277    Z=             -2.7869  Tot=              6.4416
 Quadrupole moment (field-independent basis, Debye-Ang):
   XX=            -68.4793   YY=           -107.1042   ZZ=           -107.3350
   XY=            -18.2424   XZ=             10.7486   YZ=              4.7769

 Normal termination of Gaussian 16 at Thu May  6 01:41:37 2021.
