 Gaussian 16, Revision A.03,
 Gaussian 16:  EM64L-G16RevA.03 25-Dec-2016

 -------------
 #p 6-31g* mp2
 -------------

 ------------------------------------------------------
 Input file generated by CHIRIPA (05-May-2021 14:55:25)
 ------------------------------------------------------
 Symbolic Z-matrix:
 Charge =  0 Multiplicity = 1

                         Standard orientation:
 ---------------------------------------------------------------------
 Center     Atomic      Atomic             Coordinates (Angstroms)
 Number     Number       Type             X           Y           Z
 ---------------------------------------------------------------------
      1          6           0        1.633058    0.783824    0.721312
      2          6           0        2.059477    0.880786   -0.607329
      3          6           0        3.317171    0.401952   -0.986104
      4          6           0        4.126365   -0.170548   -0.005931
      5          6           0        3.729905   -0.281555    1.325905
      6          6           0        2.468161    0.203986    1.681995
      7          1           0        0.654478    1.158399    1.006743
      8          1           0        1.413037    1.330614   -1.355537
      9          1           0        3.672342    0.464308   -2.007565
     10          1           0        4.396566   -0.735042    2.049321
     11          1           0        2.139624    0.127352    2.714582
     12          7           0        5.459973   -0.681018   -0.394915
     13          8           0        6.154082   -1.181106    0.487560
     14          8           0        5.785895   -0.571371   -1.574910
     15          6           0       -5.584766   -0.202237   -0.454054
     16          6           0       -6.503889   -1.042444    0.433218
     17          6           0       -7.668198   -1.661691   -0.340546
     18          1           0       -6.173411    0.592797   -0.931927
     19          1           0       -5.193565   -0.831996   -1.265078
     20          1           0       -6.892147   -0.411635    1.243128
     21          1           0       -5.912950   -1.835452    0.909184
     22          1           0       -7.297344   -2.313535   -1.138146
     23          1           0       -8.282105   -0.881629   -0.802307
     24          1           0       -8.312508   -2.258072    0.312948
     25          6           0       -4.416053    0.423462    0.305117
     26          6           0       -3.496931    1.263669   -0.582156
     27          6           0       -2.332622    1.882917    0.191609
     28          1           0       -4.807254    1.053221    1.116141
     29          1           0       -3.827408   -0.371572    0.782989
     30          1           0       -4.087870    2.056678   -1.058122
     31          1           0       -3.108673    0.632862   -1.392065
     32          1           0       -1.718715    1.102855    0.653369
     33          1           0       -2.703475    2.534762    0.989209
     34          1           0       -1.688311    2.479297   -0.461884
 ---------------------------------------------------------------------

 SCF Done:  E(RHF) =  -669.535596716     A.U. after   15 cycles
 E2 =    -0.2090829220D+01 EUMP2 =    -0.67162642593530D+03

 The electronic state is 1-A.
 Alpha  occ. eigenvalues --  -20.60715 -20.60710 -15.85769 -11.31119 -11.27690
 Alpha  occ. eigenvalues --  -11.27687 -11.27365 -11.26691 -11.26681 -11.22574
 Alpha  occ. eigenvalues --  -11.22412 -11.22162 -11.22106 -11.21975 -11.21482
 Alpha  occ. eigenvalues --   -1.59791  -1.39345  -1.19288  -1.09166  -1.08679
 Alpha  occ. eigenvalues --   -1.04692  -1.04312  -0.96790  -0.95517  -0.87815
 Alpha  occ. eigenvalues --   -0.86085  -0.82356  -0.80390  -0.78931  -0.77408
 Alpha  occ. eigenvalues --   -0.71986  -0.71114  -0.70399  -0.65792  -0.64936
 Alpha  occ. eigenvalues --   -0.64697  -0.62044  -0.61708  -0.60183  -0.58373
 Alpha  occ. eigenvalues --   -0.56171  -0.55134  -0.53479  -0.53192  -0.53017
 Alpha  occ. eigenvalues --   -0.52779  -0.50707  -0.48757  -0.48742  -0.48680
 Alpha  occ. eigenvalues --   -0.47393  -0.46486  -0.46375  -0.44754  -0.44547
 Alpha  occ. eigenvalues --   -0.37257  -0.36302
 Alpha virt. eigenvalues --    0.05119   0.11352   0.16579   0.20111   0.22368
 Alpha virt. eigenvalues --    0.23790   0.25558   0.26185   0.26415   0.27353
 Alpha virt. eigenvalues --    0.29081   0.29694   0.31009   0.31363   0.32061

 Mulliken charges:
               1
     1  C   -0.177040
     2  C   -0.221418
     3  C   -0.170962
     4  C    0.158249
     5  C   -0.170784
     6  C   -0.220150
     7  H    0.236357
     8  H    0.223516
     9  H    0.275271
    10  H    0.275254
    11  H    0.223402
    12  N    0.488053
    13  O   -0.460650
    14  O   -0.460679
    15  C   -0.298997
    16  C   -0.300186
    17  C   -0.476125
    18  H    0.150928
    19  H    0.150734
    20  H    0.152437
    21  H    0.152412
    22  H    0.156025
    23  H    0.155856
    24  H    0.161708
    25  C   -0.299272
    26  C   -0.299236
    27  C   -0.482451
    28  H    0.150733
    29  H    0.149762
    30  H    0.155876
    31  H    0.153430
    32  H    0.149468
    33  H    0.160621
    34  H    0.157859
 Sum of Mulliken charges =  -0.00000

 Dipole moment (field-independent basis, Debye):
    X=             -4.9787    Y=              1.8023    Z=              1.3557  Tot=              5.4657
 Quadrupole moment (field-independent basis, Debye-Ang):
   XX=           -133.6842   YY=            -95.2938   ZZ=            -90.4985
   XY=              7.0163   XZ=              6.2180   YZ=             -1.8366

 Normal termination of Gaussian 16 at Thu May  6 16:05:08 2021.
