 Gaussian 16, Revision A.03,
 Gaussian 16:  EM64L-G16RevA.03 25-Dec-2016

 -------------
 #p 6-31g* mp2
 -------------

 ------------------------------------------------------
 Input file generated by CHIRIPA (05-May-2021 14:55:19)
 ------------------------------------------------------
 Symbolic Z-matrix:
 Charge =  0 Multiplicity = 1

                         Standard orientation:
 ---------------------------------------------------------------------
 Center     Atomic      Atomic             Coordinates (Angstroms)
 Number     Number       Type             X           Y           Z
 ---------------------------------------------------------------------
      1          6           0       -1.028738   -0.905671    1.901895
      2          6           0       -2.231393   -1.586410    1.685713
      3          6           0       -3.152798   -1.118457    0.744129
      4          6           0       -2.837822    0.038564    0.033226
      5          6           0       -1.648053    0.738995    0.225930
      6          6           0       -0.741412    0.252817    1.172599
      7          1           0       -0.318703   -1.276267    2.635315
      8          1           0       -2.457189   -2.486365    2.250640
      9          1           0       -4.091324   -1.625880    0.556753
     10          1           0       -1.450944    1.633394   -0.352530
     11          1           0        0.191803    0.783540    1.338391
     12          7           0       -3.805457    0.543612   -0.966278
     13          8           0       -3.504344    1.565246   -1.579655
     14          8           0       -4.846680   -0.091728   -1.117387
     15          6           0        3.738389    0.755205   -0.258913
     16          6           0        2.898493    1.797722    0.479813
     17          6           0        3.531984    3.189157    0.460008
     18          1           0        4.738148    0.710963    0.194375
     19          1           0        3.880874    1.079458   -1.299083
     20          1           0        2.756469    1.470921    1.517910
     21          1           0        1.900556    1.839350    0.024835
     22          1           0        3.658702    3.540134   -0.569243
     23          1           0        4.519479    3.169612    0.932315
     24          1           0        2.915026    3.918793    0.993726
     25          6           0        3.118174   -0.640839   -0.247857
     26          6           0        3.958069   -1.683358   -0.986582
     27          6           0        3.324578   -3.074792   -0.966778
     28          1           0        2.975688   -0.965092    0.792313
     29          1           0        2.118414   -0.596599   -0.701145
     30          1           0        4.956007   -1.724985   -0.531605
     31          1           0        4.100093   -1.356556   -2.024679
     32          1           0        2.337084   -3.055247   -1.439085
     33          1           0        3.197860   -3.425770    0.062473
     34          1           0        3.941535   -3.804428   -1.500497
 ---------------------------------------------------------------------

 SCF Done:  E(RHF) =  -669.535431325     A.U. after   15 cycles
 E2 =    -0.2092200068D+01 EUMP2 =    -0.67162763139309D+03

 The electronic state is 1-A.
 Alpha  occ. eigenvalues --  -20.60720 -20.60715 -15.85771 -11.31118 -11.27680
 Alpha  occ. eigenvalues --  -11.27665 -11.27398 -11.26696 -11.26589 -11.22692
 Alpha  occ. eigenvalues --  -11.22195 -11.22170 -11.22100 -11.21843 -11.21572
 Alpha  occ. eigenvalues --   -1.59796  -1.39350  -1.19279  -1.09222  -1.08673
 Alpha  occ. eigenvalues --   -1.04678  -1.04276  -0.96681  -0.95517  -0.87704
 Alpha  occ. eigenvalues --   -0.86075  -0.82359  -0.80400  -0.79058  -0.77385
 Alpha  occ. eigenvalues --   -0.71990  -0.71119  -0.70389  -0.65845  -0.64926
 Alpha  occ. eigenvalues --   -0.64677  -0.62060  -0.61653  -0.60057  -0.58312
 Alpha  occ. eigenvalues --   -0.55948  -0.55178  -0.53415  -0.53134  -0.52992
 Alpha  occ. eigenvalues --   -0.52743  -0.50622  -0.48794  -0.48747  -0.48610
 Alpha  occ. eigenvalues --   -0.47426  -0.46532  -0.46471  -0.44760  -0.44525
 Alpha  occ. eigenvalues --   -0.37250  -0.36266
 Alpha virt. eigenvalues --    0.05115   0.11330   0.16557   0.20250   0.22569
 Alpha virt. eigenvalues --    0.23573   0.24996   0.25523   0.27303   0.28257
 Alpha virt. eigenvalues --    0.29345   0.29916   0.30791   0.31357   0.31910

 Mulliken charges:
               1
     1  C   -0.172848
     2  C   -0.218365
     3  C   -0.171522
     4  C    0.158888
     5  C   -0.175663
     6  C   -0.223726
     7  H    0.225379
     8  H    0.223018
     9  H    0.275242
    10  H    0.274792
    11  H    0.236445
    12  N    0.488103
    13  O   -0.460786
    14  O   -0.460682
    15  C   -0.297566
    16  C   -0.306515
    17  C   -0.475176
    18  H    0.152323
    19  H    0.154130
    20  H    0.147000
    21  H    0.148433
    22  H    0.159749
    23  H    0.158198
    24  H    0.161432
    25  C   -0.301075
    26  C   -0.300143
    27  C   -0.476194
    28  H    0.142951
    29  H    0.153449
    30  H    0.152827
    31  H    0.154958
    32  H    0.157731
    33  H    0.152548
    34  H    0.162665
 Sum of Mulliken charges =  -0.00000

 Dipole moment (field-independent basis, Debye):
    X=              3.6309    Y=             -1.7611    Z=              3.4299  Tot=              5.2961
 Quadrupole moment (field-independent basis, Debye-Ang):
   XX=           -111.9419   YY=            -93.0955   ZZ=            -94.2350
   XY=              7.7143   XZ=            -10.5934   YZ=             -1.1209

 Normal termination of Gaussian 16 at Thu May  6 17:22:08 2021.
