 Gaussian 16, Revision A.03,
 Gaussian 16:  EM64L-G16RevA.03 25-Dec-2016

 -------------
 #p 6-31g* mp2
 -------------

 ------------------------------------------------------
 Input file generated by CHIRIPA (05-May-2021 14:57:21)
 ------------------------------------------------------
 Symbolic Z-matrix:
 Charge =  0 Multiplicity = 1

                         Standard orientation:
 ---------------------------------------------------------------------
 Center     Atomic      Atomic             Coordinates (Angstroms)
 Number     Number       Type             X           Y           Z
 ---------------------------------------------------------------------
      1          6           0       -2.056789    2.186992   -0.166786
      2          6           0       -2.118801    1.529952    1.066492
      3          6           0       -2.765653    0.295921    1.181805
      4          6           0       -3.342237   -0.254701    0.038276
      5          6           0       -3.297234    0.375373   -1.204411
      6          6           0       -2.645167    1.608625   -1.296310
      7          1           0       -1.552273    3.145314   -0.247269
      8          1           0       -1.662750    1.976750    1.945374
      9          1           0       -2.828467   -0.234400    2.124265
     10          1           0       -3.761235   -0.094985   -2.062831
     11          1           0       -2.598560    2.116620   -2.255379
     12          7           0       -4.029791   -1.560702    0.147959
     13          8           0       -4.529838   -2.024721   -0.874429
     14          8           0       -4.055630   -2.095598    1.254239
     15          6           0        1.633043    1.980382    0.207638
     16          6           0        2.278218    1.468205    1.338101
     17          6           0        3.164475    0.393027    1.223687
     18          6           0        3.383203   -0.148185   -0.042226
     19          6           0        2.755630    0.339884   -1.187316
     20          6           0        1.873384    1.415583   -1.049246
     21          1           0        0.946135    2.815807    0.305706
     22          1           0        2.093484    1.904846    2.315476
     23          1           0        3.677388   -0.023094    2.082281
     24          1           0        2.959986   -0.116345   -2.148311
     25          1           0        1.373742    1.811289   -1.928915
     26          7           0        4.319320   -1.286703   -0.175872
     27          8           0        4.494963   -1.745814   -1.302373
     28          8           0        4.859681   -1.698406    0.848408
 ---------------------------------------------------------------------

 SCF Done:  E(RHF) =  -868.335513926     A.U. after   16 cycles
 E2 =    -0.2601547756D+01 EUMP2 =    -0.87093706168192D+03

 The electronic state is 1-A.
 Alpha  occ. eigenvalues --  -20.61231 -20.61225 -20.61065 -20.61060 -15.86292
 Alpha  occ. eigenvalues --  -15.86126 -11.31853 -11.31628 -11.28440 -11.28437
 Alpha  occ. eigenvalues --  -11.28370 -11.28231 -11.28220 -11.28124 -11.27582
 Alpha  occ. eigenvalues --  -11.27555 -11.27327 -11.27310  -1.60301  -1.60137
 Alpha  occ. eigenvalues --   -1.39849  -1.39687  -1.20065  -1.19837  -1.09474
 Alpha  occ. eigenvalues --   -1.09220  -1.05492  -1.05263  -0.96277  -0.96019
 Alpha  occ. eigenvalues --   -0.86909  -0.86672  -0.83086  -0.82856  -0.78055
 Alpha  occ. eigenvalues --   -0.77861  -0.72511  -0.72345  -0.71624  -0.71495
 Alpha  occ. eigenvalues --   -0.71461  -0.70828  -0.65736  -0.65552  -0.65503
 Alpha  occ. eigenvalues --   -0.65278  -0.62835  -0.62609  -0.56315  -0.55680
 Alpha  occ. eigenvalues --   -0.53934  -0.53612  -0.53435  -0.53377  -0.49285
 Alpha  occ. eigenvalues --   -0.49249  -0.49115  -0.49087  -0.45211  -0.45062
 Alpha  occ. eigenvalues --   -0.38448  -0.37550  -0.37021  -0.36822
 Alpha virt. eigenvalues --    0.04343   0.04771   0.10379   0.10897   0.15727
 Alpha virt. eigenvalues --    0.16235   0.18379   0.22191   0.25267   0.25490
 Alpha virt. eigenvalues --    0.27521   0.29254   0.29835   0.31150   0.32696

 Mulliken charges:
               1
     1  C   -0.173710
     2  C   -0.214085
     3  C   -0.169000
     4  C    0.160042
     5  C   -0.169428
     6  C   -0.219664
     7  H    0.217384
     8  H    0.219114
     9  H    0.278036
    10  H    0.278152
    11  H    0.223088
    12  N    0.488006
    13  O   -0.458247
    14  O   -0.458049
    15  C   -0.164517
    16  C   -0.220365
    17  C   -0.169416
    18  C    0.159268
    19  C   -0.169691
    20  C   -0.215897
    21  H    0.213395
    22  H    0.220839
    23  H    0.277348
    24  H    0.277353
    25  H    0.219694
    26  N    0.488087
    27  O   -0.458782
    28  O   -0.458956
 Sum of Mulliken charges =  -0.00000

 Dipole moment (field-independent basis, Debye):
    X=             -0.9325    Y=              8.3055    Z=              0.0636  Tot=              8.3579
 Quadrupole moment (field-independent basis, Debye-Ang):
   XX=           -143.5528   YY=           -110.3842   ZZ=            -95.1563
   XY=             -1.8677   XZ=              5.2919   YZ=             -0.0797

 Normal termination of Gaussian 16 at Thu May  6 01:43:46 2021.
