 Gaussian 16, Revision A.03,
 Gaussian 16:  EM64L-G16RevA.03 25-Dec-2016

 -------------
 #p 6-31g* mp2
 -------------

 ------------------------------------------------------
 Input file generated by CHIRIPA (05-May-2021 14:53:13)
 ------------------------------------------------------
 Symbolic Z-matrix:
 Charge =  0 Multiplicity = 1

                         Standard orientation:
 ---------------------------------------------------------------------
 Center     Atomic      Atomic             Coordinates (Angstroms)
 Number     Number       Type             X           Y           Z
 ---------------------------------------------------------------------
      1          6           0        2.442137   -0.930242    0.394300
      2          6           0        1.608378   -2.058815   -0.213281
      3          6           0        0.350480   -2.367807    0.599130
      4          1           0        2.724421   -1.203003    1.420391
      5          1           0        1.822425   -0.026059    0.470482
      6          1           0        2.229888   -2.960214   -0.289573
      7          1           0        1.328208   -1.783419   -1.238111
      8          1           0       -0.292566   -1.484172    0.664576
      9          1           0        0.614238   -2.667654    1.618504
     10          1           0       -0.230641   -3.177551    0.146943
     11          6           0        3.702931   -0.609736   -0.406577
     12          6           0        4.536690    0.518837    0.201004
     13          6           0        5.794588    0.827829   -0.611406
     14          1           0        4.322643   -1.513919   -0.482758
     15          1           0        3.420647   -0.336975   -1.432668
     16          1           0        4.816860    0.243441    1.225835
     17          1           0        3.915180    1.420236    0.277296
     18          1           0        5.530830    1.127676   -1.630781
     19          1           0        6.437634   -0.055805   -0.676853
     20          1           0        6.375709    1.637573   -0.159219
     21          6           0       -0.733948    2.403814    0.588461
     22          6           0       -1.200728    1.534407    1.579808
     23          6           0       -2.124138    0.532142    1.267836
     24          6           0       -2.561525    0.427318   -0.051631
     25          6           0       -2.115177    1.278240   -1.061578
     26          6           0       -1.191855    2.273186   -0.726750
     27          1           0       -0.016656    3.179554    0.839685
     28          1           0       -0.846854    1.633512    2.602059
     29          1           0       -2.502016   -0.154413    2.015679
     30          1           0       -2.486293    1.154768   -2.071749
     31          1           0       -0.831079    2.946964   -1.498701
     32          7           0       -3.539051   -0.629860   -0.394000
     33          8           0       -3.908892   -0.701374   -1.563932
     34          8           0       -3.916885   -1.366946    0.514066
 ---------------------------------------------------------------------

 SCF Done:  E(RHF) =  -669.535035190     A.U. after   15 cycles
 E2 =    -0.2093510277D+01 EUMP2 =    -0.67162854546676D+03

 The electronic state is 1-A.
 Alpha  occ. eigenvalues --  -20.60824 -20.60813 -15.85874 -11.31285 -11.27869
 Alpha  occ. eigenvalues --  -11.27840 -11.27641 -11.26903 -11.26892 -11.21979
 Alpha  occ. eigenvalues --  -11.21632 -11.21602 -11.21513 -11.21411 -11.20870
 Alpha  occ. eigenvalues --   -1.59894  -1.39445  -1.19491  -1.08865  -1.08622
 Alpha  occ. eigenvalues --   -1.04895  -1.03682  -0.96126  -0.95687  -0.87146
 Alpha  occ. eigenvalues --   -0.86278  -0.82513  -0.79768  -0.78438  -0.77550
 Alpha  occ. eigenvalues --   -0.72093  -0.71222  -0.70581  -0.65265  -0.65130
 Alpha  occ. eigenvalues --   -0.64878  -0.62226  -0.61108  -0.59499  -0.57745
 Alpha  occ. eigenvalues --   -0.55493  -0.55372  -0.53310  -0.52972  -0.52791
 Alpha  occ. eigenvalues --   -0.52487  -0.50069  -0.48857  -0.48844  -0.48064
 Alpha  occ. eigenvalues --   -0.46809  -0.45967  -0.45880  -0.44830  -0.43932
 Alpha  occ. eigenvalues --   -0.37435  -0.36431
 Alpha virt. eigenvalues --    0.04961   0.11104   0.16432   0.21246   0.22650
 Alpha virt. eigenvalues --    0.24138   0.26304   0.27029   0.27296   0.27801
 Alpha virt. eigenvalues --    0.28462   0.30854   0.31224   0.31641   0.32005

 Mulliken charges:
               1
     1  C   -0.300574
     2  C   -0.298446
     3  C   -0.483653
     4  H    0.147781
     5  H    0.148075
     6  H    0.152228
     7  H    0.151960
     8  H    0.159423
     9  H    0.151989
    10  H    0.166569
    11  C   -0.298000
    12  C   -0.298398
    13  C   -0.475612
    14  H    0.151107
    15  H    0.149097
    16  H    0.152100
    17  H    0.145989
    18  H    0.154843
    19  H    0.157013
    20  H    0.159622
    21  C   -0.171566
    22  C   -0.214543
    23  C   -0.178004
    24  C    0.163273
    25  C   -0.171616
    26  C   -0.218350
    27  H    0.226616
    28  H    0.225081
    29  H    0.277209
    30  H    0.276156
    31  H    0.224078
    32  N    0.488744
    33  O   -0.460531
    34  O   -0.459656
 Sum of Mulliken charges =  -0.00000

 Dipole moment (field-independent basis, Debye):
    X=              3.3267    Y=              3.7308    Z=              1.1987  Tot=              5.1403
 Quadrupole moment (field-independent basis, Debye-Ang):
   XX=           -113.8928   YY=            -91.2729   ZZ=            -90.2910
   XY=             -8.8317   XZ=             -2.6826   YZ=             -1.4811

 Normal termination of Gaussian 16 at Thu May  6 05:46:58 2021.
