 Gaussian 16, Revision A.03,
 Gaussian 16:  EM64L-G16RevA.03 25-Dec-2016

 -------------
 #p 6-31g* mp2
 -------------

 ------------------------------------------------------
 Input file generated by CHIRIPA (05-May-2021 14:51:14)
 ------------------------------------------------------
 Symbolic Z-matrix:
 Charge =  0 Multiplicity = 1

                         Standard orientation:
 ---------------------------------------------------------------------
 Center     Atomic      Atomic             Coordinates (Angstroms)
 Number     Number       Type             X           Y           Z
 ---------------------------------------------------------------------
      1          6           0        3.710000    0.751845    0.177096
      2          6           0        2.808862    1.558342   -0.758585
      3          6           0        1.870527    2.502873   -0.006799
      4          1           0        3.083996    0.173817    0.870600
      5          1           0        4.301017    1.444203    0.792509
      6          1           0        2.220728    0.864667   -1.373018
      7          1           0        3.437083    2.134369   -1.450067
      8          1           0        2.442993    3.217614    0.593225
      9          1           0        1.219726    1.940698    0.670711
     10          1           0        1.235450    3.069512   -0.694881
     11          6           0        4.653760   -0.196971   -0.559649
     12          6           0        5.554898   -1.003468    0.376032
     13          6           0        6.493233   -1.947999   -0.375754
     14          1           0        4.062743   -0.889329   -1.175062
     15          1           0        5.279765    0.381057   -1.253153
     16          1           0        4.926677   -1.579495    1.067514
     17          1           0        6.143033   -0.309793    0.990466
     18          1           0        7.144034   -1.385824   -1.053263
     19          1           0        5.920767   -2.662740   -0.975777
     20          1           0        7.128310   -2.514638    0.312328
     21          6           0       -3.602511    0.116374    0.495706
     22          6           0       -2.334844   -0.717722    0.683555
     23          6           0       -1.184663    0.084025    1.293540
     24          1           0       -3.374562    0.979003   -0.145274
     25          1           0       -3.912999    0.522941    1.468174
     26          1           0       -2.027622   -1.123732   -0.288755
     27          1           0       -2.565882   -1.578570    1.324006
     28          1           0       -1.467068    0.476523    2.275780
     29          1           0       -0.925750    0.933947    0.653855
     30          1           0       -0.288454   -0.531538    1.419047
     31          6           0       -4.761248   -0.671248   -0.113153
     32          6           0       -6.028917    0.162848   -0.301002
     33          6           0       -7.179097   -0.638898   -0.910988
     34          1           0       -4.450762   -1.077815   -1.085621
     35          1           0       -4.989197   -1.533878    0.527827
     36          1           0       -5.797878    1.023696   -0.941453
     37          1           0       -6.336138    0.568858    0.671308
     38          1           0       -7.438011   -1.488821   -0.271302
     39          1           0       -6.896692   -1.031398   -1.893227
     40          1           0       -8.075306   -0.023336   -1.036494
 ---------------------------------------------------------------------

 SCF Done:  E(RHF) =  -470.733111170     A.U. after   11 cycles
 E2 =    -0.1582487006D+01 EUMP2 =    -0.47231559817595D+03

 The electronic state is 1-A.
 Alpha  occ. eigenvalues --  -11.21635 -11.21613 -11.21586 -11.21555 -11.21424
 Alpha  occ. eigenvalues --  -11.21377 -11.21365 -11.21317 -11.21103 -11.21080
 Alpha  occ. eigenvalues --  -11.21059 -11.20957  -1.08452  -1.08397  -1.03564
 Alpha  occ. eigenvalues --   -1.03484  -0.96035  -0.95918  -0.87073  -0.86919
 Alpha  occ. eigenvalues --   -0.79663  -0.79518  -0.78267  -0.78207  -0.65105
 Alpha  occ. eigenvalues --   -0.65011  -0.61070  -0.60795  -0.59386  -0.59299
 Alpha  occ. eigenvalues --   -0.57634  -0.57543  -0.55502  -0.55053  -0.52727
 Alpha  occ. eigenvalues --   -0.52648  -0.52486  -0.52288  -0.50142  -0.49679
 Alpha  occ. eigenvalues --   -0.47975  -0.47823  -0.46742  -0.46470  -0.45822
 Alpha  occ. eigenvalues --   -0.45748  -0.45715  -0.45639  -0.43805  -0.43749
 Alpha virt. eigenvalues --    0.21738   0.23013   0.23705   0.24934   0.26182
 Alpha virt. eigenvalues --    0.26572   0.27101   0.27306   0.27814   0.29041
 Alpha virt. eigenvalues --    0.30694   0.30984   0.31612   0.31776   0.31958

 Mulliken charges:
               1
     1  C   -0.298768
     2  C   -0.299080
     3  C   -0.483001
     4  H    0.150000
     5  H    0.149537
     6  H    0.151487
     7  H    0.151629
     8  H    0.154710
     9  H    0.164860
    10  H    0.158570
    11  C   -0.298291
    12  C   -0.299610
    13  C   -0.475684
    14  H    0.149378
    15  H    0.149607
    16  H    0.151828
    17  H    0.151945
    18  H    0.155159
    19  H    0.155118
    20  H    0.160200
    21  C   -0.298591
    22  C   -0.299745
    23  C   -0.480525
    24  H    0.150029
    25  H    0.149673
    26  H    0.151839
    27  H    0.151921
    28  H    0.155704
    29  H    0.160585
    30  H    0.159349
    31  C   -0.298322
    32  C   -0.299677
    33  C   -0.475721
    34  H    0.149518
    35  H    0.149675
    36  H    0.152014
    37  H    0.151990
    38  H    0.155185
    39  H    0.155187
    40  H    0.160318
 Sum of Mulliken charges =  -0.00000

 Dipole moment (field-independent basis, Debye):
    X=             -0.0320    Y=              0.0011    Z=              0.0159  Tot=              0.0357
 Quadrupole moment (field-independent basis, Debye-Ang):
   XX=            -85.6339   YY=            -84.9827   ZZ=            -84.2565
   XY=              0.6986   XZ=             -0.4144   YZ=             -0.7325

 Normal termination of Gaussian 16 at Wed May  5 20:01:25 2021.
