 Gaussian 16, Revision A.03,
 Gaussian 16:  EM64L-G16RevA.03 25-Dec-2016

 -------------
 #p 6-31g* mp2
 -------------

 ------------------------------------------------------
 Input file generated by CHIRIPA (05-May-2021 14:53:18)
 ------------------------------------------------------
 Symbolic Z-matrix:
 Charge =  0 Multiplicity = 1

                         Standard orientation:
 ---------------------------------------------------------------------
 Center     Atomic      Atomic             Coordinates (Angstroms)
 Number     Number       Type             X           Y           Z
 ---------------------------------------------------------------------
      1          6           0       -4.260136    0.827740   -0.011311
      2          6           0       -3.291731    1.928011   -0.446721
      3          6           0       -3.927621    3.318302   -0.423757
      4          1           0       -5.139927    0.841018   -0.669139
      5          1           0       -4.623913    1.048884    1.001683
      6          1           0       -2.928824    1.704131   -1.458053
      7          1           0       -2.414056    1.911987    0.212100
      8          1           0       -4.273912    3.566926    0.584643
      9          1           0       -4.791604    3.357889   -1.095000
     10          1           0       -3.217836    4.089657   -0.738522
     11          6           0       -3.639038   -0.567842   -0.029058
     12          6           0       -4.607443   -1.668112    0.406352
     13          6           0       -3.971554   -3.058404    0.383387
     14          1           0       -3.275261   -0.788986   -1.042052
     15          1           0       -2.759247   -0.581120    0.628769
     16          1           0       -5.485119   -1.652089   -0.252469
     17          1           0       -4.970351   -1.444233    1.417683
     18          1           0       -3.107570   -3.097991    1.054630
     19          1           0       -3.625263   -3.307028   -0.625012
     20          1           0       -4.681339   -3.829759    0.698152
     21          6           0        0.600323   -0.531678   -0.049148
     22          6           0        1.135165    0.340031    0.905100
     23          6           0        2.510695    0.585829    0.950347
     24          6           0        3.325884   -0.059937    0.022045
     25          6           0        2.823111   -0.933816   -0.940682
     26          6           0        1.444515   -1.164704   -0.967375
     27          1           0       -0.469413   -0.716828   -0.077091
     28          1           0        0.481949    0.833040    1.619450
     29          1           0        2.951312    1.255935    1.678517
     30          1           0        3.499511   -1.410589   -1.639675
     31          1           0        1.031935   -1.842181   -1.709566
     32          7           0        4.783719    0.192386    0.060125
     33          8           0        5.480591   -0.388931   -0.768775
     34          8           0        5.201894    0.966696    0.918152
 ---------------------------------------------------------------------

 SCF Done:  E(RHF) =  -669.535651399     A.U. after   15 cycles
 E2 =    -0.2091577168D+01 EUMP2 =    -0.67162722856701D+03

 The electronic state is 1-A.
 Alpha  occ. eigenvalues --  -20.60698 -20.60693 -15.85752 -11.31095 -11.27676
 Alpha  occ. eigenvalues --  -11.27669 -11.27331 -11.26674 -11.26655 -11.22702
 Alpha  occ. eigenvalues --  -11.22592 -11.22584 -11.22384 -11.22024 -11.21822
 Alpha  occ. eigenvalues --   -1.59775  -1.39329  -1.19266  -1.09508  -1.08655
 Alpha  occ. eigenvalues --   -1.04673  -1.04489  -0.96944  -0.95496  -0.87953
 Alpha  occ. eigenvalues --   -0.86067  -0.82340  -0.80564  -0.79375  -0.77391
 Alpha  occ. eigenvalues --   -0.71970  -0.71098  -0.70362  -0.66132  -0.64915
 Alpha  occ. eigenvalues --   -0.64677  -0.62028  -0.61875  -0.60309  -0.58572
 Alpha  occ. eigenvalues --   -0.56244  -0.55172  -0.53580  -0.53347  -0.52997
 Alpha  occ. eigenvalues --   -0.52764  -0.50878  -0.48876  -0.48726  -0.48723
 Alpha  occ. eigenvalues --   -0.47601  -0.46851  -0.46799  -0.44782  -0.44739
 Alpha  occ. eigenvalues --   -0.37228  -0.36284
 Alpha virt. eigenvalues --    0.05147   0.11347   0.16632   0.19351   0.22571
 Alpha virt. eigenvalues --    0.23170   0.24844   0.25700   0.27073   0.27375
 Alpha virt. eigenvalues --    0.29767   0.30342   0.30902   0.31162   0.31471

 Mulliken charges:
               1
     1  C   -0.298159
     2  C   -0.300327
     3  C   -0.476402
     4  H    0.154089
     5  H    0.152156
     6  H    0.153442
     7  H    0.145474
     8  H    0.156526
     9  H    0.157791
    10  H    0.163430
    11  C   -0.304440
    12  C   -0.299131
    13  C   -0.477534
    14  H    0.148671
    15  H    0.142608
    16  H    0.156081
    17  H    0.155080
    18  H    0.153805
    19  H    0.154285
    20  H    0.165351
    21  C   -0.177551
    22  C   -0.222112
    23  C   -0.170757
    24  C    0.157955
    25  C   -0.170594
    26  C   -0.221127
    27  H    0.238668
    28  H    0.222274
    29  H    0.275190
    30  H    0.275173
    31  H    0.223527
    32  N    0.488060
    33  O   -0.460715
    34  O   -0.460789
 Sum of Mulliken charges =  -0.00000

 Dipole moment (field-independent basis, Debye):
    X=             -5.4615    Y=             -0.8622    Z=             -0.1647  Tot=              5.5316
 Quadrupole moment (field-independent basis, Debye-Ang):
   XX=           -128.3174   YY=            -93.9075   ZZ=            -91.1588
   XY=             -2.7770   XZ=             -0.8226   YZ=              2.8633

 Normal termination of Gaussian 16 at Wed May  5 23:40:22 2021.
