 Gaussian 16, Revision A.03,
 Gaussian 16:  EM64L-G16RevA.03 25-Dec-2016

 -------------
 #p 6-31g* mp2
 -------------

 ------------------------------------------------------
 Input file generated by CHIRIPA (05-May-2021 14:57:24)
 ------------------------------------------------------
 Symbolic Z-matrix:
 Charge =  0 Multiplicity = 1

                         Standard orientation:
 ---------------------------------------------------------------------
 Center     Atomic      Atomic             Coordinates (Angstroms)
 Number     Number       Type             X           Y           Z
 ---------------------------------------------------------------------
      1          6           0        2.796963    2.315812    0.865824
      2          6           0        2.482523    2.086886   -0.477769
      3          6           0        2.427411    0.784121   -0.982063
      4          6           0        2.693537   -0.271040   -0.110797
      5          6           0        3.009675   -0.075312    1.232719
      6          6           0        3.059074    1.235886    1.715282
      7          1           0        2.837557    3.331107    1.249131
      8          1           0        2.278504    2.923647   -1.139775
      9          1           0        2.186500    0.578343   -2.017937
     10          1           0        3.208199   -0.929705    1.868345
     11          1           0        3.303536    1.410680    2.759184
     12          7           0        2.638216   -1.654683   -0.633168
     13          8           0        2.876769   -2.567170    0.154930
     14          8           0        2.357350   -1.800497   -1.820808
     15          6           0       -2.413559    2.481205   -0.556238
     16          6           0       -3.691872    1.964533   -0.320681
     17          6           0       -3.863927    0.615142    0.001948
     18          6           0       -2.730603   -0.192718    0.080868
     19          6           0       -1.443970    0.292415   -0.148289
     20          6           0       -1.295659    1.644972   -0.469444
     21          1           0       -2.289126    3.530675   -0.806291
     22          1           0       -4.561854    2.611622   -0.387387
     23          1           0       -4.842067    0.188995    0.189193
     24          1           0       -0.595764   -0.377294   -0.074429
     25          1           0       -0.301702    2.043486   -0.651869
     26          7           0       -2.900181   -1.622934    0.421640
     27          8           0       -1.885649   -2.313842    0.484951
     28          8           0       -4.044418   -2.025947    0.618973
 ---------------------------------------------------------------------

 SCF Done:  E(RHF) =  -868.335625756     A.U. after   16 cycles
 E2 =    -0.2603343804D+01 EUMP2 =    -0.87093896956010D+03

 The electronic state is 1-A.
 Alpha  occ. eigenvalues --  -20.61120 -20.61090 -20.60521 -20.60487 -15.86182
 Alpha  occ. eigenvalues --  -15.85560 -11.31934 -11.31065 -11.28602 -11.28467
 Alpha  occ. eigenvalues --  -11.28324 -11.27671 -11.27658 -11.27619 -11.27510
 Alpha  occ. eigenvalues --  -11.27458 -11.26723 -11.26608  -1.60178  -1.59581
 Alpha  occ. eigenvalues --   -1.39719  -1.39129  -1.20162  -1.19252  -1.09462
 Alpha  occ. eigenvalues --   -1.08636  -1.05612  -1.04664  -0.96220  -0.95445
 Alpha  occ. eigenvalues --   -0.86963  -0.86077  -0.83048  -0.82266  -0.78035
 Alpha  occ. eigenvalues --   -0.77290  -0.72378  -0.71779  -0.71528  -0.71185
 Alpha  occ. eigenvalues --   -0.70909  -0.70390  -0.65775  -0.65577  -0.64905
 Alpha  occ. eigenvalues --   -0.64705  -0.62908  -0.62058  -0.56032  -0.55263
 Alpha  occ. eigenvalues --   -0.53882  -0.53651  -0.53003  -0.52723  -0.49168
 Alpha  occ. eigenvalues --   -0.49112  -0.48550  -0.48524  -0.45027  -0.44502
 Alpha  occ. eigenvalues --   -0.38139  -0.37270  -0.37188  -0.36269
 Alpha virt. eigenvalues --    0.04479   0.05244   0.10317   0.11365   0.15811
 Alpha virt. eigenvalues --    0.16704   0.20334   0.21724   0.26018   0.27377
 Alpha virt. eigenvalues --    0.27718   0.28293   0.29980   0.31636   0.31858

 Mulliken charges:
               1
     1  C   -0.169510
     2  C   -0.231291
     3  C   -0.177303
     4  C    0.155904
     5  C   -0.168681
     6  C   -0.217519
     7  H    0.227841
     8  H    0.223085
     9  H    0.279351
    10  H    0.281977
    11  H    0.227939
    12  N    0.489050
    13  O   -0.452122
    14  O   -0.458298
    15  C   -0.173608
    16  C   -0.218490
    17  C   -0.171009
    18  C    0.158985
    19  C   -0.173814
    20  C   -0.222994
    21  H    0.221507
    22  H    0.222286
    23  H    0.275659
    24  H    0.276030
    25  H    0.224581
    26  N    0.487480
    27  O   -0.455317
    28  O   -0.461718
 Sum of Mulliken charges =  -0.00000

 Dipole moment (field-independent basis, Debye):
    X=              1.1271    Y=              9.5997    Z=              0.8090  Tot=              9.6994
 Quadrupole moment (field-independent basis, Debye-Ang):
   XX=           -101.9593   YY=           -109.8989   ZZ=           -102.0294
   XY=             -2.0718   XZ=              9.6265   YZ=             -1.9948

 Normal termination of Gaussian 16 at Thu May  6 22:48:13 2021.
