 Gaussian 16, Revision A.03,
 Gaussian 16:  EM64L-G16RevA.03 25-Dec-2016

 -------------
 #p 6-31g* mp2
 -------------

 ------------------------------------------------------
 Input file generated by CHIRIPA (05-May-2021 14:57:26)
 ------------------------------------------------------
 Symbolic Z-matrix:
 Charge =  0 Multiplicity = 1

                         Standard orientation:
 ---------------------------------------------------------------------
 Center     Atomic      Atomic             Coordinates (Angstroms)
 Number     Number       Type             X           Y           Z
 ---------------------------------------------------------------------
      1          6           0       -5.044737    2.350079   -0.324712
      2          6           0       -3.733123    2.088511   -0.734309
      3          6           0       -3.191395    0.806152   -0.605330
      4          6           0       -3.993027   -0.195538   -0.060082
      5          6           0       -5.303219    0.033721    0.357202
      6          6           0       -5.824225    1.323659    0.218778
      7          1           0       -5.457516    3.349190   -0.428575
      8          1           0       -3.125449    2.883704   -1.156738
      9          1           0       -2.178986    0.575994   -0.914315
     10          1           0       -5.884606   -0.779392    0.774641
     11          1           0       -6.843157    1.523897    0.537727
     12          7           0       -3.430493   -1.557125    0.081462
     13          8           0       -4.157307   -2.422371    0.564915
     14          8           0       -2.273415   -1.733310   -0.293729
     15          6           0        1.808614   -1.100866    0.260739
     16          6           0        2.137116   -0.015639    1.079818
     17          6           0        3.395832    0.586145    0.990167
     18          6           0        4.305883    0.074769    0.066267
     19          6           0        4.008365   -1.005094   -0.763595
     20          6           0        2.743639   -1.591265   -0.656736
     21          1           0        0.828478   -1.562283    0.337066
     22          1           0        1.412956    0.367317    1.793247
     23          1           0        3.676420    1.427505    1.612100
     24          1           0        4.751233   -1.364643   -1.465229
     25          1           0        2.491274   -2.433939   -1.294120
     26          7           0        5.641611    0.703587   -0.037752
     27          8           0        6.425646    0.234320   -0.859769
     28          8           0        5.879225    1.653814    0.704707
 ---------------------------------------------------------------------

 SCF Done:  E(RHF) =  -868.339987207     A.U. after   16 cycles
 E2 =    -0.2598217332D+01 EUMP2 =    -0.87093820453833D+03

 The electronic state is 1-A.
 Alpha  occ. eigenvalues --  -20.61812 -20.61736 -20.60447 -20.60439 -15.86815
 Alpha  occ. eigenvalues --  -15.85497 -11.31941 -11.30731 -11.28496 -11.28456
 Alpha  occ. eigenvalues --  -11.28154 -11.27432 -11.27415 -11.27330 -11.27288
 Alpha  occ. eigenvalues --  -11.26809 -11.26252 -11.26178  -1.60837  -1.59526
 Alpha  occ. eigenvalues --   -1.40401  -1.39083  -1.20086  -1.18883  -1.09519
 Alpha  occ. eigenvalues --   -1.08261  -1.05451  -1.04279  -0.96397  -0.95120
 Alpha  occ. eigenvalues --   -0.86859  -0.85658  -0.83241  -0.81971  -0.78319
 Alpha  occ. eigenvalues --   -0.77075  -0.73051  -0.72145  -0.71714  -0.71184
 Alpha  occ. eigenvalues --   -0.70851  -0.69857  -0.65739  -0.65443  -0.64514
 Alpha  occ. eigenvalues --   -0.64261  -0.62802  -0.61638  -0.55946  -0.54603
 Alpha  occ. eigenvalues --   -0.53794  -0.53535  -0.52611  -0.52351  -0.49808
 Alpha  occ. eigenvalues --   -0.49761  -0.48479  -0.48460  -0.45856  -0.44519
 Alpha  occ. eigenvalues --   -0.38045  -0.37047  -0.36805  -0.35913
 Alpha virt. eigenvalues --    0.04179   0.05471   0.10611   0.11754   0.15709
 Alpha virt. eigenvalues --    0.17003   0.20707   0.22109   0.26660   0.27382
 Alpha virt. eigenvalues --    0.27832   0.29091   0.30473   0.31413   0.32480

 Mulliken charges:
               1
     1  C   -0.169967
     2  C   -0.218540
     3  C   -0.172226
     4  C    0.157788
     5  C   -0.170525
     6  C   -0.218393
     7  H    0.228449
     8  H    0.226111
     9  H    0.273174
    10  H    0.276840
    11  H    0.225932
    12  N    0.491537
    13  O   -0.455026
    14  O   -0.473049
    15  C   -0.179833
    16  C   -0.222469
    17  C   -0.171995
    18  C    0.157106
    19  C   -0.171669
    20  C   -0.220816
    21  H    0.249046
    22  H    0.221226
    23  H    0.272792
    24  H    0.274100
    25  H    0.226339
    26  N    0.488233
    27  O   -0.461523
    28  O   -0.462641
 Sum of Mulliken charges =  -0.00000

 Dipole moment (field-independent basis, Debye):
    X=             -7.1618    Y=              2.5445    Z=             -0.1466  Tot=              7.6018
 Quadrupole moment (field-independent basis, Debye-Ang):
   XX=           -126.0065   YY=           -105.0035   ZZ=           -102.5730
   XY=            -28.8610   XZ=              0.2165   YZ=              1.5292

 Normal termination of Gaussian 16 at Fri May  7 08:10:26 2021.
