 Gaussian 16, Revision A.03,
 Gaussian 16:  EM64L-G16RevA.03 25-Dec-2016

 -------------
 #p 6-31g* mp2
 -------------

 ------------------------------------------------------
 Input file generated by CHIRIPA (05-May-2021 14:55:24)
 ------------------------------------------------------
 Symbolic Z-matrix:
 Charge =  0 Multiplicity = 1

                         Standard orientation:
 ---------------------------------------------------------------------
 Center     Atomic      Atomic             Coordinates (Angstroms)
 Number     Number       Type             X           Y           Z
 ---------------------------------------------------------------------
      1          6           0        1.399656    1.379754    0.786225
      2          6           0        2.689511    1.664841    1.246138
      3          6           0        3.769160    0.856116    0.878892
      4          6           0        3.521789   -0.234521    0.046661
      5          6           0        2.248248   -0.544566   -0.427949
      6          6           0        1.183522    0.277903   -0.047880
      7          1           0        0.566755    2.013329    1.076492
      8          1           0        2.860326    2.519890    1.894026
      9          1           0        4.777935    1.053875    1.220482
     10          1           0        2.109188   -1.403903   -1.072635
     11          1           0        0.182874    0.054095   -0.406570
     12          7           0        4.656866   -1.097957   -0.348914
     13          8           0        4.412577   -2.052915   -1.083091
     14          8           0        5.769335   -0.803411    0.082701
     15          6           0       -4.467204   -0.421322    0.359829
     16          6           0       -5.640482   -1.283368   -0.107375
     17          6           0       -6.026401   -2.357861    0.909643
     18          1           0       -3.601581   -1.067994    0.558467
     19          1           0       -4.728168    0.053939    1.315559
     20          1           0       -5.377911   -1.755767   -1.062628
     21          1           0       -6.503355   -0.634547   -0.305107
     22          1           0       -6.314327   -1.901153    1.862070
     23          1           0       -5.182488   -3.028743    1.100243
     24          1           0       -6.867148   -2.962451    0.555417
     25          6           0       -4.069666    0.657397   -0.646181
     26          6           0       -2.896387    1.519443   -0.178978
     27          6           0       -2.510469    2.593936   -1.195995
     28          1           0       -3.808702    0.182136   -1.601911
     29          1           0       -4.935289    1.304069   -0.844819
     30          1           0       -2.033516    0.870622    0.018754
     31          1           0       -3.158960    1.991842    0.776277
     32          1           0       -3.354382    3.264818   -1.386596
     33          1           0       -2.222543    2.137227   -2.148422
     34          1           0       -1.669723    3.198527   -0.841769
 ---------------------------------------------------------------------

 SCF Done:  E(RHF) =  -669.535446369     A.U. after   15 cycles
 E2 =    -0.2091395053D+01 EUMP2 =    -0.67162684142125D+03

 The electronic state is 1-A.
 Alpha  occ. eigenvalues --  -20.60737 -20.60732 -15.85791 -11.31149 -11.27720
 Alpha  occ. eigenvalues --  -11.27716 -11.27446 -11.26731 -11.26708 -11.22833
 Alpha  occ. eigenvalues --  -11.22299 -11.22199 -11.22167 -11.22121 -11.21549
 Alpha  occ. eigenvalues --   -1.59813  -1.39367  -1.19321  -1.09302  -1.08715
 Alpha  occ. eigenvalues --   -1.04727  -1.04385  -0.96801  -0.95551  -0.87815
 Alpha  occ. eigenvalues --   -0.86127  -0.82385  -0.80484  -0.79077  -0.77437
 Alpha  occ. eigenvalues --   -0.72010  -0.71136  -0.70427  -0.65979  -0.64972
 Alpha  occ. eigenvalues --   -0.64735  -0.62163  -0.61689  -0.60201  -0.58413
 Alpha  occ. eigenvalues --   -0.56069  -0.55215  -0.53509  -0.53223  -0.53047
 Alpha  occ. eigenvalues --   -0.52829  -0.50736  -0.48820  -0.48765  -0.48723
 Alpha  occ. eigenvalues --   -0.47516  -0.46614  -0.46515  -0.44774  -0.44626
 Alpha  occ. eigenvalues --   -0.37296  -0.36329
 Alpha virt. eigenvalues --    0.05098   0.11311   0.16581   0.18813   0.22438
 Alpha virt. eigenvalues --    0.23877   0.24964   0.25867   0.26482   0.27962
 Alpha virt. eigenvalues --    0.29063   0.29612   0.30926   0.31550   0.32266

 Mulliken charges:
               1
     1  C   -0.173675
     2  C   -0.218657
     3  C   -0.171094
     4  C    0.158810
     5  C   -0.171360
     6  C   -0.223263
     7  H    0.227946
     8  H    0.223316
     9  H    0.275463
    10  H    0.275557
    11  H    0.229387
    12  N    0.487949
    13  O   -0.460574
    14  O   -0.460498
    15  C   -0.298644
    16  C   -0.300370
    17  C   -0.476236
    18  H    0.147951
    19  H    0.150818
    20  H    0.152997
    21  H    0.153355
    22  H    0.155836
    23  H    0.155943
    24  H    0.162463
    25  C   -0.298532
    26  C   -0.306613
    27  C   -0.476700
    28  H    0.150799
    29  H    0.153638
    30  H    0.143626
    31  H    0.154669
    32  H    0.161098
    33  H    0.158067
    34  H    0.156530
 Sum of Mulliken charges =  -0.00000

 Dipole moment (field-independent basis, Debye):
    X=             -4.2496    Y=              3.0606    Z=              1.3648  Tot=              5.4120
 Quadrupole moment (field-independent basis, Debye-Ang):
   XX=           -120.0732   YY=            -95.1032   ZZ=            -93.9390
   XY=             12.9775   XZ=              6.7762   YZ=              2.3724

 Normal termination of Gaussian 16 at Wed May  5 19:09:44 2021.
