 Gaussian 16, Revision A.03,
 Gaussian 16:  EM64L-G16RevA.03 25-Dec-2016

 -------------
 #p 6-31g* mp2
 -------------

 ------------------------------------------------------
 Input file generated by CHIRIPA (05-May-2021 14:53:11)
 ------------------------------------------------------
 Symbolic Z-matrix:
 Charge =  0 Multiplicity = 1

                         Standard orientation:
 ---------------------------------------------------------------------
 Center     Atomic      Atomic             Coordinates (Angstroms)
 Number     Number       Type             X           Y           Z
 ---------------------------------------------------------------------
      1          6           0       -3.208178   -0.243938    0.369102
      2          6           0       -2.501244   -1.588912    0.198004
      3          6           0       -1.111986   -1.611939    0.836147
      4          1           0       -2.587433    0.548060   -0.071762
      5          1           0       -3.292012   -0.015357    1.440604
      6          1           0       -2.420002   -1.815541   -0.872816
      7          1           0       -3.123833   -2.377825    0.639156
      8          1           0       -1.178080   -1.410930    1.910311
      9          1           0       -0.470250   -0.845451    0.389748
     10          1           0       -0.624620   -2.582682    0.702011
     11          6           0       -4.598131   -0.205306   -0.263562
     12          6           0       -5.305065    1.139668   -0.092464
     13          6           0       -6.694323    1.162695   -0.730608
     14          1           0       -4.514296   -0.433887   -1.335065
     15          1           0       -5.218876   -0.997304    0.177301
     16          1           0       -4.682476    1.928581   -0.533617
     17          1           0       -5.386307    1.366297    0.978355
     18          1           0       -7.336059    0.396207   -0.284209
     19          1           0       -6.628229    0.961686   -1.804771
     20          1           0       -7.181689    2.133438   -0.596472
     21          6           0        3.307325    2.662672    0.295335
     22          6           0        3.856203    2.048625   -0.835240
     23          6           0        3.719405    0.671265   -1.032002
     24          6           0        3.024398   -0.064966   -0.073764
     25          6           0        2.466203    0.517769    1.062955
     26          6           0        2.615298    1.896635    1.239160
     27          1           0        3.418369    3.733223    0.440200
     28          1           0        4.394151    2.641042   -1.569881
     29          1           0        4.134325    0.170253   -1.898168
     30          1           0        1.935330   -0.099087    1.777854
     31          1           0        2.187983    2.370824    2.118132
     32          7           0        2.873067   -1.523912   -0.271185
     33          8           0        2.256223   -2.150325    0.587736
     34          8           0        3.374165   -2.013396   -1.281109
 ---------------------------------------------------------------------

 SCF Done:  E(RHF) =  -669.535596570     A.U. after   15 cycles
 E2 =    -0.2091903614D+01 EUMP2 =    -0.67162750018410D+03

 The electronic state is 1-A.
 Alpha  occ. eigenvalues --  -20.60836 -20.60806 -15.85851 -11.31218 -11.27785
 Alpha  occ. eigenvalues --  -11.27762 -11.27529 -11.26802 -11.26786 -11.21507
 Alpha  occ. eigenvalues --  -11.21193 -11.21125 -11.21065 -11.20994 -11.20301
 Alpha  occ. eigenvalues --   -1.59886  -1.39440  -1.19389  -1.08786  -1.08167
 Alpha  occ. eigenvalues --   -1.04788  -1.03202  -0.95686  -0.95571  -0.86653
 Alpha  occ. eigenvalues --   -0.86183  -0.82453  -0.79287  -0.77994  -0.77481
 Alpha  occ. eigenvalues --   -0.72083  -0.71206  -0.70493  -0.65043  -0.64815
 Alpha  occ. eigenvalues --   -0.64780  -0.62134  -0.60610  -0.59000  -0.57240
 Alpha  occ. eigenvalues --   -0.55294  -0.54949  -0.53127  -0.52887  -0.52260
 Alpha  occ. eigenvalues --   -0.52060  -0.49628  -0.48848  -0.48827  -0.47583
 Alpha  occ. eigenvalues --   -0.46360  -0.45539  -0.45466  -0.44792  -0.43362
 Alpha  occ. eigenvalues --   -0.37369  -0.36383
 Alpha virt. eigenvalues --    0.05007   0.11182   0.16490   0.21317   0.23097
 Alpha virt. eigenvalues --    0.24623   0.26701   0.26863   0.27688   0.27842
 Alpha virt. eigenvalues --    0.28860   0.30789   0.31506   0.31752   0.32574

 Mulliken charges:
               1
     1  C   -0.297547
     2  C   -0.301712
     3  C   -0.473954
     4  H    0.146551
     5  H    0.146646
     6  H    0.152651
     7  H    0.151126
     8  H    0.146047
     9  H    0.146454
    10  H    0.180998
    11  C   -0.297811
    12  C   -0.299115
    13  C   -0.475495
    14  H    0.149865
    15  H    0.149948
    16  H    0.150229
    17  H    0.150721
    18  H    0.155492
    19  H    0.155336
    20  H    0.159065
    21  C   -0.170726
    22  C   -0.218581
    23  C   -0.171024
    24  C    0.157473
    25  C   -0.171424
    26  C   -0.219343
    27  H    0.225725
    28  H    0.223514
    29  H    0.275599
    30  H    0.279127
    31  H    0.223958
    32  N    0.488579
    33  O   -0.458011
    34  O   -0.460361
 Sum of Mulliken charges =  -0.00000

 Dipole moment (field-independent basis, Debye):
    X=              0.6942    Y=              5.0116    Z=              0.6884  Tot=              5.1061
 Quadrupole moment (field-independent basis, Debye-Ang):
   XX=            -92.1997   YY=            -95.5840   ZZ=            -90.8834
   XY=             16.3575   XZ=             -1.1585   YZ=             -0.9723

 Normal termination of Gaussian 16 at Wed May  5 20:04:49 2021.
