 Gaussian 16, Revision A.03,
 Gaussian 16:  EM64L-G16RevA.03 25-Dec-2016

 -------------
 #p 6-31g* mp2
 -------------

 ------------------------------------------------------
 Input file generated by CHIRIPA (05-May-2021 14:53:17)
 ------------------------------------------------------
 Symbolic Z-matrix:
 Charge =  0 Multiplicity = 1

                         Standard orientation:
 ---------------------------------------------------------------------
 Center     Atomic      Atomic             Coordinates (Angstroms)
 Number     Number       Type             X           Y           Z
 ---------------------------------------------------------------------
      1          6           0       -3.610231    0.420780   -0.104260
      2          6           0       -5.129590    0.480489    0.056878
      3          6           0       -5.622990    1.856833    0.504123
      4          1           0       -3.135884    0.689830    0.849445
      5          1           0       -3.295871    1.179163   -0.834622
      6          1           0       -5.441136   -0.278715    0.785689
      7          1           0       -5.600376    0.211079   -0.897268
      8          1           0       -5.340568    2.623009   -0.225132
      9          1           0       -5.180422    2.130433    1.467387
     10          1           0       -6.711836    1.877092    0.613045
     11          6           0       -3.101751   -0.948761   -0.550952
     12          6           0       -1.582391   -1.008470   -0.712090
     13          6           0       -1.088992   -2.384814   -1.159335
     14          1           0       -3.416111   -1.707144    0.179410
     15          1           0       -3.576097   -1.217812   -1.504656
     16          1           0       -1.111605   -0.739060    0.242056
     17          1           0       -1.270846   -0.249267   -1.440901
     18          1           0       -1.531559   -2.658414   -2.122599
     19          1           0       -1.371414   -3.150991   -0.430080
     20          1           0       -0.000146   -2.405073   -1.268257
     21          6           0        3.373146    2.424555   -0.682458
     22          6           0        3.938743    1.236312   -1.156479
     23          6           0        3.530142    0.001501   -0.643802
     24          6           0        2.549237   -0.008216    0.346663
     25          6           0        1.966739    1.158450    0.839490
     26          6           0        2.390680    2.381907    0.312260
     27          1           0        3.696516    3.379376   -1.086370
     28          1           0        4.701929    1.266401   -1.928935
     29          1           0        3.951262   -0.933586   -0.992641
     30          1           0        1.207956    1.096513    1.610094
     31          1           0        1.949674    3.303121    0.682291
     32          7           0        2.108549   -1.309444    0.897114
     33          8           0        1.242684   -1.291038    1.769225
     34          8           0        2.637347   -2.323115    0.446026
 ---------------------------------------------------------------------

 SCF Done:  E(RHF) =  -669.536412163     A.U. after   15 cycles
 E2 =    -0.2092465889D+01 EUMP2 =    -0.67162887805203D+03

 The electronic state is 1-A.
 Alpha  occ. eigenvalues --  -20.60975 -20.60969 -15.85973 -11.31266 -11.27829
 Alpha  occ. eigenvalues --  -11.27825 -11.27562 -11.26830 -11.26819 -11.21362
 Alpha  occ. eigenvalues --  -11.21082 -11.20939 -11.20890 -11.20830 -11.20188
 Alpha  occ. eigenvalues --   -1.60014  -1.39575  -1.19432  -1.08844  -1.07996
 Alpha  occ. eigenvalues --   -1.04825  -1.03050  -0.95693  -0.95504  -0.86517
 Alpha  occ. eigenvalues --   -0.86228  -0.82530  -0.79144  -0.77824  -0.77572
 Alpha  occ. eigenvalues --   -0.72207  -0.71337  -0.70546  -0.65093  -0.64831
 Alpha  occ. eigenvalues --   -0.64616  -0.62176  -0.60426  -0.58895  -0.57114
 Alpha  occ. eigenvalues --   -0.55335  -0.54784  -0.53154  -0.52920  -0.52180
 Alpha  occ. eigenvalues --   -0.51938  -0.49451  -0.48979  -0.48953  -0.47480
 Alpha  occ. eigenvalues --   -0.46219  -0.45512  -0.45302  -0.44670  -0.43282
 Alpha  occ. eigenvalues --   -0.37406  -0.36419
 Alpha virt. eigenvalues --    0.04904   0.11201   0.16365   0.21265   0.23272
 Alpha virt. eigenvalues --    0.24679   0.26595   0.27331   0.27648   0.28305
 Alpha virt. eigenvalues --    0.28620   0.30710   0.31636   0.32017   0.32459

 Mulliken charges:
               1
     1  C   -0.297637
     2  C   -0.299288
     3  C   -0.475387
     4  H    0.148381
     5  H    0.145815
     6  H    0.153273
     7  H    0.151514
     8  H    0.153164
     9  H    0.154204
    10  H    0.159882
    11  C   -0.297387
    12  C   -0.310197
    13  C   -0.474824
    14  H    0.152300
    15  H    0.147315
    16  H    0.164065
    17  H    0.144052
    18  H    0.149163
    19  H    0.162041
    20  H    0.162410
    21  C   -0.170498
    22  C   -0.218592
    23  C   -0.171105
    24  C    0.158858
    25  C   -0.169854
    26  C   -0.218677
    27  H    0.225917
    28  H    0.223721
    29  H    0.275728
    30  H    0.275516
    31  H    0.223922
    32  N    0.488988
    33  O   -0.458323
    34  O   -0.458458
 Sum of Mulliken charges =  -0.00000

 Dipole moment (field-independent basis, Debye):
    X=              1.7274    Y=              4.4994    Z=             -1.8214  Tot=              5.1523
 Quadrupole moment (field-independent basis, Debye-Ang):
   XX=            -85.7746   YY=            -94.7835   ZZ=            -94.1249
   XY=             10.7837   XZ=             -6.7397   YZ=              2.4779

 Normal termination of Gaussian 16 at Thu May  6 10:40:10 2021.
