 Gaussian 16, Revision A.03,
 Gaussian 16:  EM64L-G16RevA.03 25-Dec-2016

 -------------
 #p 6-31g* mp2
 -------------

 ------------------------------------------------------
 Input file generated by CHIRIPA (05-May-2021 14:53:11)
 ------------------------------------------------------
 Symbolic Z-matrix:
 Charge =  0 Multiplicity = 1

                         Standard orientation:
 ---------------------------------------------------------------------
 Center     Atomic      Atomic             Coordinates (Angstroms)
 Number     Number       Type             X           Y           Z
 ---------------------------------------------------------------------
      1          6           0        2.655327   -0.526087    0.287160
      2          6           0        2.086385   -1.564226    1.254919
      3          6           0        0.557974   -1.558627    1.296390
      4          1           0        2.298651    0.471420    0.578205
      5          1           0        2.259574   -0.718047   -0.719779
      6          1           0        2.484179   -1.371205    2.259468
      7          1           0        2.444612   -2.559355    0.961650
      8          1           0        0.144920   -1.773488    0.305521
      9          1           0        0.184712   -0.578587    1.610714
     10          1           0        0.172553   -2.308297    1.994463
     11          6           0        4.182063   -0.519514    0.234596
     12          6           0        4.751004    0.518625   -0.733164
     13          6           0        6.279416    0.513027   -0.774635
     14          1           0        4.577816   -0.327554    1.241535
     15          1           0        4.538739   -1.517020   -0.056450
     16          1           0        4.392777    1.513755   -0.439894
     17          1           0        4.353210    0.325604   -1.737713
     18          1           0        6.652678   -0.467013   -1.088958
     19          1           0        6.692469    0.727888    0.216235
     20          1           0        6.664836    1.262697   -1.472707
     21          6           0       -1.016150    2.245798    0.298164
     22          6           0       -0.719892    1.282832   -0.672118
     23          6           0       -1.629255    0.260287   -0.958490
     24          6           0       -2.830826    0.230808   -0.252340
     25          6           0       -3.154900    1.175691    0.720010
     26          6           0       -2.230567    2.189253    0.989913
     27          1           0       -0.303920    3.036647    0.514229
     28          1           0        0.222465    1.324261   -1.210905
     29          1           0       -1.425406   -0.498043   -1.704680
     30          1           0       -4.102456    1.108217    1.240587
     31          1           0       -2.463318    2.935761    1.743969
     32          7           0       -3.801451   -0.846960   -0.546791
     33          8           0       -4.853140   -0.850831    0.089270
     34          8           0       -3.492161   -1.667435   -1.408068
 ---------------------------------------------------------------------

 SCF Done:  E(RHF) =  -669.534160851     A.U. after   15 cycles
 E2 =    -0.2094003225D+01 EUMP2 =    -0.67162816407676D+03

 The electronic state is 1-A.
 Alpha  occ. eigenvalues --  -20.60742 -20.60737 -15.85794 -11.31155 -11.27727
 Alpha  occ. eigenvalues --  -11.27692 -11.27470 -11.26765 -11.26677 -11.22217
 Alpha  occ. eigenvalues --  -11.22063 -11.21946 -11.21913 -11.21557 -11.21160
 Alpha  occ. eigenvalues --   -1.59816  -1.39370  -1.19335  -1.08974  -1.08727
 Alpha  occ. eigenvalues --   -1.04746  -1.03960  -0.96408  -0.95565  -0.87425
 Alpha  occ. eigenvalues --   -0.86132  -0.82399  -0.80048  -0.78836  -0.77430
 Alpha  occ. eigenvalues --   -0.72015  -0.71136  -0.70454  -0.65605  -0.64983
 Alpha  occ. eigenvalues --   -0.64738  -0.62096  -0.61356  -0.59789  -0.58070
 Alpha  occ. eigenvalues --   -0.55694  -0.55242  -0.53479  -0.53064  -0.52862
 Alpha  occ. eigenvalues --   -0.52430  -0.50349  -0.48772  -0.48769  -0.48302
 Alpha  occ. eigenvalues --   -0.47085  -0.46316  -0.46286  -0.44773  -0.44253
 Alpha  occ. eigenvalues --   -0.37307  -0.36218
 Alpha virt. eigenvalues --    0.05075   0.11186   0.16511   0.20462   0.22684
 Alpha virt. eigenvalues --    0.23956   0.25358   0.25816   0.27176   0.28496
 Alpha virt. eigenvalues --    0.28863   0.30528   0.30995   0.31537   0.31692

 Mulliken charges:
               1
     1  C   -0.298295
     2  C   -0.300137
     3  C   -0.477643
     4  H    0.143511
     5  H    0.144110
     6  H    0.152216
     7  H    0.154304
     8  H    0.153963
     9  H    0.158608
    10  H    0.162647
    11  C   -0.298124
    12  C   -0.299784
    13  C   -0.475806
    14  H    0.151105
    15  H    0.152699
    16  H    0.147802
    17  H    0.150635
    18  H    0.157280
    19  H    0.156208
    20  H    0.160898
    21  C   -0.174181
    22  C   -0.214362
    23  C   -0.169452
    24  C    0.159839
    25  C   -0.171524
    26  C   -0.218444
    27  H    0.225270
    28  H    0.226641
    29  H    0.274329
    30  H    0.275506
    31  H    0.223285
    32  N    0.488266
    33  O   -0.460454
    34  O   -0.460914
 Sum of Mulliken charges =  -0.00000

 Dipole moment (field-independent basis, Debye):
    X=              3.4585    Y=              3.7406    Z=              1.0739  Tot=              5.2064
 Quadrupole moment (field-independent basis, Debye-Ang):
   XX=           -113.5517   YY=            -92.4226   ZZ=            -92.8425
   XY=            -11.6273   XZ=             -6.1070   YZ=              1.3005

 Normal termination of Gaussian 16 at Thu May  6 04:05:16 2021.
