 Gaussian 16, Revision A.03,
 Gaussian 16:  EM64L-G16RevA.03 25-Dec-2016

 -------------
 #p 6-31g* mp2
 -------------

 ------------------------------------------------------
 Input file generated by CHIRIPA (05-May-2021 14:55:24)
 ------------------------------------------------------
 Symbolic Z-matrix:
 Charge =  0 Multiplicity = 1

                         Standard orientation:
 ---------------------------------------------------------------------
 Center     Atomic      Atomic             Coordinates (Angstroms)
 Number     Number       Type             X           Y           Z
 ---------------------------------------------------------------------
      1          6           0        0.449254   -0.986054   -0.971807
      2          6           0        0.544986    0.353055   -0.579195
      3          6           0        1.759945    0.874647   -0.124921
      4          6           0        2.864073    0.025064   -0.075939
      5          6           0        2.800501   -1.313452   -0.460160
      6          6           0        1.575332   -1.813574   -0.911143
      7          1           0       -0.498521   -1.382900   -1.323420
      8          1           0       -0.327894    0.998040   -0.625247
      9          1           0        1.862123    1.907521    0.185158
     10          1           0        3.687988   -1.931939   -0.403085
     11          1           0        1.503927   -2.853944   -1.215409
     12          7           0        4.155700    0.565886    0.403238
     13          8           0        5.113784   -0.203254    0.436963
     14          8           0        4.185537    1.748680    0.736019
     15          6           0       -3.544434    0.680785   -0.251298
     16          6           0       -3.338758    2.027473    0.443047
     17          6           0       -3.644632    3.215750   -0.469220
     18          1           0       -2.905098    0.634029   -1.143492
     19          1           0       -4.582107    0.613971   -0.606496
     20          1           0       -2.302160    2.091156    0.798048
     21          1           0       -3.978514    2.070952    1.333798
     22          1           0       -4.683335    3.179888   -0.813332
     23          1           0       -2.997455    3.200206   -1.352125
     24          1           0       -3.491047    4.168382    0.047273
     25          6           0       -3.242631   -0.516766    0.647877
     26          6           0       -3.448308   -1.863453   -0.046468
     27          6           0       -3.142433   -3.051731    0.865799
     28          1           0       -2.204959   -0.449951    1.003075
     29          1           0       -3.881966   -0.470009    1.540071
     30          1           0       -2.808551   -1.906932   -0.937219
     31          1           0       -4.484906   -1.927136   -0.401469
     32          1           0       -3.789610   -3.036187    1.748703
     33          1           0       -2.103731   -3.015868    1.209910
     34          1           0       -3.296019   -4.004362    0.349306
 ---------------------------------------------------------------------

 SCF Done:  E(RHF) =  -669.535063882     A.U. after   15 cycles
 E2 =    -0.2093490900D+01 EUMP2 =    -0.67162855478191D+03

 The electronic state is 1-A.
 Alpha  occ. eigenvalues --  -20.60771 -20.60765 -15.85824 -11.31201 -11.27771
 Alpha  occ. eigenvalues --  -11.27766 -11.27486 -11.26779 -11.26759 -11.22763
 Alpha  occ. eigenvalues --  -11.22638 -11.22538 -11.22396 -11.21997 -11.21934
 Alpha  occ. eigenvalues --   -1.59846  -1.39399  -1.19374  -1.09544  -1.08758
 Alpha  occ. eigenvalues --   -1.04778  -1.04563  -0.96974  -0.95599  -0.87986
 Alpha  occ. eigenvalues --   -0.86176  -0.82432  -0.80624  -0.79332  -0.77481
 Alpha  occ. eigenvalues --   -0.72043  -0.71169  -0.70531  -0.66354  -0.65018
 Alpha  occ. eigenvalues --   -0.64630  -0.62219  -0.61889  -0.60336  -0.58580
 Alpha  occ. eigenvalues --   -0.56278  -0.55267  -0.53641  -0.53377  -0.53104
 Alpha  occ. eigenvalues --   -0.52863  -0.50904  -0.48925  -0.48797  -0.48786
 Alpha  occ. eigenvalues --   -0.47691  -0.46870  -0.46793  -0.44815  -0.44802
 Alpha  occ. eigenvalues --   -0.37335  -0.36375
 Alpha virt. eigenvalues --    0.05036   0.11142   0.16449   0.17953   0.21877
 Alpha virt. eigenvalues --    0.23682   0.25111   0.25851   0.26896   0.27980
 Alpha virt. eigenvalues --    0.29358   0.30581   0.30827   0.31147   0.32384

 Mulliken charges:
               1
     1  C   -0.176549
     2  C   -0.227428
     3  C   -0.172394
     4  C    0.158684
     5  C   -0.170688
     6  C   -0.220780
     7  H    0.234502
     8  H    0.232980
     9  H    0.275874
    10  H    0.275715
    11  H    0.224084
    12  N    0.487990
    13  O   -0.460371
    14  O   -0.460317
    15  C   -0.301583
    16  C   -0.303368
    17  C   -0.476459
    18  H    0.140320
    19  H    0.155795
    20  H    0.148184
    21  H    0.158163
    22  H    0.158745
    23  H    0.152842
    24  H    0.164703
    25  C   -0.304758
    26  C   -0.302232
    27  C   -0.477839
    28  H    0.152870
    29  H    0.155742
    30  H    0.141590
    31  H    0.157427
    32  H    0.160139
    33  H    0.156689
    34  H    0.161729
 Sum of Mulliken charges =  -0.00000

 Dipole moment (field-independent basis, Debye):
    X=             -4.7704    Y=             -1.8896    Z=             -1.5626  Tot=              5.3637
 Quadrupole moment (field-independent basis, Debye-Ang):
   XX=           -118.4363   YY=            -91.4698   ZZ=            -95.3941
   XY=             -7.7751   XZ=             -5.6805   YZ=              1.2591

 Normal termination of Gaussian 16 at Thu May  6 19:19:12 2021.
