 Gaussian 16, Revision A.03,
 Gaussian 16:  EM64L-G16RevA.03 25-Dec-2016

 -------------
 #p 6-31g* mp2
 -------------

 ------------------------------------------------------
 Input file generated by CHIRIPA (05-May-2021 14:55:20)
 ------------------------------------------------------
 Symbolic Z-matrix:
 Charge =  0 Multiplicity = 1

                         Standard orientation:
 ---------------------------------------------------------------------
 Center     Atomic      Atomic             Coordinates (Angstroms)
 Number     Number       Type             X           Y           Z
 ---------------------------------------------------------------------
      1          6           0        4.378283    1.673066   -0.135440
      2          6           0        3.967157    0.977873   -1.277458
      3          6           0        3.003857   -0.031206   -1.186032
      4          6           0        2.470260   -0.320417    0.068927
      5          6           0        2.859300    0.354333    1.225063
      6          6           0        3.824019    1.359629    1.109979
      7          1           0        5.127149    2.455474   -0.215651
      8          1           0        4.395883    1.219158   -2.245973
      9          1           0        2.667423   -0.585184   -2.053983
     10          1           0        2.413769    0.091322    2.176769
     11          1           0        4.141401    1.897871    1.998579
     12          7           0        1.449706   -1.386682    0.178237
     13          8           0        0.994936   -1.622493    1.295473
     14          8           0        1.123891   -1.966420   -0.855390
     15          6           0       -3.058005   -0.428210   -0.389608
     16          6           0       -3.292910   -1.719998    0.394031
     17          6           0       -2.648203   -2.938342   -0.267624
     18          1           0       -3.454186   -0.547069   -1.407379
     19          1           0       -1.976803   -0.261479   -0.492555
     20          1           0       -4.373347   -1.883517    0.496665
     21          1           0       -2.896296   -1.597983    1.410114
     22          1           0       -1.565635   -2.801011   -0.355881
     23          1           0       -3.051079   -3.088167   -1.274522
     24          1           0       -2.828518   -3.850834    0.309181
     25          6           0       -3.696452    0.798601    0.259276
     26          6           0       -3.461548    2.090388   -0.524363
     27          6           0       -4.106255    3.308732    0.137292
     28          1           0       -4.777654    0.631871    0.362224
     29          1           0       -3.300271    0.917460    1.277047
     30          1           0       -3.858161    1.968374   -1.540446
     31          1           0       -2.381111    2.253907   -0.626996
     32          1           0       -3.703378    3.458558    1.144190
     33          1           0       -5.188822    3.171402    0.225550
     34          1           0       -3.925940    4.221225   -0.439513
 ---------------------------------------------------------------------

 SCF Done:  E(RHF) =  -669.536962756     A.U. after   15 cycles
 E2 =    -0.2091888776D+01 EUMP2 =    -0.67162885153149D+03

 The electronic state is 1-A.
 Alpha  occ. eigenvalues --  -20.61155 -20.61130 -15.86138 -11.31401 -11.27950
 Alpha  occ. eigenvalues --  -11.27945 -11.27675 -11.26939 -11.26929 -11.21095
 Alpha  occ. eigenvalues --  -11.20706 -11.20629 -11.20326 -11.20216 -11.19183
 Alpha  occ. eigenvalues --   -1.60181  -1.39737  -1.19557  -1.08975  -1.07515
 Alpha  occ. eigenvalues --   -1.04941  -1.02517  -0.95825  -0.94955  -0.86345
 Alpha  occ. eigenvalues --   -0.85975  -0.82658  -0.78661  -0.77723  -0.77247
 Alpha  occ. eigenvalues --   -0.72339  -0.71487  -0.70664  -0.65211  -0.64944
 Alpha  occ. eigenvalues --   -0.64150  -0.62287  -0.59905  -0.58440  -0.56556
 Alpha  occ. eigenvalues --   -0.55452  -0.54232  -0.53277  -0.53031  -0.51669
 Alpha  occ. eigenvalues --   -0.51387  -0.49318  -0.49106  -0.48701  -0.46915
 Alpha  occ. eigenvalues --   -0.45696  -0.45180  -0.44781  -0.44592  -0.42795
 Alpha  occ. eigenvalues --   -0.37532  -0.36538
 Alpha virt. eigenvalues --    0.04784   0.11118   0.16293   0.21257   0.23653
 Alpha virt. eigenvalues --    0.25399   0.27188   0.27436   0.28148   0.28314
 Alpha virt. eigenvalues --    0.29164   0.30836   0.32343   0.32451   0.32560

 Mulliken charges:
               1
     1  C   -0.170279
     2  C   -0.218584
     3  C   -0.170511
     4  C    0.158720
     5  C   -0.170735
     6  C   -0.218619
     7  H    0.226460
     8  H    0.224318
     9  H    0.276347
    10  H    0.275994
    11  H    0.224232
    12  N    0.488228
    13  O   -0.458951
    14  O   -0.458462
    15  C   -0.296516
    16  C   -0.297873
    17  C   -0.487738
    18  H    0.146430
    19  H    0.150488
    20  H    0.144261
    21  H    0.154848
    22  H    0.187202
    23  H    0.145700
    24  H    0.153997
    25  C   -0.297856
    26  C   -0.298288
    27  C   -0.474952
    28  H    0.147691
    29  H    0.148809
    30  H    0.151000
    31  H    0.148723
    32  H    0.153691
    33  H    0.155006
    34  H    0.157219
 Sum of Mulliken charges =  -0.00000

 Dipole moment (field-independent basis, Debye):
    X=              4.0091    Y=              3.6936    Z=             -0.3580  Tot=              5.4630
 Quadrupole moment (field-independent basis, Debye-Ang):
   XX=            -78.0726   YY=            -99.1257   ZZ=            -89.8094
   XY=              8.8146   XZ=             -0.5874   YZ=              1.0040

 Normal termination of Gaussian 16 at Thu May  6 20:39:49 2021.
