 Gaussian 16, Revision A.03,
 Gaussian 16:  EM64L-G16RevA.03 25-Dec-2016

 -------------
 #p 6-31g* mp2
 -------------

 ------------------------------------------------------
 Input file generated by CHIRIPA (05-May-2021 14:53:17)
 ------------------------------------------------------
 Symbolic Z-matrix:
 Charge =  0 Multiplicity = 1

                         Standard orientation:
 ---------------------------------------------------------------------
 Center     Atomic      Atomic             Coordinates (Angstroms)
 Number     Number       Type             X           Y           Z
 ---------------------------------------------------------------------
      1          6           0       -3.973610   -0.550423   -0.353142
      2          6           0       -2.805118   -0.317702    0.605217
      3          6           0       -1.493100   -0.912910    0.093232
      4          1           0       -4.097500   -1.629984   -0.514834
      5          1           0       -3.728940   -0.113898   -1.331394
      6          1           0       -3.052490   -0.753324    1.581771
      7          1           0       -2.684118    0.761422    0.764798
      8          1           0       -1.219570   -0.470795   -0.870260
      9          1           0       -1.590036   -1.994148   -0.048646
     10          1           0       -0.671187   -0.734994    0.793706
     11          6           0       -5.292144    0.038820    0.144846
     12          6           0       -6.460636   -0.193901   -0.813513
     13          6           0       -7.772654    0.401307   -0.301527
     14          1           0       -5.536814   -0.397705    1.123098
     15          1           0       -5.168254    1.118381    0.306539
     16          1           0       -6.581636   -1.273025   -0.973094
     17          1           0       -6.213264    0.241721   -1.790067
     18          1           0       -7.675718    1.482545   -0.159650
     19          1           0       -8.046184   -0.040808    0.661964
     20          1           0       -8.594567    0.223391   -1.002002
     21          6           0        1.523740    1.217397    1.050164
     22          6           0        1.946686   -0.047766    1.470874
     23          6           0        3.106310   -0.621316    0.940910
     24          6           0        3.822039    0.101471   -0.012294
     25          6           0        3.426412    1.363873   -0.451741
     26          6           0        2.263648    1.917944    0.091889
     27          1           0        0.621697    1.655380    1.467160
     28          1           0        1.374049   -0.594115    2.214940
     29          1           0        3.456475   -1.599099    1.248714
     30          1           0        4.018159    1.884316   -1.194972
     31          1           0        1.937565    2.900661   -0.236716
     32          7           0        5.051343   -0.495410   -0.580577
     33          8           0        5.664245    0.161786   -1.419076
     34          8           0        5.378692   -1.609138   -0.176736
 ---------------------------------------------------------------------

 SCF Done:  E(RHF) =  -669.534261106     A.U. after   15 cycles
 E2 =    -0.2092297633D+01 EUMP2 =    -0.67162655873919D+03

 The electronic state is 1-A.
 Alpha  occ. eigenvalues --  -20.60759 -20.60753 -15.85814 -11.31186 -11.27767
 Alpha  occ. eigenvalues --  -11.27758 -11.27508 -11.26776 -11.26766 -11.22334
 Alpha  occ. eigenvalues --  -11.22003 -11.21947 -11.21854 -11.21688 -11.21424
 Alpha  occ. eigenvalues --   -1.59834  -1.39388  -1.19371  -1.08976  -1.08766
 Alpha  occ. eigenvalues --   -1.04782  -1.04074  -0.96517  -0.95592  -0.87536
 Alpha  occ. eigenvalues --   -0.86179  -0.82427  -0.80146  -0.78774  -0.77474
 Alpha  occ. eigenvalues --   -0.72034  -0.71157  -0.70485  -0.65602  -0.65034
 Alpha  occ. eigenvalues --   -0.64824  -0.62154  -0.61469  -0.59907  -0.58136
 Alpha  occ. eigenvalues --   -0.55792  -0.55268  -0.53579  -0.52984  -0.52907
 Alpha  occ. eigenvalues --   -0.52644  -0.50433  -0.48794  -0.48786  -0.48454
 Alpha  occ. eigenvalues --   -0.47182  -0.46315  -0.46233  -0.44792  -0.44341
 Alpha  occ. eigenvalues --   -0.37279  -0.36348
 Alpha virt. eigenvalues --    0.05058   0.11147   0.16509   0.20388   0.22553
 Alpha virt. eigenvalues --    0.24030   0.25974   0.26502   0.26792   0.27620
 Alpha virt. eigenvalues --    0.28914   0.30002   0.30960   0.31618   0.31755

 Mulliken charges:
               1
     1  C   -0.298531
     2  C   -0.300290
     3  C   -0.478103
     4  H    0.151918
     5  H    0.150672
     6  H    0.151454
     7  H    0.145780
     8  H    0.158452
     9  H    0.157869
    10  H    0.155653
    11  C   -0.298399
    12  C   -0.300051
    13  C   -0.475926
    14  H    0.149810
    15  H    0.148605
    16  H    0.153048
    17  H    0.152534
    18  H    0.155003
    19  H    0.155511
    20  H    0.161619
    21  C   -0.166526
    22  C   -0.218441
    23  C   -0.171995
    24  C    0.158238
    25  C   -0.170661
    26  C   -0.219640
    27  H    0.226789
    28  H    0.223549
    29  H    0.275812
    30  H    0.275648
    31  H    0.223341
    32  N    0.488119
    33  O   -0.460508
    34  O   -0.460351
 Sum of Mulliken charges =  -0.00000

 Dipole moment (field-independent basis, Debye):
    X=             -4.3921    Y=              2.0800    Z=              1.9465  Tot=              5.2351
 Quadrupole moment (field-independent basis, Debye-Ang):
   XX=           -129.1910   YY=            -90.5937   ZZ=            -93.6124
   XY=              8.9363   XZ=              7.6067   YZ=             -3.0166

 Normal termination of Gaussian 16 at Thu May  6 13:57:27 2021.
