 Gaussian 16, Revision A.03,
 Gaussian 16:  EM64L-G16RevA.03 25-Dec-2016

 -------------
 #p 6-31g* mp2
 -------------

 ------------------------------------------------------
 Input file generated by CHIRIPA (05-May-2021 14:55:23)
 ------------------------------------------------------
 Symbolic Z-matrix:
 Charge =  0 Multiplicity = 1

                         Standard orientation:
 ---------------------------------------------------------------------
 Center     Atomic      Atomic             Coordinates (Angstroms)
 Number     Number       Type             X           Y           Z
 ---------------------------------------------------------------------
      1          6           0       -3.216174    1.949082   -0.102092
      2          6           0       -2.341713    1.683438    0.956809
      3          6           0       -1.736887    0.429076    1.080543
      4          6           0       -2.030337   -0.540766    0.123159
      5          6           0       -2.897205   -0.306626   -0.943147
      6          6           0       -3.490646    0.954954   -1.047024
      7          1           0       -3.681595    2.926304   -0.190500
      8          1           0       -2.126706    2.453583    1.692128
      9          1           0       -1.056044    0.196487    1.890341
     10          1           0       -3.092056   -1.094452   -1.660630
     11          1           0       -4.169359    1.158433   -1.870426
     12          7           0       -1.396061   -1.872523    0.243640
     13          8           0       -1.671036   -2.709980   -0.612919
     14          8           0       -0.635952   -2.053682    1.192351
     15          6           0        2.668808   -0.270596    0.206103
     16          6           0        3.167690   -1.426904   -0.661109
     17          6           0        3.033466   -2.784437    0.029457
     18          1           0        3.230025   -0.260259    1.150494
     19          1           0        1.616675   -0.446515    0.469661
     20          1           0        4.218167   -1.248168   -0.924100
     21          1           0        2.605353   -1.434372   -1.603625
     22          1           0        1.986847   -2.988746    0.277344
     23          1           0        3.608826   -2.801484    0.960730
     24          1           0        3.395906   -3.596797   -0.608171
     25          6           0        2.796466    1.093062   -0.470556
     26          6           0        2.297585    2.249370    0.396655
     27          6           0        2.431809    3.606904   -0.293910
     28          1           0        3.848600    1.268980   -0.734114
     29          1           0        2.235250    1.082725   -1.414948
     30          1           0        2.859922    2.256838    1.339171
     31          1           0        1.247107    2.070633    0.659646
     32          1           0        1.856448    3.623950   -1.225184
     33          1           0        3.478427    3.811213   -0.541798
     34          1           0        2.069368    4.419263    0.343717
 ---------------------------------------------------------------------

 SCF Done:  E(RHF) =  -669.536841797     A.U. after   15 cycles
 E2 =    -0.2093535604D+01 EUMP2 =    -0.67163037740116D+03

 The electronic state is 1-A.
 Alpha  occ. eigenvalues --  -20.61157 -20.61135 -15.86131 -11.31405 -11.27960
 Alpha  occ. eigenvalues --  -11.27956 -11.27677 -11.26954 -11.26944 -11.21563
 Alpha  occ. eigenvalues --  -11.21151 -11.21047 -11.20745 -11.20644 -11.19719
 Alpha  occ. eigenvalues --   -1.60183  -1.39742  -1.19568  -1.08979  -1.07955
 Alpha  occ. eigenvalues --   -1.04952  -1.02992  -0.95830  -0.95417  -0.86435
 Alpha  occ. eigenvalues --   -0.86351  -0.82666  -0.79138  -0.77813  -0.77598
 Alpha  occ. eigenvalues --   -0.72357  -0.71492  -0.70666  -0.65224  -0.64949
 Alpha  occ. eigenvalues --   -0.64592  -0.62294  -0.60388  -0.58892  -0.57013
 Alpha  occ. eigenvalues --   -0.55455  -0.54696  -0.53281  -0.53035  -0.52142
 Alpha  occ. eigenvalues --   -0.51836  -0.49497  -0.49124  -0.48971  -0.47410
 Alpha  occ. eigenvalues --   -0.46190  -0.45700  -0.45212  -0.44497  -0.43246
 Alpha  occ. eigenvalues --   -0.37534  -0.36527
 Alpha virt. eigenvalues --    0.04721   0.11041   0.16149   0.20970   0.23187
 Alpha virt. eigenvalues --    0.24912   0.25905   0.27350   0.27697   0.28588
 Alpha virt. eigenvalues --    0.29068   0.30732   0.31939   0.32017   0.32516

 Mulliken charges:
               1
     1  C   -0.170287
     2  C   -0.218859
     3  C   -0.171040
     4  C    0.157881
     5  C   -0.170621
     6  C   -0.218482
     7  H    0.226754
     8  H    0.225269
     9  H    0.277688
    10  H    0.276140
    11  H    0.224363
    12  N    0.487852
    13  O   -0.457096
    14  O   -0.457453
    15  C   -0.304777
    16  C   -0.298423
    17  C   -0.485018
    18  H    0.147635
    19  H    0.157261
    20  H    0.146946
    21  H    0.149429
    22  H    0.182028
    23  H    0.149854
    24  H    0.155355
    25  C   -0.297242
    26  C   -0.299914
    27  C   -0.474877
    28  H    0.148768
    29  H    0.147638
    30  H    0.151646
    31  H    0.144943
    32  H    0.154147
    33  H    0.156746
    34  H    0.155748
 Sum of Mulliken charges =  -0.00000

 Dipole moment (field-independent basis, Debye):
    X=             -2.5523    Y=              4.5227    Z=             -0.3879  Tot=              5.2076
 Quadrupole moment (field-independent basis, Debye-Ang):
   XX=            -84.7256   YY=           -101.1298   ZZ=            -91.7147
   XY=             -7.6562   XZ=              3.4409   YZ=              2.5708

 Normal termination of Gaussian 16 at Thu May  6 11:01:10 2021.
