 Gaussian 16, Revision A.03,
 Gaussian 16:  EM64L-G16RevA.03 25-Dec-2016

 -------------
 #p 6-31g* mp2
 -------------

 ------------------------------------------------------
 Input file generated by CHIRIPA (05-May-2021 14:53:13)
 ------------------------------------------------------
 Symbolic Z-matrix:
 Charge =  0 Multiplicity = 1

                         Standard orientation:
 ---------------------------------------------------------------------
 Center     Atomic      Atomic             Coordinates (Angstroms)
 Number     Number       Type             X           Y           Z
 ---------------------------------------------------------------------
      1          6           0        3.462843    1.026249    0.304210
      2          6           0        2.153260    1.807512    0.191936
      3          6           0        2.208282    3.159129    0.904605
      4          1           0        3.701287    0.873260    1.365664
      5          1           0        4.279153    1.630213   -0.115625
      6          1           0        1.339435    1.201687    0.610601
      7          1           0        1.917808    1.958492   -0.869376
      8          1           0        3.000615    3.785451    0.482076
      9          1           0        2.418956    3.024346    1.970462
     10          1           0        1.261797    3.700790    0.811705
     11          6           0        3.423438   -0.327139   -0.403262
     12          6           0        4.733021   -1.108402   -0.290988
     13          6           0        4.677999   -2.460020   -1.003657
     14          1           0        2.607128   -0.931104    0.016573
     15          1           0        3.184994   -0.174151   -1.464716
     16          1           0        4.968473   -1.259382    0.770324
     17          1           0        5.546846   -0.502577   -0.709653
     18          1           0        4.467325   -2.325237   -2.069514
     19          1           0        3.885666   -3.086342   -0.581128
     20          1           0        5.624484   -3.001680   -0.910757
     21          6           0       -2.237475   -2.582555    0.948392
     22          6           0       -1.368533   -1.528758    1.250006
     23          6           0       -1.609390   -0.245024    0.751444
     24          6           0       -2.733697   -0.049819   -0.049254
     25          6           0       -3.618053   -1.079334   -0.367536
     26          6           0       -3.357487   -2.354883    0.142005
     27          1           0       -2.042717   -3.576611    1.339950
     28          1           0       -0.497939   -1.702646    1.876004
     29          1           0       -0.953104    0.588800    0.969260
     30          1           0       -4.477707   -0.875166   -0.994216
     31          1           0       -4.034040   -3.171389   -0.093877
     32          7           0       -2.999115    1.304879   -0.582870
     33          8           0       -3.996551    1.450829   -1.286046
     34          8           0       -2.204686    2.195091   -0.287839
 ---------------------------------------------------------------------

 SCF Done:  E(RHF) =  -669.535527170     A.U. after   15 cycles
 E2 =    -0.2091517611D+01 EUMP2 =    -0.67162704478112D+03

 The electronic state is 1-A.
 Alpha  occ. eigenvalues --  -20.60772 -20.60767 -15.85824 -11.31182 -11.27762
 Alpha  occ. eigenvalues --  -11.27740 -11.27510 -11.26782 -11.26771 -11.21854
 Alpha  occ. eigenvalues --  -11.21701 -11.21643 -11.21524 -11.21346 -11.20900
 Alpha  occ. eigenvalues --   -1.59845  -1.39398  -1.19362  -1.08759  -1.08616
 Alpha  occ. eigenvalues --   -1.04769  -1.03660  -0.96093  -0.95593  -0.87110
 Alpha  occ. eigenvalues --   -0.86166  -0.82427  -0.79736  -0.78440  -0.77465
 Alpha  occ. eigenvalues --   -0.72045  -0.71166  -0.70481  -0.65277  -0.65015
 Alpha  occ. eigenvalues --   -0.64774  -0.62151  -0.61050  -0.59452  -0.57687
 Alpha  occ. eigenvalues --   -0.55407  -0.55265  -0.53094  -0.52881  -0.52747
 Alpha  occ. eigenvalues --   -0.52506  -0.50052  -0.48803  -0.48797  -0.48030
 Alpha  occ. eigenvalues --   -0.46785  -0.45969  -0.45901  -0.44803  -0.43913
 Alpha  occ. eigenvalues --   -0.37344  -0.36362
 Alpha virt. eigenvalues --    0.05043   0.11262   0.16512   0.20096   0.22876
 Alpha virt. eigenvalues --    0.23851   0.25368   0.26877   0.27250   0.28197
 Alpha virt. eigenvalues --    0.29241   0.30550   0.31391   0.31597   0.32073

 Mulliken charges:
               1
     1  C   -0.298581
     2  C   -0.298888
     3  C   -0.479020
     4  H    0.147257
     5  H    0.151976
     6  H    0.139890
     7  H    0.159451
     8  H    0.155929
     9  H    0.151310
    10  H    0.172798
    11  C   -0.296903
    12  C   -0.299744
    13  C   -0.475255
    14  H    0.142403
    15  H    0.152659
    16  H    0.150696
    17  H    0.153873
    18  H    0.156723
    19  H    0.152055
    20  H    0.160868
    21  C   -0.170557
    22  C   -0.221033
    23  C   -0.176626
    24  C    0.158511
    25  C   -0.170400
    26  C   -0.218733
    27  H    0.225615
    28  H    0.222990
    29  H    0.285239
    30  H    0.275619
    31  H    0.223494
    32  N    0.487501
    33  O   -0.460399
    34  O   -0.460717
 Sum of Mulliken charges =  -0.00000

 Dipole moment (field-independent basis, Debye):
    X=              0.9533    Y=             -4.6501    Z=              1.7868  Tot=              5.0719
 Quadrupole moment (field-independent basis, Debye-Ang):
   XX=            -96.5758   YY=            -94.6507   ZZ=            -94.0841
   XY=             15.2745   XZ=             -3.5308   YZ=              0.0610

 Normal termination of Gaussian 16 at Wed May  5 17:01:52 2021.
