 Gaussian 16, Revision A.03,
 Gaussian 16:  EM64L-G16RevA.03 25-Dec-2016

 -------------
 #p 6-31g* mp2
 -------------

 ------------------------------------------------------
 Input file generated by CHIRIPA (05-May-2021 14:57:27)
 ------------------------------------------------------
 Symbolic Z-matrix:
 Charge =  0 Multiplicity = 1

                         Standard orientation:
 ---------------------------------------------------------------------
 Center     Atomic      Atomic             Coordinates (Angstroms)
 Number     Number       Type             X           Y           Z
 ---------------------------------------------------------------------
      1          6           0       -2.273219    1.831812    0.424875
      2          6           0       -3.509425    2.326960   -0.003078
      3          6           0       -4.584519    1.460222   -0.220992
      4          6           0       -4.387350    0.098003   -0.000148
      5          6           0       -3.167879   -0.425823    0.426218
      6          6           0       -2.106685    0.459421    0.637782
      7          1           0       -1.443459    2.512303    0.591690
      8          1           0       -3.641648    3.392303   -0.169230
      9          1           0       -5.552307    1.816639   -0.552311
     10          1           0       -3.066526   -1.492807    0.583350
     11          1           0       -1.147758    0.072062    0.970135
     12          7           0       -5.518146   -0.829369   -0.227483
     13          8           0       -5.318729   -2.025267   -0.025745
     14          8           0       -6.582469   -0.342786   -0.603101
     15          6           0        6.101480    1.397192   -0.232259
     16          6           0        4.788316    1.856902   -0.088069
     17          6           0        3.727491    0.952835    0.020836
     18          6           0        4.017247   -0.410171   -0.018473
     19          6           0        5.314848   -0.899215   -0.161160
     20          6           0        6.360098    0.023024   -0.268281
     21          1           0        6.919505    2.106551   -0.316166
     22          1           0        4.584502    2.923534   -0.059779
     23          1           0        2.701410    1.281352    0.133320
     24          1           0        5.486747   -1.968444   -0.186029
     25          1           0        7.378925   -0.336863   -0.380170
     26          7           0        2.902443   -1.376885    0.095875
     27          8           0        3.184121   -2.572666    0.058429
     28          8           0        1.768090   -0.920510    0.220783
 ---------------------------------------------------------------------

 SCF Done:  E(RHF) =  -868.339097997     A.U. after   16 cycles
 E2 =    -0.2598526940D+01 EUMP2 =    -0.87093762493619D+03

 The electronic state is 1-A.
 Alpha  occ. eigenvalues --  -20.61636 -20.61576 -20.60178 -20.60162 -15.86659
 Alpha  occ. eigenvalues --  -15.85219 -11.31874 -11.30504 -11.28474 -11.28385
 Alpha  occ. eigenvalues --  -11.28116 -11.27422 -11.27367 -11.27095 -11.26945
 Alpha  occ. eigenvalues --  -11.26811 -11.26154 -11.25872  -1.60667  -1.59249
 Alpha  occ. eigenvalues --   -1.40231  -1.38804  -1.20026  -1.18655  -1.09442
 Alpha  occ. eigenvalues --   -1.08082  -1.05412  -1.04019  -0.96307  -0.94933
 Alpha  occ. eigenvalues --   -0.86815  -0.85430  -0.83153  -0.81745  -0.78222
 Alpha  occ. eigenvalues --   -0.76791  -0.72892  -0.71975  -0.71441  -0.71133
 Alpha  occ. eigenvalues --   -0.70570  -0.69807  -0.65686  -0.65412  -0.64304
 Alpha  occ. eigenvalues --   -0.63989  -0.62770  -0.61341  -0.55904  -0.54589
 Alpha  occ. eigenvalues --   -0.53740  -0.53505  -0.52388  -0.52081  -0.49653
 Alpha  occ. eigenvalues --   -0.49601  -0.48200  -0.48189  -0.45667  -0.44227
 Alpha  occ. eigenvalues --   -0.37985  -0.37007  -0.36671  -0.35613
 Alpha virt. eigenvalues --    0.04318   0.05699   0.10652   0.12025   0.15844
 Alpha virt. eigenvalues --    0.17214   0.20619   0.22110   0.26541   0.27207
 Alpha virt. eigenvalues --    0.28461   0.28874   0.30536   0.31599   0.31940

 Mulliken charges:
               1
     1  C   -0.172567
     2  C   -0.218418
     3  C   -0.172922
     4  C    0.158444
     5  C   -0.172412
     6  C   -0.223282
     7  H    0.218918
     8  H    0.219230
     9  H    0.272945
    10  H    0.278900
    11  H    0.244423
    12  N    0.487973
    13  O   -0.459612
    14  O   -0.463170
    15  C   -0.170092
    16  C   -0.217948
    17  C   -0.169507
    18  C    0.158666
    19  C   -0.170146
    20  C   -0.218220
    21  H    0.227743
    22  H    0.223536
    23  H    0.268920
    24  H    0.277498
    25  H    0.225924
    26  N    0.493461
    27  O   -0.454574
    28  O   -0.473712
 Sum of Mulliken charges =  -0.00000

 Dipole moment (field-independent basis, Debye):
    X=              8.3875    Y=              6.4815    Z=              0.4145  Tot=             10.6081
 Quadrupole moment (field-independent basis, Debye-Ang):
   XX=           -104.7872   YY=           -101.7064   ZZ=           -106.1553
   XY=             -6.8262   XZ=             -4.8489   YZ=             -0.7151

 Normal termination of Gaussian 16 at Thu May  6 11:30:11 2021.
