 Gaussian 16, Revision A.03,
 Gaussian 16:  EM64L-G16RevA.03 25-Dec-2016

 -------------
 #p 6-31g* mp2
 -------------

 ------------------------------------------------------
 Input file generated by CHIRIPA (05-May-2021 14:55:23)
 ------------------------------------------------------
 Symbolic Z-matrix:
 Charge =  0 Multiplicity = 1

                         Standard orientation:
 ---------------------------------------------------------------------
 Center     Atomic      Atomic             Coordinates (Angstroms)
 Number     Number       Type             X           Y           Z
 ---------------------------------------------------------------------
      1          6           0        2.028429    2.510507   -0.201030
      2          6           0        2.343624    1.886586   -1.412597
      3          6           0        2.852335    0.584481   -1.429416
      4          6           0        3.034108   -0.067245   -0.210604
      5          6           0        2.729578    0.527517    1.012838
      6          6           0        2.222070    1.830181    1.005693
      7          1           0        1.633717    3.522231   -0.197272
      8          1           0        2.194271    2.412522   -2.351282
      9          1           0        3.104737    0.077756   -2.352964
     10          1           0        2.889334   -0.022198    1.932462
     11          1           0        1.978165    2.312242    1.948123
     12          7           0        3.572020   -1.446021   -0.215725
     13          8           0        3.722982   -1.998717    0.871645
     14          8           0        3.832490   -1.947902   -1.307012
     15          6           0       -4.510639   -0.017371    0.273463
     16          6           0       -5.274661   -0.532273   -0.946836
     17          6           0       -6.754712   -0.149321   -0.922491
     18          1           0       -4.978448   -0.413685    1.185074
     19          1           0       -4.606636    1.076126    0.322903
     20          1           0       -5.176099   -1.624338   -0.994739
     21          1           0       -4.804864   -0.134840   -1.855657
     22          1           0       -6.870681    0.939066   -0.898683
     23          1           0       -7.244025   -0.558895   -0.032873
     24          1           0       -7.281791   -0.527459   -1.804001
     25          6           0       -3.029721   -0.392214    0.263522
     26          6           0       -2.265698    0.122689    1.483822
     27          6           0       -0.785649   -0.260264    1.459477
     28          1           0       -2.933724   -1.485711    0.214082
     29          1           0       -2.561912    0.004101   -0.648089
     30          1           0       -2.735496   -0.274744    2.392642
     31          1           0       -2.364261    1.214754    1.531723
     32          1           0       -0.296334    0.149310    0.569858
     33          1           0       -0.669679   -1.348651    1.435668
     34          1           0       -0.258569    0.117875    2.340986
 ---------------------------------------------------------------------

 SCF Done:  E(RHF) =  -669.534552608     A.U. after   15 cycles
 E2 =    -0.2092618182D+01 EUMP2 =    -0.67162717078930D+03

 The electronic state is 1-A.
 Alpha  occ. eigenvalues --  -20.60750 -20.60745 -15.85804 -11.31177 -11.27759
 Alpha  occ. eigenvalues --  -11.27719 -11.27500 -11.26794 -11.26737 -11.21795
 Alpha  occ. eigenvalues --  -11.21739 -11.21569 -11.21509 -11.21204 -11.21167
 Alpha  occ. eigenvalues --   -1.59825  -1.39378  -1.19365  -1.08756  -1.08592
 Alpha  occ. eigenvalues --   -1.04772  -1.03684  -0.96135  -0.95584  -0.87154
 Alpha  occ. eigenvalues --   -0.86160  -0.82417  -0.79757  -0.78406  -0.77460
 Alpha  occ. eigenvalues --   -0.72023  -0.71147  -0.70468  -0.65227  -0.65012
 Alpha  occ. eigenvalues --   -0.64769  -0.62118  -0.61095  -0.59517  -0.57750
 Alpha  occ. eigenvalues --   -0.55494  -0.55268  -0.53381  -0.52858  -0.52721
 Alpha  occ. eigenvalues --   -0.52393  -0.49997  -0.48783  -0.48776  -0.48056
 Alpha  occ. eigenvalues --   -0.46767  -0.45940  -0.45871  -0.44781  -0.43962
 Alpha  occ. eigenvalues --   -0.37354  -0.36275
 Alpha virt. eigenvalues --    0.05072   0.11243   0.16512   0.21120   0.22732
 Alpha virt. eigenvalues --    0.24128   0.26463   0.26586   0.27334   0.28086
 Alpha virt. eigenvalues --    0.28396   0.30683   0.31238   0.31742   0.32268

 Mulliken charges:
               1
     1  C   -0.172583
     2  C   -0.218961
     3  C   -0.172022
     4  C    0.158713
     5  C   -0.167148
     6  C   -0.215153
     7  H    0.225453
     8  H    0.223398
     9  H    0.275634
    10  H    0.275624
    11  H    0.223153
    12  N    0.488205
    13  O   -0.460265
    14  O   -0.460650
    15  C   -0.298160
    16  C   -0.299705
    17  C   -0.475728
    18  H    0.150353
    19  H    0.147684
    20  H    0.153455
    21  H    0.151159
    22  H    0.154294
    23  H    0.155688
    24  H    0.160797
    25  C   -0.298490
    26  C   -0.299888
    27  C   -0.477145
    28  H    0.152326
    29  H    0.148490
    30  H    0.152478
    31  H    0.147188
    32  H    0.161341
    33  H    0.159757
    34  H    0.150710
 Sum of Mulliken charges =  -0.00000

 Dipole moment (field-independent basis, Debye):
    X=             -1.8733    Y=              4.8144    Z=             -0.0004  Tot=              5.1660
 Quadrupole moment (field-independent basis, Debye-Ang):
   XX=           -108.3117   YY=            -95.3493   ZZ=            -89.6817
   XY=             15.5354   XZ=              0.0374   YZ=             -1.6299

 Normal termination of Gaussian 16 at Wed May  5 19:04:09 2021.
