 Gaussian 16, Revision A.03,
 Gaussian 16:  EM64L-G16RevA.03 25-Dec-2016

 -------------
 #p 6-31g* mp2
 -------------

 ------------------------------------------------------
 Input file generated by CHIRIPA (05-May-2021 14:53:15)
 ------------------------------------------------------
 Symbolic Z-matrix:
 Charge =  0 Multiplicity = 1

                         Standard orientation:
 ---------------------------------------------------------------------
 Center     Atomic      Atomic             Coordinates (Angstroms)
 Number     Number       Type             X           Y           Z
 ---------------------------------------------------------------------
      1          6           0        5.493256   -0.475709   -0.054811
      2          6           0        6.925118   -0.137792   -0.471427
      3          6           0        7.887347   -1.311464   -0.285940
      4          1           0        5.489267   -0.792242    0.997204
      5          1           0        5.141427   -1.335719   -0.641321
      6          1           0        7.273651    0.722194    0.114716
      7          1           0        6.925672    0.178157   -1.522517
      8          1           0        7.566478   -2.170833   -0.883543
      9          1           0        7.916434   -1.623705    0.762994
     10          1           0        8.905231   -1.047987   -0.589833
     11          6           0        4.519526    0.687614   -0.234415
     12          6           0        3.087664    0.349698    0.182201
     13          6           0        2.125436    1.523370   -0.003287
     14          1           0        4.871355    1.547625    0.352094
     15          1           0        4.523516    1.004148   -1.286430
     16          1           0        3.087110    0.033749    1.233291
     17          1           0        2.739131   -0.510289   -0.403942
     18          1           0        2.096348    1.835610   -1.052220
     19          1           0        2.446305    2.382739    0.594316
     20          1           0        1.107551    1.259893    0.300606
     21          6           0       -1.732284    0.545253    1.219163
     22          6           0       -2.240727   -0.750236    1.359577
     23          6           0       -3.447103   -1.109328    0.751089
     24          6           0       -4.121897   -0.143491    0.006037
     25          6           0       -3.641178    1.155392   -0.152401
     26          6           0       -2.432898    1.492263    0.464952
     27          1           0       -0.794403    0.815573    1.695294
     28          1           0       -1.698770   -1.487759    1.944716
     29          1           0       -3.863536   -2.105056    0.843434
     30          1           0       -4.204080    1.868852   -0.741921
     31          1           0       -2.040426    2.499111    0.354189
     32          7           0       -5.400042   -0.511883   -0.642833
     33          8           0       -5.975410    0.357375   -1.293971
     34          8           0       -5.802281   -1.662911   -0.487995
 ---------------------------------------------------------------------

 SCF Done:  E(RHF) =  -669.535427267     A.U. after   15 cycles
 E2 =    -0.2091063733D+01 EUMP2 =    -0.67162649099977D+03

 The electronic state is 1-A.
 Alpha  occ. eigenvalues --  -20.60765 -20.60759 -15.85818 -11.31194 -11.27755
 Alpha  occ. eigenvalues --  -11.27750 -11.27482 -11.26777 -11.26767 -11.22411
 Alpha  occ. eigenvalues --  -11.22047 -11.22029 -11.22011 -11.21883 -11.21430
 Alpha  occ. eigenvalues --   -1.59840  -1.39393  -1.19363  -1.09033  -1.08759
 Alpha  occ. eigenvalues --   -1.04764  -1.04161  -0.96622  -0.95592  -0.87641
 Alpha  occ. eigenvalues --   -0.86160  -0.82423  -0.80231  -0.78817  -0.77466
 Alpha  occ. eigenvalues --   -0.72036  -0.71163  -0.70500  -0.65656  -0.65015
 Alpha  occ. eigenvalues --   -0.64768  -0.62109  -0.61548  -0.60048  -0.58240
 Alpha  occ. eigenvalues --   -0.55890  -0.55301  -0.53364  -0.53113  -0.52929
 Alpha  occ. eigenvalues --   -0.52852  -0.50544  -0.48796  -0.48790  -0.48541
 Alpha  occ. eigenvalues --   -0.47250  -0.46367  -0.46268  -0.44796  -0.44413
 Alpha  occ. eigenvalues --   -0.37327  -0.36365
 Alpha virt. eigenvalues --    0.05025   0.11265   0.16411   0.20457   0.22452
 Alpha virt. eigenvalues --    0.23856   0.26079   0.26462   0.26892   0.27397
 Alpha virt. eigenvalues --    0.28698   0.30591   0.30812   0.31460   0.32197

 Mulliken charges:
               1
     1  C   -0.298742
     2  C   -0.300105
     3  C   -0.476023
     4  H    0.149417
     5  H    0.150561
     6  H    0.152282
     7  H    0.152936
     8  H    0.155879
     9  H    0.155275
    10  H    0.161567
    11  C   -0.298773
    12  C   -0.299603
    13  C   -0.480780
    14  H    0.150147
    15  H    0.151682
    16  H    0.149310
    17  H    0.154614
    18  H    0.160263
    19  H    0.155648
    20  H    0.152591
    21  C   -0.171530
    22  C   -0.219399
    23  C   -0.171104
    24  C    0.158803
    25  C   -0.171087
    26  C   -0.218885
    27  H    0.228117
    28  H    0.223747
    29  H    0.275616
    30  H    0.275704
    31  H    0.224548
    32  N    0.488050
    33  O   -0.460344
    34  O   -0.460384
 Sum of Mulliken charges =  -0.00000

 Dipole moment (field-independent basis, Debye):
    X=              4.6415    Y=              1.2847    Z=              2.2362  Tot=              5.3098
 Quadrupole moment (field-independent basis, Debye-Ang):
   XX=           -132.5130   YY=            -91.3938   ZZ=            -93.8510
   XY=             -5.8229   XZ=             -9.2984   YZ=             -2.0147

 Normal termination of Gaussian 16 at Thu May  6 09:01:29 2021.
