 Gaussian 16, Revision A.03,
 Gaussian 16:  EM64L-G16RevA.03 25-Dec-2016

 -------------
 #p 6-31g* mp2
 -------------

 ------------------------------------------------------
 Input file generated by CHIRIPA (05-May-2021 14:55:19)
 ------------------------------------------------------
 Symbolic Z-matrix:
 Charge =  0 Multiplicity = 1

                         Standard orientation:
 ---------------------------------------------------------------------
 Center     Atomic      Atomic             Coordinates (Angstroms)
 Number     Number       Type             X           Y           Z
 ---------------------------------------------------------------------
      1          6           0       -1.767505    2.155040    0.983950
      2          6           0       -1.757007    0.875958    1.549952
      3          6           0       -2.512549   -0.156288    0.985883
      4          6           0       -3.270580    0.126986   -0.149209
      5          6           0       -3.301790    1.390938   -0.736355
      6          6           0       -2.538504    2.408003   -0.155388
      7          1           0       -1.177574    2.951017    1.428696
      8          1           0       -1.159177    0.676614    2.434772
      9          1           0       -2.522732   -1.155714    1.403570
     10          1           0       -3.907614    1.559207   -1.618445
     11          1           0       -2.548576    3.400390   -0.597101
     12          7           0       -4.074538   -0.957770   -0.755308
     13          8           0       -4.734026   -0.682500   -1.755277
     14          8           0       -4.029970   -2.062732   -0.218922
     15          6           0        4.541958   -0.408172   -0.491218
     16          6           0        5.697300    0.566741   -0.261614
     17          6           0        6.739906    0.521512   -1.379076
     18          1           0        4.942627   -1.427272   -0.579786
     19          1           0        4.061431   -0.176649   -1.451888
     20          1           0        6.174633    0.334327    0.698986
     21          1           0        5.293816    1.583614   -0.173390
     22          1           0        6.284063    0.774685   -2.341734
     23          1           0        7.169885   -0.481702   -1.464402
     24          1           0        7.556797    1.226190   -1.194738
     25          6           0        3.491523   -0.374593    0.617468
     26          6           0        2.336181   -1.349504    0.387864
     27          6           0        1.293575   -1.304277    1.505326
     28          1           0        3.972049   -0.606114    1.578138
     29          1           0        3.090854    0.644508    0.706037
     30          1           0        2.739665   -2.366379    0.299640
     31          1           0        1.858848   -1.117090   -0.572737
     32          1           0        0.863596   -0.301062    1.590651
     33          1           0        1.749418   -1.557449    2.467985
     34          1           0        0.476684   -2.008953    1.320987
 ---------------------------------------------------------------------

 SCF Done:  E(RHF) =  -669.534755810     A.U. after   15 cycles
 E2 =    -0.2091973245D+01 EUMP2 =    -0.67162672905553D+03

 The electronic state is 1-A.
 Alpha  occ. eigenvalues --  -20.60772 -20.60767 -15.85825 -11.31194 -11.27755
 Alpha  occ. eigenvalues --  -11.27743 -11.27502 -11.26784 -11.26739 -11.21991
 Alpha  occ. eigenvalues --  -11.21909 -11.21796 -11.21683 -11.21621 -11.21319
 Alpha  occ. eigenvalues --   -1.59847  -1.39400  -1.19367  -1.08799  -1.08760
 Alpha  occ. eigenvalues --   -1.04773  -1.03900  -0.96377  -0.95595  -0.87410
 Alpha  occ. eigenvalues --   -0.86167  -0.82428  -0.79978  -0.78603  -0.77468
 Alpha  occ. eigenvalues --   -0.72043  -0.71169  -0.70473  -0.65438  -0.65017
 Alpha  occ. eigenvalues --   -0.64790  -0.62159  -0.61271  -0.59733  -0.57975
 Alpha  occ. eigenvalues --   -0.55716  -0.55260  -0.53231  -0.53022  -0.52953
 Alpha  occ. eigenvalues --   -0.52619  -0.50282  -0.48804  -0.48797  -0.48280
 Alpha  occ. eigenvalues --   -0.46986  -0.46149  -0.46061  -0.44804  -0.44162
 Alpha  occ. eigenvalues --   -0.37346  -0.36313
 Alpha virt. eigenvalues --    0.05052   0.11168   0.16498   0.20910   0.22587
 Alpha virt. eigenvalues --    0.24028   0.26010   0.26368   0.26948   0.27915
 Alpha virt. eigenvalues --    0.28763   0.29841   0.31284   0.31391   0.32000

 Mulliken charges:
               1
     1  C   -0.173198
     2  C   -0.216558
     3  C   -0.170157
     4  C    0.158187
     5  C   -0.171171
     6  C   -0.218297
     7  H    0.225476
     8  H    0.226178
     9  H    0.275940
    10  H    0.275535
    11  H    0.223346
    12  N    0.488103
    13  O   -0.460416
    14  O   -0.460396
    15  C   -0.298703
    16  C   -0.299637
    17  C   -0.475895
    18  H    0.151339
    19  H    0.150562
    20  H    0.152058
    21  H    0.150435
    22  H    0.155658
    23  H    0.156229
    24  H    0.160562
    25  C   -0.298202
    26  C   -0.299097
    27  C   -0.480722
    28  H    0.149494
    29  H    0.146194
    30  H    0.154922
    31  H    0.155214
    32  H    0.150629
    33  H    0.154524
    34  H    0.161866
 Sum of Mulliken charges =  -0.00000

 Dipole moment (field-independent basis, Debye):
    X=              2.8902    Y=              3.7878    Z=              2.0870  Tot=              5.2016
 Quadrupole moment (field-independent basis, Debye-Ang):
   XX=           -113.7583   YY=            -91.6053   ZZ=            -93.6773
   XY=            -13.9578   XZ=             -5.4267   YZ=             -3.1364

 Normal termination of Gaussian 16 at Thu May  6 07:39:49 2021.
