 Gaussian 16, Revision A.03,
 Gaussian 16:  EM64L-G16RevA.03 25-Dec-2016

 -------------
 #p 6-31g* mp2
 -------------

 ------------------------------------------------------
 Input file generated by CHIRIPA (05-May-2021 14:53:16)
 ------------------------------------------------------
 Symbolic Z-matrix:
 Charge =  0 Multiplicity = 1

                         Standard orientation:
 ---------------------------------------------------------------------
 Center     Atomic      Atomic             Coordinates (Angstroms)
 Number     Number       Type             X           Y           Z
 ---------------------------------------------------------------------
      1          6           0        4.150137    0.041323    0.289954
      2          6           0        5.391474   -0.232457   -0.559818
      3          6           0        6.438285    0.876729   -0.451703
      4          1           0        3.706180    0.997769   -0.018361
      5          1           0        4.452016    0.160812    1.339709
      6          1           0        5.087179   -0.352768   -1.607456
      7          1           0        5.832419   -1.188455   -0.249574
      8          1           0        6.770236    0.993432    0.585018
      9          1           0        6.020761    1.833868   -0.780579
     10          1           0        7.317198    0.660631   -1.067067
     11          6           0        3.094514   -1.058616    0.192367
     12          6           0        1.853177   -0.784836    1.042138
     13          6           0        0.806367   -1.894022    0.934023
     14          1           0        2.792636   -1.178105   -0.857389
     15          1           0        3.538472   -2.015062    0.500681
     16          1           0        1.412232    0.171162    0.731895
     17          1           0        2.157473   -0.664525    2.089776
     18          1           0        1.223891   -2.851161    1.262900
     19          1           0        0.474416   -2.010725   -0.102697
     20          1           0       -0.072547   -1.677924    1.549388
     21          6           0       -0.764042    1.845609   -0.163589
     22          6           0       -1.855076    2.168501    0.649988
     23          6           0       -3.004892    1.373239    0.644367
     24          6           0       -3.029666    0.257371   -0.190806
     25          6           0       -1.958883   -0.090496   -1.012817
     26          6           0       -0.819330    0.719126   -0.990936
     27          1           0        0.125177    2.468964   -0.152907
     28          1           0       -1.814943    3.042742    1.293521
     29          1           0       -3.863866    1.600128    1.264128
     30          1           0       -2.028430   -0.968292   -1.643733
     31          1           0        0.026480    0.465945   -1.623826
     32          7           0       -4.241492   -0.592138   -0.205363
     33          8           0       -4.238377   -1.569894   -0.950092
     34          8           0       -5.171489   -0.264141    0.528230
 ---------------------------------------------------------------------

 SCF Done:  E(RHF) =  -669.533846514     A.U. after   15 cycles
 E2 =    -0.2094327717D+01 EUMP2 =    -0.67162817423116D+03

 The electronic state is 1-A.
 Alpha  occ. eigenvalues --  -20.60789 -20.60783 -15.85843 -11.31231 -11.27798
 Alpha  occ. eigenvalues --  -11.27792 -11.27545 -11.26824 -11.26815 -11.22180
 Alpha  occ. eigenvalues --  -11.22088 -11.22063 -11.21989 -11.21596 -11.21426
 Alpha  occ. eigenvalues --   -1.59864  -1.39416  -1.19417  -1.09053  -1.08800
 Alpha  occ. eigenvalues --   -1.04837  -1.04045  -0.96502  -0.95641  -0.87515
 Alpha  occ. eigenvalues --   -0.86225  -0.82471  -0.80124  -0.78865  -0.77511
 Alpha  occ. eigenvalues --   -0.72062  -0.71188  -0.70534  -0.65759  -0.65069
 Alpha  occ. eigenvalues --   -0.64798  -0.62227  -0.61432  -0.59873  -0.58118
 Alpha  occ. eigenvalues --   -0.55878  -0.55328  -0.53279  -0.52935  -0.52908
 Alpha  occ. eigenvalues --   -0.52895  -0.50464  -0.48823  -0.48815  -0.48435
 Alpha  occ. eigenvalues --   -0.47198  -0.46399  -0.46356  -0.44817  -0.44329
 Alpha  occ. eigenvalues --   -0.37317  -0.36354
 Alpha virt. eigenvalues --    0.04987   0.11163   0.16356   0.19545   0.22874
 Alpha virt. eigenvalues --    0.23888   0.25583   0.25668   0.27196   0.28193
 Alpha virt. eigenvalues --    0.29356   0.30361   0.31197   0.31556   0.32123

 Mulliken charges:
               1
     1  C   -0.296672
     2  C   -0.299793
     3  C   -0.475810
     4  H    0.141767
     5  H    0.151907
     6  H    0.151102
     7  H    0.154505
     8  H    0.156329
     9  H    0.153538
    10  H    0.162235
    11  C   -0.298639
    12  C   -0.304435
    13  C   -0.471584
    14  H    0.143779
    15  H    0.153592
    16  H    0.148588
    17  H    0.153495
    18  H    0.156955
    19  H    0.148097
    20  H    0.164951
    21  C   -0.171441
    22  C   -0.219310
    23  C   -0.171443
    24  C    0.157636
    25  C   -0.169195
    26  C   -0.213648
    27  H    0.226011
    28  H    0.223839
    29  H    0.275813
    30  H    0.275650
    31  H    0.224558
    32  N    0.488081
    33  O   -0.460072
    34  O   -0.460383
 Sum of Mulliken charges =  -0.00000

 Dipole moment (field-independent basis, Debye):
    X=              4.2669    Y=              2.9580    Z=              0.1109  Tot=              5.1931
 Quadrupole moment (field-independent basis, Debye-Ang):
   XX=           -120.5540   YY=            -92.1142   ZZ=            -92.2821
   XY=            -10.4471   XZ=             -2.1761   YZ=              1.3620

 Normal termination of Gaussian 16 at Wed May  5 20:19:35 2021.
