 Gaussian 16, Revision A.03,
 Gaussian 16:  EM64L-G16RevA.03 25-Dec-2016

 -------------
 #p 6-31g* mp2
 -------------

 ------------------------------------------------------
 Input file generated by CHIRIPA (05-May-2021 14:53:16)
 ------------------------------------------------------
 Symbolic Z-matrix:
 Charge =  0 Multiplicity = 1

                         Standard orientation:
 ---------------------------------------------------------------------
 Center     Atomic      Atomic             Coordinates (Angstroms)
 Number     Number       Type             X           Y           Z
 ---------------------------------------------------------------------
      1          6           0        3.382389   -0.473911   -0.159189
      2          6           0        4.457260   -1.246398   -0.924630
      3          6           0        4.363817   -2.757588   -0.711633
      4          1           0        3.469756   -0.700728    0.912196
      5          1           0        2.391314   -0.828925   -0.474040
      6          1           0        5.445987   -0.889065   -0.609437
      7          1           0        4.367445   -1.017566   -1.994296
      8          1           0        3.390856   -3.134000   -1.043689
      9          1           0        4.475526   -3.004769    0.349038
     10          1           0        5.141468   -3.290262   -1.267849
     11          6           0        3.462751    1.038077   -0.362073
     12          6           0        2.387880    1.810565    0.403369
     13          6           0        2.481323    3.321755    0.190371
     14          1           0        4.453826    1.393091   -0.047221
     15          1           0        3.375384    1.264895   -1.433458
     16          1           0        2.477695    1.581733    1.473035
     17          1           0        1.399152    1.453232    0.088176
     18          1           0        2.369614    3.568936   -0.870300
     19          1           0        3.454284    3.698167    0.522428
     20          1           0        1.703672    3.854429    0.746587
     21          6           0       -0.915446   -0.764522    1.929228
     22          6           0       -1.009826    0.531038    1.410442
     23          6           0       -1.980250    0.843882    0.453910
     24          6           0       -2.843882   -0.167772    0.036792
     25          6           0       -2.775007   -1.467987    0.534773
     26          6           0       -1.796784   -1.758147    1.490511
     27          1           0       -0.158568   -0.998735    2.671977
     28          1           0       -0.326705    1.304706    1.749306
     29          1           0       -2.075514    1.838551    0.035608
     30          1           0       -3.470073   -2.218090    0.177498
     31          1           0       -1.725814   -2.765167    1.891660
     32          7           0       -3.875355    0.151415   -0.975426
     33          8           0       -4.624312   -0.757691   -1.326462
     34          8           0       -3.915335    1.304655   -1.398597
 ---------------------------------------------------------------------

 SCF Done:  E(RHF) =  -669.534999044     A.U. after   15 cycles
 E2 =    -0.2092328586D+01 EUMP2 =    -0.67162732762958D+03

 The electronic state is 1-A.
 Alpha  occ. eigenvalues --  -20.60768 -20.60763 -15.85821 -11.31189 -11.27748
 Alpha  occ. eigenvalues --  -11.27738 -11.27474 -11.26771 -11.26702 -11.22383
 Alpha  occ. eigenvalues --  -11.22068 -11.22002 -11.21934 -11.21783 -11.21516
 Alpha  occ. eigenvalues --   -1.59844  -1.39397  -1.19358  -1.09048  -1.08745
 Alpha  occ. eigenvalues --   -1.04766  -1.04144  -0.96574  -0.95583  -0.87590
 Alpha  occ. eigenvalues --   -0.86156  -0.82425  -0.80247  -0.78877  -0.77451
 Alpha  occ. eigenvalues --   -0.72038  -0.71167  -0.70452  -0.65678  -0.65003
 Alpha  occ. eigenvalues --   -0.64764  -0.62148  -0.61516  -0.59948  -0.58199
 Alpha  occ. eigenvalues --   -0.55841  -0.55243  -0.53304  -0.53104  -0.52998
 Alpha  occ. eigenvalues --   -0.52830  -0.50500  -0.48818  -0.48794  -0.48496
 Alpha  occ. eigenvalues --   -0.47256  -0.46394  -0.46296  -0.44802  -0.44389
 Alpha  occ. eigenvalues --   -0.37317  -0.36319
 Alpha virt. eigenvalues --    0.05045   0.11250   0.16456   0.20484   0.22512
 Alpha virt. eigenvalues --    0.23679   0.25713   0.26086   0.26873   0.28484
 Alpha virt. eigenvalues --    0.28713   0.30253   0.30838   0.31531   0.32026

 Mulliken charges:
               1
     1  C   -0.299718
     2  C   -0.300033
     3  C   -0.476103
     4  H    0.144821
     5  H    0.152421
     6  H    0.152727
     7  H    0.154495
     8  H    0.155761
     9  H    0.153322
    10  H    0.162370
    11  C   -0.297537
    12  C   -0.308672
    13  C   -0.476269
    14  H    0.150997
    15  H    0.153535
    16  H    0.144218
    17  H    0.156241
    18  H    0.160269
    19  H    0.158377
    20  H    0.156141
    21  C   -0.172744
    22  C   -0.218658
    23  C   -0.174281
    24  C    0.158924
    25  C   -0.171292
    26  C   -0.218627
    27  H    0.226103
    28  H    0.231318
    29  H    0.275689
    30  H    0.275526
    31  H    0.223517
    32  N    0.488050
    33  O   -0.460464
    34  O   -0.460422
 Sum of Mulliken charges =  -0.00000

 Dipole moment (field-independent basis, Debye):
    X=              3.7317    Y=             -1.1383    Z=              3.4809  Tot=              5.2286
 Quadrupole moment (field-independent basis, Debye-Ang):
   XX=           -115.0102   YY=            -91.1128   ZZ=            -94.5620
   XY=              4.5612   XZ=             -9.9649   YZ=             -0.8464

 Normal termination of Gaussian 16 at Thu May  6 01:09:25 2021.
