 Gaussian 16, Revision A.03,
 Gaussian 16:  EM64L-G16RevA.03 25-Dec-2016

 -------------
 #p 6-31g* mp2
 -------------

 ------------------------------------------------------
 Input file generated by CHIRIPA (05-May-2021 14:55:21)
 ------------------------------------------------------
 Symbolic Z-matrix:
 Charge =  0 Multiplicity = 1

                         Standard orientation:
 ---------------------------------------------------------------------
 Center     Atomic      Atomic             Coordinates (Angstroms)
 Number     Number       Type             X           Y           Z
 ---------------------------------------------------------------------
      1          6           0       -4.013789    0.352079   -1.862864
      2          6           0       -4.550555   -0.330963   -0.766571
      3          6           0       -3.775302   -0.565080    0.373042
      4          6           0       -2.461133   -0.100147    0.382362
      5          6           0       -1.897761    0.583463   -0.694011
      6          6           0       -2.691436    0.806311   -1.823155
      7          1           0       -4.623180    0.529570   -2.744076
      8          1           0       -5.577205   -0.684869   -0.794613
      9          1           0       -4.165631   -1.091151    1.235776
     10          1           0       -0.871106    0.924199   -0.636584
     11          1           0       -2.271933    1.337055   -2.673080
     12          7           0       -1.630656   -0.342031    1.583278
     13          8           0       -0.475606    0.077754    1.566605
     14          8           0       -2.150502   -0.946825    2.518490
     15          6           0        2.928288    0.724670   -0.316253
     16          6           0        3.564808    1.918578    0.396074
     17          6           0        2.758652    3.206654    0.226473
     18          1           0        2.824855    0.956117   -1.385214
     19          1           0        1.910914    0.575276    0.071081
     20          1           0        4.581180    2.064819    0.008497
     21          1           0        3.666914    1.684188    1.463431
     22          1           0        1.748368    3.084817    0.630310
     23          1           0        2.667829    3.467612   -0.832892
     24          1           0        3.231629    4.047317    0.743618
     25          6           0        3.722606   -0.570350   -0.155906
     26          6           0        3.086087   -1.764258   -0.868233
     27          6           0        3.892244   -3.052334   -0.698631
     28          1           0        4.739980   -0.420956   -0.543240
     29          1           0        3.826040   -0.801797    0.913056
     30          1           0        2.983981   -1.529867   -1.935590
     31          1           0        2.069715   -1.910500   -0.480655
     32          1           0        3.983065   -3.313292    0.360733
     33          1           0        4.902527   -2.930498   -1.102468
     34          1           0        3.419265   -3.892997   -1.215776
 ---------------------------------------------------------------------

 SCF Done:  E(RHF) =  -669.536472347     A.U. after   15 cycles
 E2 =    -0.2091621570D+01 EUMP2 =    -0.67162809391698D+03

 The electronic state is 1-A.
 Alpha  occ. eigenvalues --  -20.60977 -20.60960 -15.86007 -11.31280 -11.27844
 Alpha  occ. eigenvalues --  -11.27828 -11.27576 -11.26844 -11.26829 -11.21085
 Alpha  occ. eigenvalues --  -11.21027 -11.20780 -11.20694 -11.20654 -11.20618
 Alpha  occ. eigenvalues --   -1.60033  -1.39591  -1.19448  -1.08862  -1.07842
 Alpha  occ. eigenvalues --   -1.04837  -1.03009  -0.95712  -0.95464  -0.86490
 Alpha  occ. eigenvalues --   -0.86241  -0.82548  -0.79079  -0.77764  -0.77516
 Alpha  occ. eigenvalues --   -0.72236  -0.71344  -0.70558  -0.65113  -0.64845
 Alpha  occ. eigenvalues --   -0.64426  -0.62186  -0.60388  -0.58843  -0.57089
 Alpha  occ. eigenvalues --   -0.55347  -0.54736  -0.53173  -0.52931  -0.52187
 Alpha  occ. eigenvalues --   -0.51913  -0.49412  -0.48993  -0.48974  -0.47406
 Alpha  occ. eigenvalues --   -0.46082  -0.45251  -0.45174  -0.44857  -0.43243
 Alpha  occ. eigenvalues --   -0.37428  -0.36436
 Alpha virt. eigenvalues --    0.04908   0.11211   0.16409   0.20750   0.23276
 Alpha virt. eigenvalues --    0.24386   0.25904   0.27415   0.27670   0.28486
 Alpha virt. eigenvalues --    0.29229   0.30998   0.31621   0.32217   0.32406

 Mulliken charges:
               1
     1  C   -0.170289
     2  C   -0.218771
     3  C   -0.170617
     4  C    0.156867
     5  C   -0.171627
     6  C   -0.219793
     7  H    0.226007
     8  H    0.223747
     9  H    0.275651
    10  H    0.280092
    11  H    0.224491
    12  N    0.493131
    13  O   -0.467732
    14  O   -0.458717
    15  C   -0.314634
    16  C   -0.297341
    17  C   -0.478151
    18  H    0.139621
    19  H    0.174428
    20  H    0.148560
    21  H    0.157329
    22  H    0.159532
    23  H    0.148646
    24  H    0.159608
    25  C   -0.296416
    26  C   -0.300827
    27  C   -0.475483
    28  H    0.145964
    29  H    0.154923
    30  H    0.146201
    31  H    0.156900
    32  H    0.157721
    33  H    0.153211
    34  H    0.157767
 Sum of Mulliken charges =  -0.00000

 Dipole moment (field-independent basis, Debye):
    X=             -3.1072    Y=              0.7971    Z=             -4.0500  Tot=              5.1665
 Quadrupole moment (field-independent basis, Debye-Ang):
   XX=            -77.9410   YY=            -95.8826   ZZ=            -96.9361
   XY=              0.7384   XZ=              7.7493   YZ=             -0.6447

 Normal termination of Gaussian 16 at Thu May  6 14:09:58 2021.
