 Gaussian 16, Revision A.03,
 Gaussian 16:  EM64L-G16RevA.03 25-Dec-2016

 -------------
 #p 6-31g* mp2
 -------------

 ------------------------------------------------------
 Input file generated by CHIRIPA (05-May-2021 14:51:11)
 ------------------------------------------------------
 Symbolic Z-matrix:
 Charge =  0 Multiplicity = 1

                         Standard orientation:
 ---------------------------------------------------------------------
 Center     Atomic      Atomic             Coordinates (Angstroms)
 Number     Number       Type             X           Y           Z
 ---------------------------------------------------------------------
      1          6           0       -4.862384   -0.362037    0.299683
      2          6           0       -5.051002   -1.672087   -0.465939
      3          6           0       -6.326147   -2.413630   -0.063553
      4          1           0       -4.840145   -0.574475    1.377329
      5          1           0       -5.733800    0.284513    0.126472
      6          1           0       -4.178852   -2.315415   -0.292446
      7          1           0       -5.072603   -1.456529   -1.541896
      8          1           0       -7.208381   -1.793622   -0.252905
      9          1           0       -6.309552   -2.657388    1.003643
     10          1           0       -6.441164   -3.347226   -0.623044
     11          6           0       -3.591983    0.390786   -0.091555
     12          6           0       -3.403365    1.700836    0.674067
     13          6           0       -2.128220    2.442379    0.271681
     14          1           0       -2.720567   -0.255764    0.081656
     15          1           0       -3.614222    0.603223   -1.169201
     16          1           0       -3.381764    1.485277    1.750024
     17          1           0       -4.275515    2.344163    0.500574
     18          1           0       -2.144815    2.686137   -0.795515
     19          1           0       -1.245986    1.822370    0.461033
     20          1           0       -2.013203    3.375975    0.831172
     21          6           0        4.545139   -0.707578   -0.061581
     22          6           0        6.033183   -0.671748    0.288311
     23          6           0        6.655080   -2.066174    0.369626
     24          1           0        4.012330   -1.304933    0.690898
     25          1           0        4.413769   -1.225228   -1.021882
     26          1           0        6.161834   -0.153101    1.246993
     27          1           0        6.562483   -0.074249   -0.464983
     28          1           0        6.556104   -2.588537   -0.587421
     29          1           0        6.153177   -2.667837    1.134282
     30          1           0        7.719181   -2.017150    0.620914
     31          6           0        3.909228    0.678830   -0.146546
     32          6           0        2.421184    0.642999   -0.496440
     33          6           0        1.799287    2.037425   -0.577755
     34          1           0        4.040597    1.196479    0.813754
     35          1           0        4.442037    1.276185   -0.899026
     36          1           0        1.891883    0.045500    0.256856
     37          1           0        2.292533    0.124352   -1.455121
     38          1           0        2.301190    2.639088   -1.342409
     39          1           0        1.898264    2.559788    0.379294
     40          1           0        0.735185    1.988401   -0.829041
 ---------------------------------------------------------------------

 SCF Done:  E(RHF) =  -470.733013052     A.U. after   11 cycles
 E2 =    -0.1582345439D+01 EUMP2 =    -0.47231535849064D+03

 The electronic state is 1-A.
 Alpha  occ. eigenvalues --  -11.21603 -11.21594 -11.21589 -11.21568 -11.21408
 Alpha  occ. eigenvalues --  -11.21382 -11.21348 -11.21322 -11.21072 -11.21063
 Alpha  occ. eigenvalues --  -11.21044 -11.20940  -1.08433  -1.08403  -1.03543
 Alpha  occ. eigenvalues --   -1.03484  -0.96021  -0.95904  -0.87069  -0.86890
 Alpha  occ. eigenvalues --   -0.79645  -0.79511  -0.78246  -0.78218  -0.65069
 Alpha  occ. eigenvalues --   -0.65030  -0.60970  -0.60865  -0.59391  -0.59306
 Alpha  occ. eigenvalues --   -0.57729  -0.57428  -0.55328  -0.55170  -0.52884
 Alpha  occ. eigenvalues --   -0.52643  -0.52423  -0.52128  -0.49967  -0.49821
 Alpha  occ. eigenvalues --   -0.48011  -0.47755  -0.46637  -0.46577  -0.45786
 Alpha  occ. eigenvalues --   -0.45757  -0.45710  -0.45687  -0.43796  -0.43698
 Alpha virt. eigenvalues --    0.22187   0.23015   0.23558   0.24840   0.26517
 Alpha virt. eigenvalues --    0.26736   0.26875   0.27500   0.27681   0.28973
 Alpha virt. eigenvalues --    0.31048   0.31268   0.31456   0.31793   0.32080

 Mulliken charges:
               1
     1  C   -0.298243
     2  C   -0.299661
     3  C   -0.475708
     4  H    0.149623
     5  H    0.149574
     6  H    0.151961
     7  H    0.151944
     8  H    0.155188
     9  H    0.155164
    10  H    0.160266
    11  C   -0.298371
    12  C   -0.299885
    13  C   -0.479236
    14  H    0.149387
    15  H    0.149554
    16  H    0.151804
    17  H    0.151831
    18  H    0.154760
    19  H    0.160006
    20  H    0.160698
    21  C   -0.298205
    22  C   -0.299625
    23  C   -0.475681
    24  H    0.149401
    25  H    0.149474
    26  H    0.151888
    27  H    0.151953
    28  H    0.155163
    29  H    0.155092
    30  H    0.160212
    31  C   -0.298133
    32  C   -0.300049
    33  C   -0.481641
    34  H    0.149436
    35  H    0.149747
    36  H    0.150870
    37  H    0.151820
    38  H    0.154524
    39  H    0.154653
    40  H    0.168447
 Sum of Mulliken charges =  -0.00000

 Dipole moment (field-independent basis, Debye):
    X=             -0.0223    Y=              0.0151    Z=             -0.0017  Tot=              0.0269
 Quadrupole moment (field-independent basis, Debye-Ang):
   XX=            -85.7366   YY=            -85.8408   ZZ=            -83.2815
   XY=             -0.2860   XZ=              0.2488   YZ=             -0.2082

 Normal termination of Gaussian 16 at Wed May  5 21:27:26 2021.
