 Gaussian 16, Revision A.03,
 Gaussian 16:  EM64L-G16RevA.03 25-Dec-2016

 -------------
 #p 6-31g* mp2
 -------------

 ------------------------------------------------------
 Input file generated by CHIRIPA (05-May-2021 14:53:17)
 ------------------------------------------------------
 Symbolic Z-matrix:
 Charge =  0 Multiplicity = 1

                         Standard orientation:
 ---------------------------------------------------------------------
 Center     Atomic      Atomic             Coordinates (Angstroms)
 Number     Number       Type             X           Y           Z
 ---------------------------------------------------------------------
      1          6           0        3.061918    0.927778    0.095456
      2          6           0        3.028168    2.124516   -0.855682
      3          6           0        2.796120    3.450106   -0.129902
      4          1           0        2.115317    0.882373    0.651180
      5          1           0        3.854624    1.082634    0.840460
      6          1           0        2.236674    1.966804   -1.599511
      7          1           0        3.974884    2.166964   -1.409345
      8          1           0        3.591189    3.634045    0.599915
      9          1           0        1.843103    3.432748    0.408669
     10          1           0        2.775604    4.292188   -0.828713
     11          6           0        3.293096   -0.404585   -0.615245
     12          6           0        3.326846   -1.601323    0.335894
     13          6           0        3.558894   -2.926913   -0.389887
     14          1           0        2.500390   -0.559441   -1.360249
     15          1           0        4.239697   -0.359180   -1.170969
     16          1           0        2.380130   -1.643771    0.889556
     17          1           0        4.118339   -1.443612    1.079722
     18          1           0        4.511911   -2.909555   -0.928457
     19          1           0        2.763825   -3.110852   -1.119704
     20          1           0        3.579410   -3.768996    0.308924
     21          6           0       -4.708531    0.418849   -0.807888
     22          6           0       -4.095178    1.272582    0.114857
     23          6           0       -2.861768    0.937438    0.681363
     24          6           0       -2.267216   -0.264623    0.300776
     25          6           0       -2.853176   -1.136186   -0.615913
     26          6           0       -4.086669   -0.780695   -1.169690
     27          1           0       -5.666706    0.687100   -1.243019
     28          1           0       -4.575809    2.204805    0.397699
     29          1           0       -2.364749    1.579867    1.398074
     30          1           0       -2.349671   -2.058724   -0.878260
     31          1           0       -4.560683   -1.445655   -1.886060
     32          7           0       -0.961417   -0.630196    0.893771
     33          8           0       -0.458204   -1.694909    0.541923
     34          8           0       -0.465869    0.154905    1.699183
 ---------------------------------------------------------------------

 SCF Done:  E(RHF) =  -669.537183073     A.U. after   15 cycles
 E2 =    -0.2092734702D+01 EUMP2 =    -0.67162991777456D+03

 The electronic state is 1-A.
 Alpha  occ. eigenvalues --  -20.61282 -20.61272 -15.86251 -11.31469 -11.28012
 Alpha  occ. eigenvalues --  -11.28008 -11.27729 -11.26991 -11.26981 -11.20636
 Alpha  occ. eigenvalues --  -11.20293 -11.19982 -11.19886 -11.19771 -11.19667
 Alpha  occ. eigenvalues --   -1.60302  -1.39862  -1.19621  -1.09047  -1.07062
 Alpha  occ. eigenvalues --   -1.04998  -1.02245  -0.95905  -0.94740  -0.86404
 Alpha  occ. eigenvalues --   -0.85772  -0.82743  -0.78327  -0.77812  -0.76819
 Alpha  occ. eigenvalues --   -0.72465  -0.71602  -0.70728  -0.65277  -0.65003
 Alpha  occ. eigenvalues --   -0.63682  -0.62345  -0.59637  -0.58139  -0.56334
 Alpha  occ. eigenvalues --   -0.55507  -0.54034  -0.53334  -0.53087  -0.51496
 Alpha  occ. eigenvalues --   -0.51170  -0.49306  -0.49255  -0.48683  -0.46658
 Alpha  occ. eigenvalues --   -0.45548  -0.45045  -0.44410  -0.44068  -0.42478
 Alpha  occ. eigenvalues --   -0.37591  -0.36592
 Alpha virt. eigenvalues --    0.04662   0.11065   0.16163   0.21191   0.24169
 Alpha virt. eigenvalues --    0.25524   0.27138   0.27781   0.28226   0.28950
 Alpha virt. eigenvalues --    0.29351   0.30894   0.32160   0.32638   0.33032

 Mulliken charges:
               1
     1  C   -0.310040
     2  C   -0.297482
     3  C   -0.474769
     4  H    0.172401
     5  H    0.145375
     6  H    0.146177
     7  H    0.148162
     8  H    0.154497
     9  H    0.155404
    10  H    0.154540
    11  C   -0.294990
    12  C   -0.309530
    13  C   -0.473507
    14  H    0.145387
    15  H    0.141755
    16  H    0.183018
    17  H    0.143899
    18  H    0.147253
    19  H    0.154084
    20  H    0.156981
    21  C   -0.170111
    22  C   -0.218573
    23  C   -0.170441
    24  C    0.158416
    25  C   -0.170505
    26  C   -0.218586
    27  H    0.226741
    28  H    0.224578
    29  H    0.276166
    30  H    0.276219
    31  H    0.224528
    32  N    0.488565
    33  O   -0.457531
    34  O   -0.458082
 Sum of Mulliken charges =  -0.00000

 Dipole moment (field-independent basis, Debye):
    X=             -5.1216    Y=              1.1972    Z=             -1.8824  Tot=              5.5864
 Quadrupole moment (field-independent basis, Debye-Ang):
   XX=            -74.8372   YY=            -93.8608   ZZ=            -95.4766
   XY=             -1.5187   XZ=              4.3057   YZ=              3.2536

 Normal termination of Gaussian 16 at Thu May  6 02:47:49 2021.
