 Gaussian 16, Revision A.03,
 Gaussian 16:  EM64L-G16RevA.03 25-Dec-2016

 -------------
 #p 6-31g* mp2
 -------------

 ------------------------------------------------------
 Input file generated by CHIRIPA (05-May-2021 14:51:13)
 ------------------------------------------------------
 Symbolic Z-matrix:
 Charge =  0 Multiplicity = 1

                         Standard orientation:
 ---------------------------------------------------------------------
 Center     Atomic      Atomic             Coordinates (Angstroms)
 Number     Number       Type             X           Y           Z
 ---------------------------------------------------------------------
      1          6           0        4.455223   -0.327010   -0.149675
      2          6           0        4.077428   -1.782522    0.127346
      3          6           0        5.226785   -2.753580   -0.144351
      4          1           0        4.778504   -0.231393   -1.195281
      5          1           0        5.320328   -0.055524    0.471038
      6          1           0        3.212431   -2.050763   -0.492688
      7          1           0        3.754827   -1.874648    1.172361
      8          1           0        6.090370   -2.513941    0.484453
      9          1           0        5.544892   -2.691057   -1.190057
     10          1           0        4.934918   -3.788394    0.060180
     11          6           0        3.316549    0.655778    0.117302
     12          6           0        3.694344    2.111290   -0.159718
     13          6           0        2.544987    3.082347    0.111979
     14          1           0        2.451444    0.384292   -0.503411
     15          1           0        2.993268    0.560160    1.162908
     16          1           0        4.016945    2.203416   -1.204734
     17          1           0        4.559341    2.379531    0.460315
     18          1           0        2.226880    3.019824    1.157684
     19          1           0        1.681402    2.842708   -0.516826
     20          1           0        2.836854    4.117162   -0.092552
     21          6           0       -4.567809    0.123560   -0.172231
     22          6           0       -5.733892   -0.802862    0.174152
     23          6           0       -7.091501   -0.212925   -0.208819
     24          1           0       -4.708232    1.086011    0.338567
     25          1           0       -4.585302    0.336281   -1.250117
     26          1           0       -5.713390   -1.014884    1.250833
     27          1           0       -5.590578   -1.763286   -0.337377
     28          1           0       -7.136872   -0.017587   -1.285103
     29          1           0       -7.260381    0.735067    0.312131
     30          1           0       -7.910917   -0.891634    0.047641
     31          6           0       -3.203963   -0.452327    0.204603
     32          6           0       -2.037880    0.474094   -0.141779
     33          6           0       -0.680271   -0.115843    0.241192
     34          1           0       -3.186470   -0.665049    1.282489
     35          1           0       -3.063540   -1.414778   -0.306195
     36          1           0       -2.181194    1.434519    0.369749
     37          1           0       -2.058382    0.686116   -1.218460
     38          1           0       -0.511391   -1.063835   -0.279759
     39          1           0       -0.634900   -0.311180    1.317475
     40          1           0        0.139145    0.562866   -0.015268
 ---------------------------------------------------------------------

 SCF Done:  E(RHF) =  -470.732941238     A.U. after   11 cycles
 E2 =    -0.1582929223D+01 EUMP2 =    -0.47231587046144D+03

 The electronic state is 1-A.
 Alpha  occ. eigenvalues --  -11.21593 -11.21586 -11.21559 -11.21558 -11.21379
 Alpha  occ. eigenvalues --  -11.21359 -11.21319 -11.21293 -11.21096 -11.21059
 Alpha  occ. eigenvalues --  -11.21042 -11.20968  -1.08417  -1.08390  -1.03527
 Alpha  occ. eigenvalues --   -1.03485  -0.95973  -0.95938  -0.87003  -0.86945
 Alpha  occ. eigenvalues --   -0.79625  -0.79522  -0.78250  -0.78178  -0.65054
 Alpha  occ. eigenvalues --   -0.65023  -0.60925  -0.60893  -0.59479  -0.59189
 Alpha  occ. eigenvalues --   -0.57575  -0.57555  -0.55273  -0.55215  -0.52761
 Alpha  occ. eigenvalues --   -0.52618  -0.52374  -0.52352  -0.49923  -0.49873
 Alpha  occ. eigenvalues --   -0.47987  -0.47786  -0.46611  -0.46588  -0.45776
 Alpha  occ. eigenvalues --   -0.45742  -0.45707  -0.45653  -0.43769  -0.43635
 Alpha virt. eigenvalues --    0.21666   0.23083   0.23433   0.24883   0.26200
 Alpha virt. eigenvalues --    0.26697   0.26872   0.27252   0.27912   0.29270
 Alpha virt. eigenvalues --    0.30385   0.31355   0.31717   0.31853   0.32155

 Mulliken charges:
               1
     1  C   -0.297814
     2  C   -0.299548
     3  C   -0.475713
     4  H    0.149252
     5  H    0.149253
     6  H    0.152244
     7  H    0.152140
     8  H    0.155066
     9  H    0.154999
    10  H    0.160162
    11  C   -0.302855
    12  C   -0.299647
    13  C   -0.477665
    14  H    0.154834
    15  H    0.150236
    16  H    0.151662
    17  H    0.151895
    18  H    0.155664
    19  H    0.155987
    20  H    0.160552
    21  C   -0.298182
    22  C   -0.299591
    23  C   -0.475679
    24  H    0.149643
    25  H    0.149373
    26  H    0.151896
    27  H    0.151866
    28  H    0.155129
    29  H    0.155173
    30  H    0.160187
    31  C   -0.298401
    32  C   -0.299459
    33  C   -0.482528
    34  H    0.149462
    35  H    0.149445
    36  H    0.152058
    37  H    0.151112
    38  H    0.153927
    39  H    0.154894
    40  H    0.168972
 Sum of Mulliken charges =  -0.00000

 Dipole moment (field-independent basis, Debye):
    X=              0.0218    Y=              0.0098    Z=              0.0087  Tot=              0.0254
 Quadrupole moment (field-independent basis, Debye-Ang):
   XX=            -86.4972   YY=            -85.3811   ZZ=            -83.0295
   XY=              0.9186   XZ=              0.1264   YZ=              0.4593

 Normal termination of Gaussian 16 at Wed May  5 19:58:40 2021.
