 Gaussian 16, Revision A.03,
 Gaussian 16:  EM64L-G16RevA.03 25-Dec-2016

 -------------
 #p 6-31g* mp2
 -------------

 ------------------------------------------------------
 Input file generated by CHIRIPA (05-May-2021 14:53:16)
 ------------------------------------------------------
 Symbolic Z-matrix:
 Charge =  0 Multiplicity = 1

                         Standard orientation:
 ---------------------------------------------------------------------
 Center     Atomic      Atomic             Coordinates (Angstroms)
 Number     Number       Type             X           Y           Z
 ---------------------------------------------------------------------
      1          6           0       -1.777551   -0.881281   -0.382958
      2          6           0       -1.485921   -2.068711   -1.301079
      3          6           0        0.010465   -2.339675   -1.459834
      4          1           0       -1.281808    0.013785   -0.783008
      5          1           0       -1.331696   -1.071092    0.603237
      6          1           0       -1.933379   -1.877328   -2.284832
      7          1           0       -1.982575   -2.961013   -0.898900
      8          1           0        0.467888   -2.556167   -0.489011
      9          1           0        0.517363   -1.466325   -1.882818
     10          1           0        0.196188   -3.192548   -2.120118
     11          6           0       -3.269192   -0.597906   -0.214331
     12          6           0       -3.560823    0.589524    0.703790
     13          6           0       -5.057208    0.860488    0.862545
     14          1           0       -3.715047   -0.408095   -1.200525
     15          1           0       -3.764936   -1.492972    0.185720
     16          1           0       -3.064169    1.481826    0.301611
     17          1           0       -3.113364    0.398142    1.687543
     18          1           0       -5.564106   -0.012861    1.285529
     19          1           0       -5.514631    1.076981   -0.108277
     20          1           0       -5.242931    1.713361    1.522829
     21          6           0        3.010922   -1.392214    1.418347
     22          6           0        3.613099   -0.869125    0.269311
     23          6           0        3.045931    0.222202   -0.395425
     24          6           0        1.870886    0.768262    0.118752
     25          6           0        1.247112    0.269610    1.261354
     26          6           0        1.831929   -0.822182    1.909835
     27          1           0        3.458368   -2.240163    1.928416
     28          1           0        4.528756   -1.309795   -0.114649
     29          1           0        3.491106    0.647027   -1.286919
     30          1           0        0.334715    0.730213    1.620235
     31          1           0        1.362069   -1.226338    2.801987
     32          7           0        1.261107    1.923847   -0.576370
     33          8           0        0.225574    2.386926   -0.103226
     34          8           0        1.830244    2.344635   -1.581188
 ---------------------------------------------------------------------

 SCF Done:  E(RHF) =  -669.534931161     A.U. after   15 cycles
 E2 =    -0.2095954606D+01 EUMP2 =    -0.67163088576688D+03

 The electronic state is 1-A.
 Alpha  occ. eigenvalues --  -20.60947 -20.60930 -15.85950 -11.31199 -11.27814
 Alpha  occ. eigenvalues --  -11.27777 -11.27563 -11.26797 -11.26788 -11.21428
 Alpha  occ. eigenvalues --  -11.21180 -11.21112 -11.21044 -11.20929 -11.20724
 Alpha  occ. eigenvalues --   -1.59996  -1.39553  -1.19410  -1.08825  -1.08159
 Alpha  occ. eigenvalues --   -1.04805  -1.03264  -0.95736  -0.95665  -0.86758
 Alpha  occ. eigenvalues --   -0.86201  -0.82510  -0.79337  -0.78078  -0.77490
 Alpha  occ. eigenvalues --   -0.72183  -0.71308  -0.70531  -0.65092  -0.64829
 Alpha  occ. eigenvalues --   -0.64748  -0.62157  -0.60664  -0.59122  -0.57360
 Alpha  occ. eigenvalues --   -0.55325  -0.55029  -0.53259  -0.52909  -0.52424
 Alpha  occ. eigenvalues --   -0.52069  -0.49693  -0.48955  -0.48935  -0.47579
 Alpha  occ. eigenvalues --   -0.46377  -0.45695  -0.45493  -0.44636  -0.43516
 Alpha  occ. eigenvalues --   -0.37353  -0.36315
 Alpha virt. eigenvalues --    0.04941   0.11209   0.16342   0.20927   0.23156
 Alpha virt. eigenvalues --    0.24278   0.25697   0.26897   0.27777   0.27937
 Alpha virt. eigenvalues --    0.29544   0.30824   0.31523   0.31623   0.32186

 Mulliken charges:
               1
     1  C   -0.304525
     2  C   -0.298893
     3  C   -0.478604
     4  H    0.161532
     5  H    0.138583
     6  H    0.153804
     7  H    0.148801
     8  H    0.154465
     9  H    0.154949
    10  H    0.157260
    11  C   -0.297037
    12  C   -0.303589
    13  C   -0.475520
    14  H    0.151457
    15  H    0.145815
    16  H    0.169297
    17  H    0.142470
    18  H    0.151962
    19  H    0.156366
    20  H    0.160429
    21  C   -0.169961
    22  C   -0.216944
    23  C   -0.170861
    24  C    0.158485
    25  C   -0.164700
    26  C   -0.221188
    27  H    0.226015
    28  H    0.223758
    29  H    0.275589
    30  H    0.277999
    31  H    0.223441
    32  N    0.487745
    33  O   -0.459363
    34  O   -0.459036
 Sum of Mulliken charges =  -0.00000

 Dipole moment (field-independent basis, Debye):
    X=              2.2668    Y=             -3.8637    Z=              2.4071  Tot=              5.0854
 Quadrupole moment (field-independent basis, Debye-Ang):
   XX=            -85.4565   YY=           -101.7113   ZZ=            -91.7822
   XY=             -6.2312   XZ=              2.5558   YZ=              0.7094

 Normal termination of Gaussian 16 at Thu May  6 09:04:15 2021.
