 Gaussian 16, Revision A.03,
 Gaussian 16:  EM64L-G16RevA.03 25-Dec-2016

 -------------
 #p 6-31g* mp2
 -------------

 ------------------------------------------------------
 Input file generated by CHIRIPA (05-May-2021 14:55:21)
 ------------------------------------------------------
 Symbolic Z-matrix:
 Charge =  0 Multiplicity = 1

                         Standard orientation:
 ---------------------------------------------------------------------
 Center     Atomic      Atomic             Coordinates (Angstroms)
 Number     Number       Type             X           Y           Z
 ---------------------------------------------------------------------
      1          6           0       -0.502845   -0.706234    2.362352
      2          6           0       -0.797684   -1.802487    1.545148
      3          6           0       -1.586775   -1.644036    0.402005
      4          6           0       -2.066636   -0.369447    0.104604
      5          6           0       -1.790315    0.742286    0.898951
      6          6           0       -0.999227    0.560420    2.037218
      7          1           0        0.110916   -0.838418    3.248478
      8          1           0       -0.413547   -2.787352    1.795197
      9          1           0       -1.830414   -2.475503   -0.248164
     10          1           0       -2.187566    1.711779    0.623827
     11          1           0       -0.771864    1.413589    2.670032
     12          7           0       -2.903069   -0.189308   -1.103009
     13          8           0       -3.313734    0.943965   -1.343184
     14          8           0       -3.132162   -1.184798   -1.786494
     15          6           0        2.700406   -0.066793   -0.831469
     16          6           0        3.267359   -1.246825   -0.041484
     17          6           0        3.726362   -2.394654   -0.941262
     18          1           0        1.856918   -0.414771   -1.443338
     19          1           0        3.464823    0.297966   -1.531477
     20          1           0        2.502571   -1.608367    0.657802
     21          1           0        4.109474   -0.895958    0.568721
     22          1           0        4.507316   -2.055865   -1.629691
     23          1           0        2.891282   -2.772323   -1.540103
     24          1           0        4.128103   -3.227625   -0.355922
     25          6           0        2.237275    1.088582    0.054167
     26          6           0        1.670321    2.268614   -0.735817
     27          6           0        1.211319    3.416443    0.163959
     28          1           0        1.472857    0.723822    0.754174
     29          1           0        3.080762    1.436560    0.666036
     30          1           0        0.828207    1.917746   -1.346023
     31          1           0        2.435109    2.630156   -1.435104
     32          1           0        2.046397    3.794111    0.762801
     33          1           0        0.430365    3.077653    0.852388
     34          1           0        0.809577    4.249414   -0.421379
 ---------------------------------------------------------------------

 SCF Done:  E(RHF) =  -669.534378548     A.U. after   15 cycles
 E2 =    -0.2095808481D+01 EUMP2 =    -0.67163018702913D+03

 The electronic state is 1-A.
 Alpha  occ. eigenvalues --  -20.60912 -20.60907 -15.85967 -11.31397 -11.27968
 Alpha  occ. eigenvalues --  -11.27942 -11.27682 -11.26990 -11.26939 -11.21896
 Alpha  occ. eigenvalues --  -11.21728 -11.21518 -11.21427 -11.21375 -11.21348
 Alpha  occ. eigenvalues --   -1.59987  -1.39538  -1.19580  -1.08969  -1.08591
 Alpha  occ. eigenvalues --   -1.04988  -1.03766  -0.96224  -0.95773  -0.87245
 Alpha  occ. eigenvalues --   -0.86368  -0.82604  -0.79834  -0.78429  -0.77640
 Alpha  occ. eigenvalues --   -0.72182  -0.71314  -0.70653  -0.65297  -0.65212
 Alpha  occ. eigenvalues --   -0.64955  -0.62350  -0.61168  -0.59583  -0.57835
 Alpha  occ. eigenvalues --   -0.55567  -0.55430  -0.53361  -0.53062  -0.52917
 Alpha  occ. eigenvalues --   -0.52641  -0.50181  -0.48946  -0.48934  -0.48163
 Alpha  occ. eigenvalues --   -0.46876  -0.45943  -0.45880  -0.44928  -0.43981
 Alpha  occ. eigenvalues --   -0.37444  -0.36493
 Alpha virt. eigenvalues --    0.04846   0.10917   0.16198   0.20403   0.22921
 Alpha virt. eigenvalues --    0.23592   0.26123   0.26587   0.27279   0.28171
 Alpha virt. eigenvalues --    0.28562   0.30381   0.31427   0.31645   0.32031

 Mulliken charges:
               1
     1  C   -0.171487
     2  C   -0.216605
     3  C   -0.171670
     4  C    0.158167
     5  C   -0.168010
     6  C   -0.221275
     7  H    0.227916
     8  H    0.225188
     9  H    0.276633
    10  H    0.277496
    11  H    0.226164
    12  N    0.487894
    13  O   -0.459512
    14  O   -0.459822
    15  C   -0.296922
    16  C   -0.300389
    17  C   -0.475971
    18  H    0.151733
    19  H    0.150108
    20  H    0.145901
    21  H    0.150593
    22  H    0.157400
    23  H    0.155972
    24  H    0.158104
    25  C   -0.308466
    26  C   -0.299540
    27  C   -0.476353
    28  H    0.159535
    29  H    0.145147
    30  H    0.155717
    31  H    0.153443
    32  H    0.154513
    33  H    0.144072
    34  H    0.164326
 Sum of Mulliken charges =  -0.00000

 Dipole moment (field-independent basis, Debye):
    X=              2.7946    Y=             -0.6790    Z=              4.2334  Tot=              5.1179
 Quadrupole moment (field-independent basis, Debye-Ang):
   XX=           -107.2437   YY=            -90.3702   ZZ=            -94.3569
   XY=              0.5328   XZ=             -8.6807   YZ=             -1.1753

 Normal termination of Gaussian 16 at Thu May  6 03:00:01 2021.
