 Gaussian 16, Revision A.03,
 Gaussian 16:  EM64L-G16RevA.03 25-Dec-2016

 -------------
 #p 6-31g* mp2
 -------------

 ------------------------------------------------------
 Input file generated by CHIRIPA (05-May-2021 14:55:18)
 ------------------------------------------------------
 Symbolic Z-matrix:
 Charge =  0 Multiplicity = 1

                         Standard orientation:
 ---------------------------------------------------------------------
 Center     Atomic      Atomic             Coordinates (Angstroms)
 Number     Number       Type             X           Y           Z
 ---------------------------------------------------------------------
      1          6           0        1.641769    2.403884    0.566802
      2          6           0        2.613551    2.446181   -0.438370
      3          6           0        3.395352    1.321368   -0.717892
      4          6           0        3.177715    0.165658    0.030611
      5          6           0        2.217361    0.092255    1.038392
      6          6           0        1.447118    1.229127    1.300681
      7          1           0        1.038936    3.282350    0.777248
      8          1           0        2.766911    3.357150   -1.009912
      9          1           0        4.154606    1.326529   -1.490501
     10          1           0        2.087584   -0.830198    1.591253
     11          1           0        0.693146    1.193388    2.081894
     12          7           0        3.999254   -1.031515   -0.256185
     13          8           0        3.788013   -2.037579    0.417498
     14          8           0        4.838862   -0.941125   -1.149228
     15          6           0       -3.162098   -0.468624   -0.317619
     16          6           0       -2.318584   -1.516043    0.409969
     17          6           0       -0.856349   -1.511824   -0.036846
     18          1           0       -3.107344   -0.650202   -1.399736
     19          1           0       -2.727912    0.525937   -0.145204
     20          1           0       -2.755031   -2.508182    0.237371
     21          1           0       -2.375508   -1.332065    1.490491
     22          1           0       -0.399007   -0.534978    0.150800
     23          1           0       -0.780685   -1.717778   -1.109440
     24          1           0       -0.271578   -2.268172    0.495921
     25          6           0       -4.626229   -0.460569    0.118251
     26          6           0       -5.469742    0.586849   -0.609337
     27          6           0       -6.931978    0.582632   -0.162522
     28          1           0       -5.060415   -1.455130   -0.054164
     29          1           0       -4.680983   -0.278990    1.200368
     30          1           0       -5.412819    0.402872   -1.689859
     31          1           0       -5.033297    1.578989   -0.436739
     32          1           0       -7.007641    0.788585    0.910072
     33          1           0       -7.389320   -0.394214   -0.350168
     34          1           0       -7.516748    1.338980   -0.695288
 ---------------------------------------------------------------------

 SCF Done:  E(RHF) =  -669.534102580     A.U. after   15 cycles
 E2 =    -0.2092806681D+01 EUMP2 =    -0.67162690926083D+03

 The electronic state is 1-A.
 Alpha  occ. eigenvalues --  -20.60763 -20.60757 -15.85817 -11.31187 -11.27777
 Alpha  occ. eigenvalues --  -11.27768 -11.27543 -11.26784 -11.26771 -11.21908
 Alpha  occ. eigenvalues --  -11.21867 -11.21723 -11.21660 -11.21339 -11.21134
 Alpha  occ. eigenvalues --   -1.59836  -1.39390  -1.19391  -1.08779  -1.08727
 Alpha  occ. eigenvalues --   -1.04813  -1.03791  -0.96243  -0.95604  -0.87260
 Alpha  occ. eigenvalues --   -0.86189  -0.82446  -0.79866  -0.78547  -0.77478
 Alpha  occ. eigenvalues --   -0.72037  -0.71158  -0.70496  -0.65378  -0.65039
 Alpha  occ. eigenvalues --   -0.64799  -0.62165  -0.61201  -0.59602  -0.57857
 Alpha  occ. eigenvalues --   -0.55614  -0.55294  -0.53333  -0.52987  -0.52770
 Alpha  occ. eigenvalues --   -0.52498  -0.50142  -0.48796  -0.48789  -0.48162
 Alpha  occ. eigenvalues --   -0.46905  -0.46079  -0.46024  -0.44793  -0.44055
 Alpha  occ. eigenvalues --   -0.37377  -0.36264
 Alpha virt. eigenvalues --    0.05060   0.11156   0.16466   0.20884   0.22703
 Alpha virt. eigenvalues --    0.24066   0.26277   0.26818   0.27235   0.27910
 Alpha virt. eigenvalues --    0.28919   0.29841   0.31383   0.31619   0.31728

 Mulliken charges:
               1
     1  C   -0.170811
     2  C   -0.218761
     3  C   -0.170709
     4  C    0.158730
     5  C   -0.165146
     6  C   -0.222458
     7  H    0.225681
     8  H    0.223510
     9  H    0.275764
    10  H    0.277209
    11  H    0.224323
    12  N    0.488366
    13  O   -0.460522
    14  O   -0.460487
    15  C   -0.297240
    16  C   -0.299495
    17  C   -0.485911
    18  H    0.151764
    19  H    0.144541
    20  H    0.154597
    21  H    0.146739
    22  H    0.159182
    23  H    0.158645
    24  H    0.161949
    25  C   -0.298247
    26  C   -0.299431
    27  C   -0.475773
    28  H    0.151408
    29  H    0.148222
    30  H    0.152981
    31  H    0.149643
    32  H    0.154761
    33  H    0.156381
    34  H    0.160595
 Sum of Mulliken charges =  -0.00000

 Dipole moment (field-independent basis, Debye):
    X=             -2.8576    Y=              4.1963    Z=              0.9654  Tot=              5.1678
 Quadrupole moment (field-independent basis, Debye-Ang):
   XX=           -113.6924   YY=            -92.0884   ZZ=            -92.0452
   XY=             14.7579   XZ=              1.6706   YZ=             -1.2461

 Normal termination of Gaussian 16 at Thu May  6 06:03:42 2021.
