 Gaussian 16, Revision A.03,
 Gaussian 16:  EM64L-G16RevA.03 25-Dec-2016

 -------------
 #p 6-31g* mp2
 -------------

 ------------------------------------------------------
 Input file generated by CHIRIPA (05-May-2021 14:55:21)
 ------------------------------------------------------
 Symbolic Z-matrix:
 Charge =  0 Multiplicity = 1

                         Standard orientation:
 ---------------------------------------------------------------------
 Center     Atomic      Atomic             Coordinates (Angstroms)
 Number     Number       Type             X           Y           Z
 ---------------------------------------------------------------------
      1          6           0       -1.098802   -0.903642    1.200834
      2          6           0       -2.011238   -1.907275    0.859215
      3          6           0       -3.230290   -1.583310    0.256300
      4          6           0       -3.505665   -0.239453    0.008294
      5          6           0       -2.617186    0.783231    0.336947
      6          6           0       -1.404150    0.436046    0.939071
      7          1           0       -0.154149   -1.164325    1.668885
      8          1           0       -1.776769   -2.948535    1.061320
      9          1           0       -3.954847   -2.340224   -0.018502
     10          1           0       -2.879034    1.812350    0.123010
     11          1           0       -0.697446    1.217583    1.203293
     12          7           0       -4.793037    0.115805   -0.629566
     13          8           0       -5.011904    1.307226   -0.837533
     14          8           0       -5.558835   -0.803891   -0.909476
     15          6           0        4.806296    0.047647   -0.496134
     16          6           0        5.061009   -1.384537   -0.025012
     17          6           0        6.245744   -2.038949   -0.736309
     18          1           0        4.628493    0.044099   -1.580254
     19          1           0        5.711832    0.647442   -0.329865
     20          1           0        4.154802   -1.981114   -0.190845
     21          1           0        5.238038   -1.377602    1.058145
     22          1           0        7.163453   -1.468306   -0.560875
     23          1           0        6.074062   -2.075246   -1.816961
     24          1           0        6.409985   -3.062177   -0.384329
     25          6           0        3.625040    0.715243    0.205777
     26          6           0        3.370326    2.147427   -0.265345
     27          6           0        2.185592    2.801839    0.445952
     28          1           0        2.719503    0.115447    0.039507
     29          1           0        3.802843    0.718791    1.289897
     30          1           0        3.193298    2.140492   -1.348502
     31          1           0        4.276534    2.744004   -0.099513
     32          1           0        2.357274    2.838136    1.526603
     33          1           0        1.267884    2.231196    0.270518
     34          1           0        2.021352    3.825067    0.093973
 ---------------------------------------------------------------------

 SCF Done:  E(RHF) =  -669.535703849     A.U. after   15 cycles
 E2 =    -0.2091036728D+01 EUMP2 =    -0.67162674057723D+03

 The electronic state is 1-A.
 Alpha  occ. eigenvalues --  -20.60748 -20.60743 -15.85802 -11.31169 -11.27744
 Alpha  occ. eigenvalues --  -11.27732 -11.27477 -11.26754 -11.26713 -11.22396
 Alpha  occ. eigenvalues --  -11.22244 -11.22219 -11.22066 -11.22033 -11.21587
 Alpha  occ. eigenvalues --   -1.59824  -1.39377  -1.19342  -1.09171  -1.08735
 Alpha  occ. eigenvalues --   -1.04745  -1.04264  -0.96730  -0.95569  -0.87751
 Alpha  occ. eigenvalues --   -0.86141  -0.82401  -0.80338  -0.78988  -0.77449
 Alpha  occ. eigenvalues --   -0.72020  -0.71147  -0.70444  -0.65803  -0.64991
 Alpha  occ. eigenvalues --   -0.64762  -0.62138  -0.61621  -0.60088  -0.58335
 Alpha  occ. eigenvalues --   -0.56039  -0.55232  -0.53406  -0.53253  -0.53069
 Alpha  occ. eigenvalues --   -0.52750  -0.50654  -0.48796  -0.48775  -0.48627
 Alpha  occ. eigenvalues --   -0.47354  -0.46528  -0.46438  -0.44782  -0.44515
 Alpha  occ. eigenvalues --   -0.37321  -0.36345
 Alpha virt. eigenvalues --    0.05080   0.11215   0.16532   0.20124   0.22430
 Alpha virt. eigenvalues --    0.23745   0.25462   0.25888   0.26502   0.28332
 Alpha virt. eigenvalues --    0.28995   0.30131   0.30978   0.31281   0.31738

 Mulliken charges:
               1
     1  C   -0.173108
     2  C   -0.218606
     3  C   -0.170929
     4  C    0.158641
     5  C   -0.172087
     6  C   -0.224391
     7  H    0.226923
     8  H    0.223344
     9  H    0.275548
    10  H    0.275898
    11  H    0.231756
    12  N    0.488076
    13  O   -0.460368
    14  O   -0.460560
    15  C   -0.298655
    16  C   -0.299917
    17  C   -0.476064
    18  H    0.152140
    19  H    0.151777
    20  H    0.149745
    21  H    0.151479
    22  H    0.156608
    23  H    0.156697
    24  H    0.161130
    25  C   -0.299242
    26  C   -0.299264
    27  C   -0.482264
    28  H    0.144873
    29  H    0.148596
    30  H    0.155796
    31  H    0.155510
    32  H    0.155119
    33  H    0.149886
    34  H    0.165914
 Sum of Mulliken charges =  -0.00000

 Dipole moment (field-independent basis, Debye):
    X=              4.7248    Y=             -1.2152    Z=              2.1914  Tot=              5.3482
 Quadrupole moment (field-independent basis, Debye-Ang):
   XX=           -126.4519   YY=            -89.4833   ZZ=            -95.2026
   XY=              5.6117   XZ=             -7.2402   YZ=             -0.4575

 Normal termination of Gaussian 16 at Thu May  6 01:25:27 2021.
