 Gaussian 16, Revision A.03,
 Gaussian 16:  EM64L-G16RevA.03 25-Dec-2016

 -------------
 #p 6-31g* mp2
 -------------

 ------------------------------------------------------
 Input file generated by CHIRIPA (05-May-2021 14:53:15)
 ------------------------------------------------------
 Symbolic Z-matrix:
 Charge =  0 Multiplicity = 1

                         Standard orientation:
 ---------------------------------------------------------------------
 Center     Atomic      Atomic             Coordinates (Angstroms)
 Number     Number       Type             X           Y           Z
 ---------------------------------------------------------------------
      1          6           0        2.640788    1.171411   -0.037560
      2          6           0        1.514541    1.878073   -0.792663
      3          6           0        1.395088    3.357811   -0.426740
      4          1           0        2.467894    1.270628    1.042814
      5          1           0        3.591080    1.680502   -0.250081
      6          1           0        0.566861    1.366956   -0.579876
      7          1           0        1.690034    1.776997   -1.871367
      8          1           0        2.325514    3.887533   -0.655439
      9          1           0        1.195959    3.475162    0.643390
     10          1           0        0.583876    3.843480   -0.978031
     11          6           0        2.772762   -0.308527   -0.392658
     12          6           0        3.899009   -1.015189    0.362446
     13          6           0        4.018462   -2.494928   -0.003478
     14          1           0        1.822469   -0.817618   -0.180137
     15          1           0        2.945656   -0.407745   -1.473032
     16          1           0        3.723516   -0.914114    1.441149
     17          1           0        4.846689   -0.504072    0.149658
     18          1           0        4.217590   -2.612278   -1.073608
     19          1           0        3.088036   -3.024649    0.225221
     20          1           0        4.829674   -2.980596    0.547813
     21          6           0       -2.096235    2.140516    0.644688
     22          6           0       -2.852153    1.638023   -0.419553
     23          6           0       -2.869807    0.267065   -0.692884
     24          6           0       -2.116450   -0.576587    0.121975
     25          6           0       -1.353317   -0.106367    1.189595
     26          6           0       -1.350543    1.268255    1.444455
     27          1           0       -2.088300    3.206932    0.849844
     28          1           0       -3.432228    2.313083   -1.042331
     29          1           0       -3.446197   -0.148795   -1.510350
     30          1           0       -0.785212   -0.804058    1.792837
     31          1           0       -0.762563    1.655684    2.271632
     32          7           0       -2.127263   -2.029899   -0.157612
     33          8           0       -1.454992   -2.752256    0.575115
     34          8           0       -2.807804   -2.419129   -1.104185
 ---------------------------------------------------------------------

 SCF Done:  E(RHF) =  -669.534507278     A.U. after   15 cycles
 E2 =    -0.2094976410D+01 EUMP2 =    -0.67162948368838D+03

 The electronic state is 1-A.
 Alpha  occ. eigenvalues --  -20.60890 -20.60883 -15.85941 -11.31343 -11.27900
 Alpha  occ. eigenvalues --  -11.27885 -11.27597 -11.26911 -11.26879 -11.21673
 Alpha  occ. eigenvalues --  -11.21594 -11.21566 -11.21548 -11.21371 -11.20812
 Alpha  occ. eigenvalues --   -1.59960  -1.39513  -1.19519  -1.08901  -1.08515
 Alpha  occ. eigenvalues --   -1.04919  -1.03612  -0.96103  -0.95711  -0.87106
 Alpha  occ. eigenvalues --   -0.86301  -0.82548  -0.79685  -0.78318  -0.77600
 Alpha  occ. eigenvalues --   -0.72155  -0.71284  -0.70587  -0.65214  -0.65150
 Alpha  occ. eigenvalues --   -0.64896  -0.62251  -0.61075  -0.59497  -0.57693
 Alpha  occ. eigenvalues --   -0.55468  -0.55337  -0.53284  -0.52989  -0.52756
 Alpha  occ. eigenvalues --   -0.52499  -0.50016  -0.48917  -0.48910  -0.47974
 Alpha  occ. eigenvalues --   -0.46671  -0.45865  -0.45744  -0.44900  -0.43875
 Alpha  occ. eigenvalues --   -0.37445  -0.36455
 Alpha virt. eigenvalues --    0.04904   0.10997   0.16353   0.20219   0.23107
 Alpha virt. eigenvalues --    0.24119   0.25809   0.26687   0.27291   0.28254
 Alpha virt. eigenvalues --    0.29162   0.30100   0.31405   0.31635   0.32139

 Mulliken charges:
               1
     1  C   -0.296764
     2  C   -0.307221
     3  C   -0.473742
     4  H    0.141602
     5  H    0.149869
     6  H    0.165019
     7  H    0.152439
     8  H    0.157479
     9  H    0.144985
    10  H    0.155473
    11  C   -0.300627
    12  C   -0.299036
    13  C   -0.477516
    14  H    0.151892
    15  H    0.151527
    16  H    0.148880
    17  H    0.150929
    18  H    0.155519
    19  H    0.162770
    20  H    0.159471
    21  C   -0.167652
    22  C   -0.218140
    23  C   -0.170986
    24  C    0.160464
    25  C   -0.173553
    26  C   -0.219785
    27  H    0.227525
    28  H    0.224371
    29  H    0.276358
    30  H    0.275916
    31  H    0.224412
    32  N    0.488340
    33  O   -0.460772
    34  O   -0.459447
 Sum of Mulliken charges =  -0.00000

 Dipole moment (field-independent basis, Debye):
    X=             -0.0958    Y=              4.9955    Z=              0.9264  Tot=              5.0816
 Quadrupole moment (field-independent basis, Debye-Ang):
   XX=            -93.1306   YY=           -102.5073   ZZ=            -91.3880
   XY=            -11.5212   XZ=              0.0947   YZ=             -0.9594

 Normal termination of Gaussian 16 at Wed May  5 17:09:02 2021.
