 Gaussian 16, Revision A.03,
 Gaussian 16:  EM64L-G16RevA.03 25-Dec-2016

 -------------
 #p 6-31g* mp2
 -------------

 ------------------------------------------------------
 Input file generated by CHIRIPA (05-May-2021 14:57:25)
 ------------------------------------------------------
 Symbolic Z-matrix:
 Charge =  0 Multiplicity = 1

                         Standard orientation:
 ---------------------------------------------------------------------
 Center     Atomic      Atomic             Coordinates (Angstroms)
 Number     Number       Type             X           Y           Z
 ---------------------------------------------------------------------
      1          6           0        5.678578    0.228526   -0.454158
      2          6           0        4.902856   -0.704579   -1.149925
      3          6           0        3.571613   -0.931787   -0.788380
      4          6           0        3.045858   -0.205027    0.278715
      5          6           0        3.793171    0.731380    0.991425
      6          6           0        5.122240    0.942269    0.612416
      7          1           0        6.711876    0.398688   -0.741798
      8          1           0        5.332276   -1.260327   -1.978651
      9          1           0        2.948523   -1.648225   -1.309814
     10          1           0        3.337292    1.270136    1.813213
     11          1           0        5.722312    1.667553    1.154562
     12          7           0        1.637680   -0.436924    0.670711
     13          8           0        1.197970    0.216221    1.614477
     14          8           0        1.000325   -1.267438    0.026769
     15          6           0       -3.933124   -2.225416    0.248412
     16          6           0       -2.846061   -1.946253   -0.586383
     17          6           0       -2.474064   -0.624568   -0.849661
     18          6           0       -3.214602    0.398079   -0.258825
     19          6           0       -4.302585    0.152118    0.577289
     20          6           0       -4.656641   -1.177187    0.826565
     21          1           0       -4.215132   -3.255093    0.447494
     22          1           0       -2.282348   -2.758311   -1.036754
     23          1           0       -1.636834   -0.380058   -1.492062
     24          1           0       -4.845343    0.982796    1.011809
     25          1           0       -5.501323   -1.391013    1.475283
     26          7           0       -2.830282    1.801322   -0.530133
     27          8           0       -3.498888    2.684396    0.002578
     28          8           0       -1.867722    1.991538   -1.270359
 ---------------------------------------------------------------------

 SCF Done:  E(RHF) =  -868.339248294     A.U. after   16 cycles
 E2 =    -0.2599055861D+01 EUMP2 =    -0.87093830415551D+03

 The electronic state is 1-A.
 Alpha  occ. eigenvalues --  -20.61007 -20.60932 -20.59680 -20.59674 -15.86010
 Alpha  occ. eigenvalues --  -15.84729 -11.31230 -11.29867 -11.27819 -11.27757
 Alpha  occ. eigenvalues --  -11.27513 -11.26794 -11.26756 -11.26519 -11.26365
 Alpha  occ. eigenvalues --  -11.26245 -11.25525 -11.25379  -1.60024  -1.58750
 Alpha  occ. eigenvalues --   -1.39589  -1.38314  -1.19390  -1.18051  -1.08813
 Alpha  occ. eigenvalues --   -1.07511  -1.04779  -1.03424  -0.95675  -0.94374
 Alpha  occ. eigenvalues --   -0.86185  -0.84859  -0.82522  -0.81215  -0.77580
 Alpha  occ. eigenvalues --   -0.76269  -0.72252  -0.71322  -0.70969  -0.70511
 Alpha  occ. eigenvalues --   -0.70049  -0.69218  -0.65056  -0.64789  -0.63729
 Alpha  occ. eigenvalues --   -0.63471  -0.62134  -0.60789  -0.55293  -0.54020
 Alpha  occ. eigenvalues --   -0.53106  -0.52877  -0.51765  -0.51552  -0.48996
 Alpha  occ. eigenvalues --   -0.48968  -0.47721  -0.47703  -0.45024  -0.43771
 Alpha  occ. eigenvalues --   -0.37360  -0.36372  -0.36059  -0.34962
 Alpha virt. eigenvalues --    0.04941   0.06280   0.11285   0.12657   0.16459
 Alpha virt. eigenvalues --    0.17778   0.21398   0.22615   0.27313   0.28187
 Alpha virt. eigenvalues --    0.28597   0.29485   0.30972   0.32107   0.32499

 Mulliken charges:
               1
     1  C   -0.170170
     2  C   -0.218286
     3  C   -0.170183
     4  C    0.159871
     5  C   -0.169133
     6  C   -0.218344
     7  H    0.226067
     8  H    0.223046
     9  H    0.272055
    10  H    0.277405
    11  H    0.224525
    12  N    0.490926
    13  O   -0.454465
    14  O   -0.471329
    15  C   -0.171167
    16  C   -0.213981
    17  C   -0.154379
    18  C    0.157612
    19  C   -0.171228
    20  C   -0.219333
    21  H    0.220767
    22  H    0.222504
    23  H    0.276353
    24  H    0.271368
    25  H    0.218220
    26  N    0.489738
    27  O   -0.464957
    28  O   -0.463502
 Sum of Mulliken charges =  -0.00000

 Dipole moment (field-independent basis, Debye):
    X=              3.9934    Y=             -4.0995    Z=             -0.3780  Tot=              5.7355
 Quadrupole moment (field-independent basis, Debye-Ang):
   XX=            -64.9454   YY=           -107.7125   ZZ=           -102.6980
   XY=             16.3579   XZ=             -7.6278   YZ=              6.3157

 Normal termination of Gaussian 16 at Thu May  6 21:20:35 2021.
