 Gaussian 16, Revision A.03,
 Gaussian 16:  EM64L-G16RevA.03 25-Dec-2016

 -------------
 #p 6-31g* mp2
 -------------

 ------------------------------------------------------
 Input file generated by CHIRIPA (05-May-2021 14:51:09)
 ------------------------------------------------------
 Symbolic Z-matrix:
 Charge =  0 Multiplicity = 1

                         Standard orientation:
 ---------------------------------------------------------------------
 Center     Atomic      Atomic             Coordinates (Angstroms)
 Number     Number       Type             X           Y           Z
 ---------------------------------------------------------------------
      1          6           0       -2.834452    1.252499   -0.075944
      2          6           0       -1.684236    2.023125    0.572996
      3          6           0       -2.045148    3.477044    0.879030
      4          1           0       -3.131006    1.761203   -1.003425
      5          1           0       -3.708089    1.282059    0.589848
      6          1           0       -0.812593    1.990946   -0.093201
      7          1           0       -1.390258    1.512420    1.498941
      8          1           0       -2.899138    3.526357    1.562310
      9          1           0       -2.318190    4.007601   -0.038879
     10          1           0       -1.208653    4.009325    1.342510
     11          6           0       -2.488959   -0.202508   -0.387900
     12          6           0       -3.639175   -0.973135   -1.036840
     13          6           0       -3.278263   -2.427053   -1.342875
     14          1           0       -1.615321   -0.232069   -1.053692
     15          1           0       -2.192405   -0.711212    0.539581
     16          1           0       -3.933153   -0.462430   -1.962785
     17          1           0       -4.510818   -0.940956   -0.370643
     18          1           0       -3.005220   -2.957611   -0.424966
     19          1           0       -2.424273   -2.476367   -2.026154
     20          1           0       -4.114757   -2.959335   -1.806354
     21          6           0        1.944036   -0.624129    0.473903
     22          6           0        1.763310   -1.870199    1.341447
     23          6           0        0.322230   -2.054901    1.817858
     24          1           0        1.628496    0.260541    1.043759
     25          1           0        1.275211   -0.690911   -0.395356
     26          1           0        2.433282   -1.801735    2.208088
     27          1           0        2.079497   -2.751986    0.769525
     28          1           0       -0.356695   -2.148857    0.964140
     29          1           0       -0.000900   -1.193207    2.410875
     30          1           0        0.215668   -2.951547    2.436349
     31          6           0        3.379375   -0.425861   -0.010058
     32          6           0        3.560100    0.820209   -0.877602
     33          6           0        5.001181    1.004911   -1.354014
     34          1           0        4.048199   -0.359080    0.859199
     35          1           0        3.694915   -1.310532   -0.579915
     36          1           0        3.243914    1.701996   -0.305682
     37          1           0        2.890128    0.751745   -1.744243
     38          1           0        5.324311    0.143216   -1.947032
     39          1           0        5.680106    1.098866   -0.500296
     40          1           0        5.107743    1.901556   -1.972505
 ---------------------------------------------------------------------

 SCF Done:  E(RHF) =  -470.732864092     A.U. after   11 cycles
 E2 =    -0.1584134108D+01 EUMP2 =    -0.47231699819982D+03

 The electronic state is 1-A.
 Alpha  occ. eigenvalues --  -11.21605 -11.21581 -11.21573 -11.21561 -11.21377
 Alpha  occ. eigenvalues --  -11.21353 -11.21310 -11.21275 -11.21093 -11.21073
 Alpha  occ. eigenvalues --  -11.21053 -11.21006  -1.08436  -1.08372  -1.03524
 Alpha  occ. eigenvalues --   -1.03502  -0.95988  -0.95939  -0.87017  -0.86949
 Alpha  occ. eigenvalues --   -0.79632  -0.79548  -0.78401  -0.78016  -0.65049
 Alpha  occ. eigenvalues --   -0.65029  -0.60969  -0.60861  -0.59339  -0.59327
 Alpha  occ. eigenvalues --   -0.57667  -0.57490  -0.55296  -0.55210  -0.52673
 Alpha  occ. eigenvalues --   -0.52653  -0.52520  -0.52283  -0.49969  -0.49858
 Alpha  occ. eigenvalues --   -0.48041  -0.47861  -0.46698  -0.46526  -0.46135
 Alpha  occ. eigenvalues --   -0.45722  -0.45576  -0.45187  -0.43768  -0.43752
 Alpha virt. eigenvalues --    0.21122   0.23053   0.23260   0.23922   0.24751
 Alpha virt. eigenvalues --    0.26013   0.26943   0.27398   0.28838   0.29967
 Alpha virt. eigenvalues --    0.30273   0.31400   0.31729   0.31979   0.32109

 Mulliken charges:
               1
     1  C   -0.297983
     2  C   -0.301686
     3  C   -0.475704
     4  H    0.149219
     5  H    0.149232
     6  H    0.154020
     7  H    0.152394
     8  H    0.155032
     9  H    0.155191
    10  H    0.159812
    11  C   -0.305510
    12  C   -0.299193
    13  C   -0.477415
    14  H    0.149621
    15  H    0.158299
    16  H    0.151614
    17  H    0.151901
    18  H    0.156280
    19  H    0.154429
    20  H    0.160650
    21  C   -0.301100
    22  C   -0.299586
    23  C   -0.481754
    24  H    0.151819
    25  H    0.151158
    26  H    0.151550
    27  H    0.151760
    28  H    0.162626
    29  H    0.154641
    30  H    0.159383
    31  C   -0.298318
    32  C   -0.299619
    33  C   -0.475644
    34  H    0.149483
    35  H    0.149495
    36  H    0.151997
    37  H    0.151295
    38  H    0.155187
    39  H    0.155260
    40  H    0.160163
 Sum of Mulliken charges =  -0.00000

 Dipole moment (field-independent basis, Debye):
    X=             -0.0101    Y=             -0.0090    Z=              0.0060  Tot=              0.0148
 Quadrupole moment (field-independent basis, Debye-Ang):
   XX=            -85.6930   YY=            -85.6930   ZZ=            -83.5489
   XY=              0.1208   XZ=              0.2664   YZ=              0.0326

 Normal termination of Gaussian 16 at Wed May  5 22:59:33 2021.
