 Gaussian 16, Revision A.03,
 Gaussian 16:  EM64L-G16RevA.03 25-Dec-2016

 -------------
 #p 6-31g* mp2
 -------------

 ------------------------------------------------------
 Input file generated by CHIRIPA (05-May-2021 14:55:24)
 ------------------------------------------------------
 Symbolic Z-matrix:
 Charge =  0 Multiplicity = 1

                         Standard orientation:
 ---------------------------------------------------------------------
 Center     Atomic      Atomic             Coordinates (Angstroms)
 Number     Number       Type             X           Y           Z
 ---------------------------------------------------------------------
      1          6           0       -3.853679   -2.279088   -0.034146
      2          6           0       -4.106371   -1.440072   -1.124431
      3          6           0       -3.689724   -0.105690   -1.105029
      4          6           0       -3.019936    0.358629    0.025936
      5          6           0       -2.753310   -0.452537    1.127848
      6          6           0       -3.179145   -1.783517    1.086538
      7          1           0       -4.180909   -3.314347   -0.057728
      8          1           0       -4.630014   -1.822218   -1.996101
      9          1           0       -3.872234    0.565701   -1.935295
     10          1           0       -2.229107   -0.042913    1.982738
     11          1           0       -2.981527   -2.432817    1.934713
     12          7           0       -2.573988    1.769478    0.058073
     13          8           0       -1.985770    2.154327    1.066303
     14          8           0       -2.821115    2.463739   -0.925577
     15          6           0        4.602902   -0.385329   -0.372036
     16          6           0        5.867846    0.173766    0.280124
     17          6           0        7.146634   -0.283095   -0.422567
     18          1           0        4.651695   -1.482854   -0.370596
     19          1           0        4.574222   -0.075109   -1.425761
     20          1           0        5.893434   -0.136260    1.332666
     21          1           0        5.815947    1.270085    0.277304
     22          1           0        7.147545    0.039381   -1.468803
     23          1           0        7.225473   -1.374955   -0.407444
     24          1           0        8.038741    0.128181    0.059986
     25          6           0        3.316290    0.062504    0.319198
     26          6           0        2.051345   -0.496591   -0.332962
     27          6           0        0.772558   -0.039731    0.369729
     28          1           0        3.344970   -0.247716    1.372923
     29          1           0        3.267495    1.160029    0.317757
     30          1           0        2.103244   -1.592910   -0.330141
     31          1           0        2.025759   -0.186565   -1.385504
     32          1           0        0.693719    1.052129    0.354606
     33          1           0        0.771646   -0.362206    1.415965
     34          1           0       -0.119549   -0.451006   -0.112824
 ---------------------------------------------------------------------

 SCF Done:  E(RHF) =  -669.534879361     A.U. after   15 cycles
 E2 =    -0.2092994012D+01 EUMP2 =    -0.67162787337312D+03

 The electronic state is 1-A.
 Alpha  occ. eigenvalues --  -20.60811 -20.60794 -15.85827 -11.31153 -11.27768
 Alpha  occ. eigenvalues --  -11.27727 -11.27512 -11.26764 -11.26747 -11.21401
 Alpha  occ. eigenvalues --  -11.21318 -11.21170 -11.21077 -11.20913 -11.20637
 Alpha  occ. eigenvalues --   -1.59862  -1.39418  -1.19367  -1.08759  -1.08181
 Alpha  occ. eigenvalues --   -1.04766  -1.03280  -0.95749  -0.95580  -0.86774
 Alpha  occ. eigenvalues --   -0.86145  -0.82430  -0.79363  -0.77998  -0.77467
 Alpha  occ. eigenvalues --   -0.72061  -0.71177  -0.70473  -0.65015  -0.64815
 Alpha  occ. eigenvalues --   -0.64759  -0.62109  -0.60674  -0.59150  -0.57363
 Alpha  occ. eigenvalues --   -0.55273  -0.55008  -0.53366  -0.52858  -0.52236
 Alpha  occ. eigenvalues --   -0.52072  -0.49664  -0.48820  -0.48816  -0.47659
 Alpha  occ. eigenvalues --   -0.46392  -0.45557  -0.45469  -0.44744  -0.43544
 Alpha  occ. eigenvalues --   -0.37307  -0.36322
 Alpha virt. eigenvalues --    0.05028   0.11271   0.16523   0.21325   0.23105
 Alpha virt. eigenvalues --    0.24510   0.26619   0.27092   0.27706   0.27907
 Alpha virt. eigenvalues --    0.28750   0.30782   0.31498   0.31962   0.32040

 Mulliken charges:
               1
     1  C   -0.170745
     2  C   -0.218901
     3  C   -0.171779
     4  C    0.158562
     5  C   -0.168756
     6  C   -0.218300
     7  H    0.225628
     8  H    0.223362
     9  H    0.275583
    10  H    0.276844
    11  H    0.223461
    12  N    0.489780
    13  O   -0.459171
    14  O   -0.460429
    15  C   -0.298012
    16  C   -0.299575
    17  C   -0.475560
    18  H    0.147640
    19  H    0.149701
    20  H    0.151241
    21  H    0.153324
    22  H    0.155241
    23  H    0.154076
    24  H    0.159979
    25  C   -0.298538
    26  C   -0.299564
    27  C   -0.484654
    28  H    0.147945
    29  H    0.153545
    30  H    0.147348
    31  H    0.152292
    32  H    0.172764
    33  H    0.147919
    34  H    0.157747
 Sum of Mulliken charges =  -0.00000

 Dipole moment (field-independent basis, Debye):
    X=             -1.6561    Y=             -4.8544    Z=             -0.0954  Tot=              5.1300
 Quadrupole moment (field-independent basis, Debye-Ang):
   XX=            -86.5410   YY=            -98.2500   ZZ=            -90.5476
   XY=             14.7959   XZ=              2.7450   YZ=             -1.5227

 Normal termination of Gaussian 16 at Thu May  6 00:00:42 2021.
