 Gaussian 16, Revision A.03,
 Gaussian 16:  EM64L-G16RevA.03 25-Dec-2016

 -------------
 #p 6-31g* mp2
 -------------

 ------------------------------------------------------
 Input file generated by CHIRIPA (05-May-2021 14:57:22)
 ------------------------------------------------------
 Symbolic Z-matrix:
 Charge =  0 Multiplicity = 1

                         Standard orientation:
 ---------------------------------------------------------------------
 Center     Atomic      Atomic             Coordinates (Angstroms)
 Number     Number       Type             X           Y           Z
 ---------------------------------------------------------------------
      1          6           0        1.806726    2.456575    0.340947
      2          6           0        2.426902    2.179956   -0.881912
      3          6           0        3.174491    1.010654   -1.050406
      4          6           0        3.281551    0.136138    0.029895
      5          6           0        2.675450    0.383684    1.260608
      6          6           0        1.932757    1.559139    1.406426
      7          1           0        1.227883    3.367307    0.463030
      8          1           0        2.330736    2.875103   -1.711110
      9          1           0        3.665018    0.771749   -1.986208
     10          1           0        2.789350   -0.328396    2.068931
     11          1           0        1.452212    1.771370    2.357257
     12          7           0        4.070398   -1.105006   -0.136479
     13          8           0        4.149489   -1.859310    0.830685
     14          8           0        4.594668   -1.300010   -1.230897
     15          6           0       -5.487930    0.609885   -0.117311
     16          6           0       -4.382647    1.466558   -0.148678
     17          6           0       -3.083559    0.950959   -0.115910
     18          6           0       -2.925666   -0.432592   -0.051515
     19          6           0       -4.006770   -1.312046   -0.018936
     20          6           0       -5.296801   -0.774242   -0.052654
     21          1           0       -6.493575    1.019041   -0.143135
     22          1           0       -4.528072    2.541907   -0.198888
     23          1           0       -2.210137    1.591286   -0.139022
     24          1           0       -3.830099   -2.379613    0.031140
     25          1           0       -6.153317   -1.441944   -0.028172
     26          7           0       -1.555174   -0.990188   -0.016323
     27          8           0       -1.442837   -2.212809    0.040390
     28          8           0       -0.619268   -0.194053   -0.046119
 ---------------------------------------------------------------------

 SCF Done:  E(RHF) =  -868.336781524     A.U. after   16 cycles
 E2 =    -0.2600868295D+01 EUMP2 =    -0.87093764981901D+03

 The electronic state is 1-A.
 Alpha  occ. eigenvalues --  -20.61055 -20.61043 -20.59629 -20.59612 -15.86089
 Alpha  occ. eigenvalues --  -15.84673 -11.31539 -11.29917 -11.28160 -11.28077
 Alpha  occ. eigenvalues --  -11.27849 -11.27165 -11.27104 -11.26550 -11.26480
 Alpha  occ. eigenvalues --  -11.26375 -11.25628 -11.25558  -1.60127  -1.58692
 Alpha  occ. eigenvalues --   -1.39679  -1.38253  -1.19714  -1.18092  -1.09091
 Alpha  occ. eigenvalues --   -1.07557  -1.05130  -1.03524  -0.95916  -0.94413
 Alpha  occ. eigenvalues --   -0.86522  -0.84971  -0.82747  -0.81271  -0.77791
 Alpha  occ. eigenvalues --   -0.76298  -0.72321  -0.71457  -0.70918  -0.70817
 Alpha  occ. eigenvalues --   -0.69986  -0.69352  -0.65365  -0.65131  -0.63820
 Alpha  occ. eigenvalues --   -0.63628  -0.62482  -0.60926  -0.55615  -0.54166
 Alpha  occ. eigenvalues --   -0.53452  -0.53223  -0.51776  -0.51704  -0.49082
 Alpha  occ. eigenvalues --   -0.49034  -0.47667  -0.47659  -0.45078  -0.43688
 Alpha  occ. eigenvalues --   -0.37693  -0.36738  -0.36068  -0.35013
 Alpha virt. eigenvalues --    0.04736   0.06269   0.10917   0.12572   0.16224
 Alpha virt. eigenvalues --    0.17738   0.21003   0.22312   0.26867   0.27798
 Alpha virt. eigenvalues --    0.28268   0.29179   0.30658   0.31693   0.32369

 Mulliken charges:
               1
     1  C   -0.168014
     2  C   -0.216273
     3  C   -0.168879
     4  C    0.164404
     5  C   -0.158509
     6  C   -0.206580
     7  H    0.214501
     8  H    0.216114
     9  H    0.271478
    10  H    0.273012
    11  H    0.216065
    12  N    0.488628
    13  O   -0.461409
    14  O   -0.464618
    15  C   -0.170840
    16  C   -0.218180
    17  C   -0.171528
    18  C    0.158507
    19  C   -0.170631
    20  C   -0.218278
    21  H    0.226406
    22  H    0.222111
    23  H    0.270233
    24  H    0.277598
    25  H    0.224984
    26  N    0.489714
    27  O   -0.456647
    28  O   -0.463370
 Sum of Mulliken charges =  -0.00000

 Dipole moment (field-independent basis, Debye):
    X=             -7.8102    Y=              6.0809    Z=              0.5143  Tot=              9.9117
 Quadrupole moment (field-independent basis, Debye-Ang):
   XX=            -95.5183   YY=           -102.0349   ZZ=           -101.4596
   XY=             12.4824   XZ=              1.4612   YZ=             -1.4659

 Normal termination of Gaussian 16 at Thu May  6 14:34:24 2021.
