 Gaussian 16, Revision A.03,
 Gaussian 16:  EM64L-G16RevA.03 25-Dec-2016

 -------------
 #p 6-31g* mp2
 -------------

 ------------------------------------------------------
 Input file generated by CHIRIPA (05-May-2021 14:57:24)
 ------------------------------------------------------
 Symbolic Z-matrix:
 Charge =  0 Multiplicity = 1

                         Standard orientation:
 ---------------------------------------------------------------------
 Center     Atomic      Atomic             Coordinates (Angstroms)
 Number     Number       Type             X           Y           Z
 ---------------------------------------------------------------------
      1          6           0        1.421090    1.477675   -0.921603
      2          6           0        2.638365    2.068218   -0.566607
      3          6           0        3.733680    1.276763   -0.208232
      4          6           0        3.575816   -0.108268   -0.215748
      5          6           0        2.376022   -0.726407   -0.564584
      6          6           0        1.294028    0.084702   -0.919462
      7          1           0        0.575397    2.100130   -1.198638
      8          1           0        2.739935    3.149758   -0.567377
      9          1           0        4.687529    1.707678    0.070878
     10          1           0        2.305244   -1.807289   -0.554414
     11          1           0        0.349879   -0.376675   -1.194708
     12          7           0        4.728326   -0.956550    0.161796
     13          8           0        4.563521   -2.174443    0.147236
     14          8           0        5.774645   -0.387477    0.465126
     15          6           0       -1.327387    1.028278    1.280651
     16          6           0       -2.358113    1.833217    0.784469
     17          6           0       -3.503242    1.256878    0.226740
     18          6           0       -3.584875   -0.133998    0.181037
     19          6           0       -2.574886   -0.962849    0.667059
     20          6           0       -1.438866   -0.364730    1.220468
     21          1           0       -0.441362    1.484451    1.712230
     22          1           0       -2.274260    2.915322    0.829889
     23          1           0       -4.316151    1.856326   -0.164743
     24          1           0       -2.687163   -2.038632    0.607886
     25          1           0       -0.639958   -0.992342    1.605038
     26          7           0       -4.792350   -0.755671   -0.407120
     27          8           0       -4.840049   -1.983493   -0.435652
     28          8           0       -5.668206   -0.003343   -0.828447
 ---------------------------------------------------------------------

 SCF Done:  E(RHF) =  -868.336389517     A.U. after   16 cycles
 E2 =    -0.2603051981D+01 EUMP2 =    -0.87093944149733D+03

 The electronic state is 1-A.
 Alpha  occ. eigenvalues --  -20.61432 -20.61424 -20.61354 -20.61349 -15.86493
 Alpha  occ. eigenvalues --  -15.86409 -11.32008 -11.31890 -11.28621 -11.28589
 Alpha  occ. eigenvalues --  -11.28437 -11.28412 -11.28303 -11.28152 -11.27644
 Alpha  occ. eigenvalues --  -11.27558 -11.27509 -11.27380  -1.60506  -1.60428
 Alpha  occ. eigenvalues --   -1.40054  -1.39978  -1.20230  -1.20054  -1.09618
 Alpha  occ. eigenvalues --   -1.09386  -1.05657  -1.05447  -0.96402  -0.96213
 Alpha  occ. eigenvalues --   -0.87047  -0.86804  -0.83221  -0.83036  -0.78236
 Alpha  occ. eigenvalues --   -0.78088  -0.72701  -0.72620  -0.71839  -0.71758
 Alpha  occ. eigenvalues --   -0.71344  -0.71062  -0.65843  -0.65703  -0.65631
 Alpha  occ. eigenvalues --   -0.65409  -0.62974  -0.62776  -0.56115  -0.55908
 Alpha  occ. eigenvalues --   -0.54304  -0.53711  -0.53641  -0.53337  -0.49473
 Alpha  occ. eigenvalues --   -0.49450  -0.49388  -0.49372  -0.45427  -0.45359
 Alpha  occ. eigenvalues --   -0.38825  -0.37628  -0.37456  -0.36639
 Alpha virt. eigenvalues --    0.04007   0.04642   0.09816   0.11074   0.15320
 Alpha virt. eigenvalues --    0.16309   0.20267   0.21197   0.25955   0.26861
 Alpha virt. eigenvalues --    0.27491   0.28046   0.30155   0.30563   0.31747

 Mulliken charges:
               1
     1  C   -0.177570
     2  C   -0.221234
     3  C   -0.171555
     4  C    0.159456
     5  C   -0.178274
     6  C   -0.218513
     7  H    0.227221
     8  H    0.224097
     9  H    0.277247
    10  H    0.276059
    11  H    0.230740
    12  N    0.487867
    13  O   -0.459199
    14  O   -0.458647
    15  C   -0.170663
    16  C   -0.226080
    17  C   -0.170358
    18  C    0.158253
    19  C   -0.175582
    20  C   -0.224054
    21  H    0.231321
    22  H    0.223537
    23  H    0.277796
    24  H    0.278344
    25  H    0.228722
    26  N    0.488039
    27  O   -0.458261
    28  O   -0.458710
 Sum of Mulliken charges =  -0.00000

 Dipole moment (field-independent basis, Debye):
    X=              0.1415    Y=              5.1339    Z=              0.7672  Tot=              5.1929
 Quadrupole moment (field-independent basis, Debye-Ang):
   XX=           -162.6471   YY=            -98.8596   ZZ=           -104.6388
   XY=              3.4110   XZ=             -9.8077   YZ=             -0.6490

 Normal termination of Gaussian 16 at Thu May  6 21:14:11 2021.
