 Gaussian 16, Revision A.03,
 Gaussian 16:  EM64L-G16RevA.03 25-Dec-2016

 -------------
 #p 6-31g* mp2
 -------------

 ------------------------------------------------------
 Input file generated by CHIRIPA (05-May-2021 14:53:17)
 ------------------------------------------------------
 Symbolic Z-matrix:
 Charge =  0 Multiplicity = 1

                         Standard orientation:
 ---------------------------------------------------------------------
 Center     Atomic      Atomic             Coordinates (Angstroms)
 Number     Number       Type             X           Y           Z
 ---------------------------------------------------------------------
      1          6           0        4.379473   -0.053402   -0.545674
      2          6           0        5.892349    0.039774   -0.344407
      3          6           0        6.616911    0.610415   -1.563904
      4          1           0        4.170701   -0.679292   -1.424093
      5          1           0        3.984610    0.946429   -0.773307
      6          1           0        6.284044   -0.959704   -0.115857
      7          1           0        6.097538    0.665358    0.533749
      8          1           0        6.254001    1.618042   -1.791028
      9          1           0        6.441567   -0.016253   -2.444325
     10          1           0        7.697238    0.668217   -1.398332
     11          6           0        3.641166   -0.622023    0.664823
     12          6           0        2.128290   -0.715199    0.463556
     13          6           0        1.403728   -1.285841    1.683053
     14          1           0        4.036029   -1.621854    0.892455
     15          1           0        3.849938    0.003867    1.543242
     16          1           0        1.923101   -1.340783   -0.414600
     17          1           0        1.736595    0.284279    0.235006
     18          1           0        1.579072   -0.659172    2.563474
     19          1           0        1.766638   -2.293467    1.910177
     20          1           0        0.323401   -1.343642    1.517481
     21          6           0       -1.718869    1.941420    1.199130
     22          6           0       -2.476607    2.346870    0.095515
     23          6           0       -3.263811    1.425976   -0.602205
     24          6           0       -3.269781    0.101656   -0.166969
     25          6           0       -2.525798   -0.333036    0.928851
     26          6           0       -1.745836    0.605118    1.611549
     27          1           0       -1.110163    2.663496    1.735301
     28          1           0       -2.457597    3.384006   -0.227026
     29          1           0       -3.860106    1.712745   -1.459884
     30          1           0       -2.565114   -1.373796    1.226662
     31          1           0       -1.158382    0.287398    2.468285
     32          7           0       -4.099326   -0.882389   -0.897662
     33          8           0       -4.087391   -2.043299   -0.494199
     34          8           0       -4.745749   -0.474141   -1.860007
 ---------------------------------------------------------------------

 SCF Done:  E(RHF) =  -669.534580673     A.U. after   15 cycles
 E2 =    -0.2092392644D+01 EUMP2 =    -0.67162697331692D+03

 The electronic state is 1-A.
 Alpha  occ. eigenvalues --  -20.60779 -20.60773 -15.85831 -11.31215 -11.27764
 Alpha  occ. eigenvalues --  -11.27760 -11.27504 -11.26802 -11.26745 -11.22091
 Alpha  occ. eigenvalues --  -11.21903 -11.21815 -11.21743 -11.21714 -11.21325
 Alpha  occ. eigenvalues --   -1.59853  -1.39406  -1.19382  -1.08840  -1.08767
 Alpha  occ. eigenvalues --   -1.04799  -1.03952  -0.96431  -0.95606  -0.87467
 Alpha  occ. eigenvalues --   -0.86172  -0.82445  -0.80021  -0.78627  -0.77488
 Alpha  occ. eigenvalues --   -0.72049  -0.71176  -0.70486  -0.65477  -0.65038
 Alpha  occ. eigenvalues --   -0.64800  -0.62214  -0.61340  -0.59779  -0.58027
 Alpha  occ. eigenvalues --   -0.55732  -0.55275  -0.53420  -0.53036  -0.52851
 Alpha  occ. eigenvalues --   -0.52606  -0.50357  -0.48808  -0.48804  -0.48332
 Alpha  occ. eigenvalues --   -0.47040  -0.46175  -0.46092  -0.44809  -0.44214
 Alpha  occ. eigenvalues --   -0.37354  -0.36330
 Alpha virt. eigenvalues --    0.05011   0.11225   0.16407   0.20777   0.22643
 Alpha virt. eigenvalues --    0.24079   0.26145   0.26428   0.27000   0.27708
 Alpha virt. eigenvalues --    0.28785   0.30428   0.31128   0.31286   0.31966

 Mulliken charges:
               1
     1  C   -0.298414
     2  C   -0.299870
     3  C   -0.475868
     4  H    0.151794
     5  H    0.148360
     6  H    0.152953
     7  H    0.151200
     8  H    0.154726
     9  H    0.156367
    10  H    0.161017
    11  C   -0.298773
    12  C   -0.298815
    13  C   -0.480448
    14  H    0.151335
    15  H    0.147689
    16  H    0.156766
    17  H    0.150608
    18  H    0.148357
    19  H    0.159439
    20  H    0.158655
    21  C   -0.173621
    22  C   -0.218168
    23  C   -0.171376
    24  C    0.158416
    25  C   -0.172548
    26  C   -0.216088
    27  H    0.225500
    28  H    0.223481
    29  H    0.275649
    30  H    0.275752
    31  H    0.228425
    32  N    0.488103
    33  O   -0.460293
    34  O   -0.460310
 Sum of Mulliken charges =  -0.00000

 Dipole moment (field-independent basis, Debye):
    X=              2.9829    Y=              3.4586    Z=              2.5101  Tot=              5.2115
 Quadrupole moment (field-independent basis, Debye-Ang):
   XX=           -114.3655   YY=            -90.9538   ZZ=            -94.7554
   XY=            -12.8733   XZ=             -7.5455   YZ=             -2.1536

 Normal termination of Gaussian 16 at Wed May  5 23:35:58 2021.
