 Gaussian 16, Revision A.03,
 Gaussian 16:  EM64L-G16RevA.03 25-Dec-2016

 -------------
 #p 6-31g* mp2
 -------------

 ------------------------------------------------------
 Input file generated by CHIRIPA (05-May-2021 14:53:17)
 ------------------------------------------------------
 Symbolic Z-matrix:
 Charge =  0 Multiplicity = 1

                         Standard orientation:
 ---------------------------------------------------------------------
 Center     Atomic      Atomic             Coordinates (Angstroms)
 Number     Number       Type             X           Y           Z
 ---------------------------------------------------------------------
      1          6           0        1.990780    1.319476    0.239980
      2          6           0        1.556523    2.349497   -0.803315
      3          6           0        0.406728    3.233178   -0.318679
      4          1           0        1.129964    0.690662    0.505565
      5          1           0        2.291062    1.842453    1.158523
      6          1           0        1.258462    1.824806   -1.720089
      7          1           0        2.418519    2.975808   -1.066588
      8          1           0        0.696578    3.782379    0.582968
      9          1           0       -0.470071    2.624837   -0.074246
     10          1           0        0.112268    3.962222   -1.080026
     11          6           0        3.139387    0.428564   -0.229813
     12          6           0        3.573644   -0.601457    0.813481
     13          6           0        4.723439   -1.485138    0.328846
     14          1           0        2.839105   -0.094412   -1.148356
     15          1           0        4.000203    1.057378   -0.495398
     16          1           0        2.711648   -1.227768    1.076755
     17          1           0        3.871705   -0.076766    1.730256
     18          1           0        5.600238   -0.876797    0.084413
     19          1           0        4.433589   -2.034338   -0.572801
     20          1           0        5.017899   -2.214181    1.090193
     21          6           0       -3.092164    1.468388    0.740359
     22          6           0       -2.745744    0.496017    1.684292
     23          6           0       -2.142352   -0.699662    1.283269
     24          6           0       -1.898769   -0.890800   -0.075930
     25          6           0       -2.232260    0.058862   -1.040408
     26          6           0       -2.834769    1.247097   -0.616586
     27          1           0       -3.560550    2.394329    1.060739
     28          1           0       -2.944449    0.665161    2.738783
     29          1           0       -1.863881   -1.469323    1.992840
     30          1           0       -2.021642   -0.138342   -2.084520
     31          1           0       -3.102725    2.000484   -1.351877
     32          7           0       -1.260452   -2.152671   -0.512543
     33          8           0       -1.056441   -2.296925   -1.715959
     34          8           0       -0.976237   -2.973579    0.356921
 ---------------------------------------------------------------------

 SCF Done:  E(RHF) =  -669.535015039     A.U. after   15 cycles
 E2 =    -0.2094016423D+01 EUMP2 =    -0.67162903146237D+03

 The electronic state is 1-A.
 Alpha  occ. eigenvalues --  -20.60914 -20.60909 -15.85968 -11.31366 -11.27914
 Alpha  occ. eigenvalues --  -11.27894 -11.27621 -11.26921 -11.26895 -11.21596
 Alpha  occ. eigenvalues --  -11.21260 -11.21209 -11.21093 -11.21068 -11.20613
 Alpha  occ. eigenvalues --   -1.59990  -1.39541  -1.19532  -1.08919  -1.08230
 Alpha  occ. eigenvalues --   -1.04925  -1.03330  -0.95803  -0.95735  -0.86825
 Alpha  occ. eigenvalues --   -0.86309  -0.82566  -0.79420  -0.78028  -0.77616
 Alpha  occ. eigenvalues --   -0.72181  -0.71317  -0.70606  -0.65168  -0.64918
 Alpha  occ. eigenvalues --   -0.64861  -0.62258  -0.60759  -0.59186  -0.57412
 Alpha  occ. eigenvalues --   -0.55403  -0.55174  -0.53293  -0.52999  -0.52499
 Alpha  occ. eigenvalues --   -0.52175  -0.49726  -0.48943  -0.48936  -0.47710
 Alpha  occ. eigenvalues --   -0.46419  -0.45559  -0.45465  -0.44936  -0.43593
 Alpha  occ. eigenvalues --   -0.37443  -0.36475
 Alpha virt. eigenvalues --    0.04899   0.11095   0.16372   0.21203   0.22888
 Alpha virt. eigenvalues --    0.24523   0.26601   0.27080   0.27585   0.28144
 Alpha virt. eigenvalues --    0.28471   0.30874   0.31645   0.31838   0.32173

 Mulliken charges:
               1
     1  C   -0.299368
     2  C   -0.297782
     3  C   -0.486177
     4  H    0.148835
     5  H    0.147496
     6  H    0.150911
     7  H    0.151981
     8  H    0.152659
     9  H    0.164272
    10  H    0.154124
    11  C   -0.299576
    12  C   -0.300664
    13  C   -0.475924
    14  H    0.154344
    15  H    0.148091
    16  H    0.157205
    17  H    0.148609
    18  H    0.152556
    19  H    0.159646
    20  H    0.160394
    21  C   -0.170682
    22  C   -0.216590
    23  C   -0.172053
    24  C    0.159994
    25  C   -0.170463
    26  C   -0.219966
    27  H    0.227442
    28  H    0.224656
    29  H    0.276442
    30  H    0.276275
    31  H    0.225786
    32  N    0.487612
    33  O   -0.460053
    34  O   -0.460031
 Sum of Mulliken charges =  -0.00000

 Dipole moment (field-independent basis, Debye):
    X=             -2.3893    Y=              4.2808    Z=              1.5447  Tot=              5.1401
 Quadrupole moment (field-independent basis, Debye-Ang):
   XX=            -86.9782   YY=           -103.3976   ZZ=            -90.4051
   XY=             -6.0125   XZ=             -2.3333   YZ=             -3.2125

 Normal termination of Gaussian 16 at Wed May  5 17:16:12 2021.
