 Gaussian 16, Revision A.03,
 Gaussian 16:  EM64L-G16RevA.03 25-Dec-2016

 -------------
 #p 6-31g* mp2
 -------------

 ------------------------------------------------------
 Input file generated by CHIRIPA (05-May-2021 14:57:25)
 ------------------------------------------------------
 Symbolic Z-matrix:
 Charge =  0 Multiplicity = 1

                         Standard orientation:
 ---------------------------------------------------------------------
 Center     Atomic      Atomic             Coordinates (Angstroms)
 Number     Number       Type             X           Y           Z
 ---------------------------------------------------------------------
      1          6           0        3.897064   -2.289637   -0.752032
      2          6           0        2.604743   -1.758621   -0.818737
      3          6           0        2.371201   -0.417001   -0.502409
      4          6           0        3.457993    0.368546   -0.121502
      5          6           0        4.757100   -0.131288   -0.045491
      6          6           0        4.967231   -1.475711   -0.366302
      7          1           0        4.069391   -3.332929   -0.999504
      8          1           0        1.771736   -2.388379   -1.117984
      9          1           0        1.380909    0.019886   -0.545622
     10          1           0        5.567448    0.521228    0.256132
     11          1           0        5.971931   -1.885402   -0.313616
     12          7           0        3.223145    1.790342    0.215754
     13          8           0        4.197524    2.461521    0.548532
     14          8           0        2.069139    2.206645    0.140930
     15          6           0       -1.516595   -1.174901    1.344171
     16          6           0       -1.465018    0.161752    0.935247
     17          6           0       -2.556209    0.748764    0.287738
     18          6           0       -3.688128   -0.033607    0.064256
     19          6           0       -3.769988   -1.367858    0.459684
     20          6           0       -2.666888   -1.934101    1.105505
     21          1           0       -0.664306   -1.622839    1.846516
     22          1           0       -0.572994    0.753759    1.119275
     23          1           0       -2.543168    1.781341   -0.039419
     24          1           0       -4.672989   -1.932698    0.262293
     25          1           0       -2.709762   -2.972396    1.421971
     26          7           0       -4.849627    0.576843   -0.620339
     27          8           0       -5.835210   -0.133787   -0.805457
     28          8           0       -4.752434    1.754385   -0.958844
 ---------------------------------------------------------------------

 SCF Done:  E(RHF) =  -868.339041528     A.U. after   16 cycles
 E2 =    -0.2600073298D+01 EUMP2 =    -0.87093911482643D+03

 The electronic state is 1-A.
 Alpha  occ. eigenvalues --  -20.61669 -20.61616 -20.60755 -20.60740 -15.86677
 Alpha  occ. eigenvalues --  -15.85803 -11.31948 -11.31230 -11.28511 -11.28469
 Alpha  occ. eigenvalues --  -11.28202 -11.27843 -11.27735 -11.27599 -11.27500
 Alpha  occ. eigenvalues --  -11.27461 -11.26890 -11.26706  -1.60700  -1.59825
 Alpha  occ. eigenvalues --   -1.40262  -1.39375  -1.20107  -1.19416  -1.09514
 Alpha  occ. eigenvalues --   -1.08813  -1.05494  -1.04802  -0.96366  -0.95630
 Alpha  occ. eigenvalues --   -0.86900  -0.86203  -0.83201  -0.82435  -0.78278
 Alpha  occ. eigenvalues --   -0.77458  -0.72897  -0.72023  -0.72009  -0.71209
 Alpha  occ. eigenvalues --   -0.71150  -0.70530  -0.65758  -0.65511  -0.65056
 Alpha  occ. eigenvalues --   -0.64764  -0.62853  -0.62083  -0.55983  -0.55339
 Alpha  occ. eigenvalues --   -0.53834  -0.53605  -0.53144  -0.52838  -0.49660
 Alpha  occ. eigenvalues --   -0.49631  -0.48784  -0.48769  -0.45679  -0.44766
 Alpha  occ. eigenvalues --   -0.38077  -0.37471  -0.37081  -0.36412
 Alpha virt. eigenvalues --    0.04217   0.05036   0.10492   0.11095   0.15728
 Alpha virt. eigenvalues --    0.16462   0.20375   0.21740   0.26154   0.27002
 Alpha virt. eigenvalues --    0.28117   0.28615   0.29928   0.31071   0.31971

 Mulliken charges:
               1
     1  C   -0.170320
     2  C   -0.221841
     3  C   -0.178291
     4  C    0.158519
     5  C   -0.170048
     6  C   -0.218318
     7  H    0.227782
     8  H    0.225629
     9  H    0.276407
    10  H    0.277511
    11  H    0.226062
    12  N    0.489527
    13  O   -0.454625
    14  O   -0.468020
    15  C   -0.176707
    16  C   -0.234224
    17  C   -0.171951
    18  C    0.158439
    19  C   -0.171250
    20  C   -0.219232
    21  H    0.224505
    22  H    0.242444
    23  H    0.281967
    24  H    0.275447
    25  H    0.221751
    26  N    0.487900
    27  O   -0.461273
    28  O   -0.457792
 Sum of Mulliken charges =  -0.00000

 Dipole moment (field-independent basis, Debye):
    X=              5.1161    Y=             -7.0581    Z=              1.1964  Tot=              8.7990
 Quadrupole moment (field-independent basis, Debye-Ang):
   XX=           -122.6022   YY=           -105.1240   ZZ=           -105.6292
   XY=             -6.6140   XZ=            -12.1255   YZ=             -0.0940

 Normal termination of Gaussian 16 at Thu May  6 00:22:06 2021.
