 Gaussian 16, Revision A.03,
 Gaussian 16:  EM64L-G16RevA.03 25-Dec-2016

 -------------
 #p 6-31g* mp2
 -------------

 ------------------------------------------------------
 Input file generated by CHIRIPA (05-May-2021 14:51:12)
 ------------------------------------------------------
 Symbolic Z-matrix:
 Charge =  0 Multiplicity = 1

                         Standard orientation:
 ---------------------------------------------------------------------
 Center     Atomic      Atomic             Coordinates (Angstroms)
 Number     Number       Type             X           Y           Z
 ---------------------------------------------------------------------
      1          6           0        4.260952   -0.357750    0.334739
      2          6           0        5.288625   -0.025940   -0.747747
      3          6           0        6.716137   -0.391046   -0.339455
      4          1           0        4.526755    0.173495    1.258900
      5          1           0        4.314431   -1.430905    0.564680
      6          1           0        5.232267    1.046013   -0.976564
      7          1           0        5.020237   -0.557886   -1.669494
      8          1           0        6.794876   -1.462846   -0.130540
      9          1           0        7.008111    0.150165    0.566327
     10          1           0        7.434455   -0.145404   -1.127833
     11          6           0        2.829202    0.001486   -0.058667
     12          6           0        1.801529   -0.330324    1.023819
     13          6           0        0.374017    0.034782    0.615527
     14          1           0        2.775723    1.074641   -0.288608
     15          1           0        2.563399   -0.529759   -0.982828
     16          1           0        2.069917    0.201622    1.945566
     17          1           0        1.857887   -1.402277    1.252635
     18          1           0        0.082043   -0.506429   -0.290255
     19          1           0        0.295278    1.106582    0.406612
     20          1           0       -0.344301   -0.210860    1.403905
     21          6           0       -3.355734    0.810070    0.246978
     22          6           0       -2.950235    1.973328   -0.658773
     23          6           0       -2.574244    3.230451    0.126126
     24          1           0       -4.203147    1.119871    0.873766
     25          1           0       -2.527380    0.581771    0.931890
     26          1           0       -3.778590    2.198459   -1.342702
     27          1           0       -2.103813    1.660659   -1.283612
     28          1           0       -1.732676    3.028629    0.796674
     29          1           0       -3.416969    3.569486    0.737248
     30          1           0       -2.287700    4.049496   -0.540894
     31          6           0       -3.734419   -0.453806   -0.523050
     32          6           0       -4.139920   -1.617064    0.382701
     33          6           0       -4.515910   -2.874187   -0.402198
     34          1           0       -4.562773   -0.225507   -1.207962
     35          1           0       -2.887007   -0.763607   -1.149837
     36          1           0       -4.986341   -1.304395    1.007541
     37          1           0       -3.311564   -1.842195    1.066631
     38          1           0       -3.673184   -3.213222   -1.013319
     39          1           0       -5.357477   -2.672366   -1.072746
     40          1           0       -4.802454   -3.693232    0.264823
 ---------------------------------------------------------------------

 SCF Done:  E(RHF) =  -470.732738305     A.U. after   11 cycles
 E2 =    -0.1583696339D+01 EUMP2 =    -0.47231643464436D+03

 The electronic state is 1-A.
 Alpha  occ. eigenvalues --  -11.21689 -11.21639 -11.21542 -11.21480 -11.21467
 Alpha  occ. eigenvalues --  -11.21404 -11.21287 -11.21209 -11.21175 -11.21100
 Alpha  occ. eigenvalues --  -11.21032 -11.21001  -1.08500  -1.08321  -1.03612
 Alpha  occ. eigenvalues --   -1.03442  -0.96070  -0.95892  -0.87102  -0.86903
 Alpha  occ. eigenvalues --   -0.79687  -0.79505  -0.78309  -0.78135  -0.65126
 Alpha  occ. eigenvalues --   -0.64969  -0.61069  -0.60797  -0.59451  -0.59259
 Alpha  occ. eigenvalues --   -0.57692  -0.57492  -0.55435  -0.55112  -0.52802
 Alpha  occ. eigenvalues --   -0.52602  -0.52486  -0.52292  -0.49999  -0.49831
 Alpha  occ. eigenvalues --   -0.48005  -0.47817  -0.46700  -0.46538  -0.45878
 Alpha  occ. eigenvalues --   -0.45777  -0.45656  -0.45590  -0.43765  -0.43680
 Alpha virt. eigenvalues --    0.20560   0.22967   0.23770   0.24502   0.25913
 Alpha virt. eigenvalues --    0.26106   0.26676   0.27599   0.27789   0.29465
 Alpha virt. eigenvalues --    0.30557   0.31284   0.31749   0.31957   0.32295

 Mulliken charges:
               1
     1  C   -0.298353
     2  C   -0.299680
     3  C   -0.475744
     4  H    0.149817
     5  H    0.149642
     6  H    0.152055
     7  H    0.151991
     8  H    0.155235
     9  H    0.155260
    10  H    0.160404
    11  C   -0.298825
    12  C   -0.300368
    13  C   -0.480723
    14  H    0.149789
    15  H    0.149631
    16  H    0.152379
    17  H    0.152237
    18  H    0.156179
    19  H    0.158863
    20  H    0.161757
    21  C   -0.303739
    22  C   -0.300087
    23  C   -0.477803
    24  H    0.148390
    25  H    0.158191
    26  H    0.151240
    27  H    0.153345
    28  H    0.156236
    29  H    0.154990
    30  H    0.159591
    31  C   -0.298719
    32  C   -0.299831
    33  C   -0.475552
    34  H    0.148989
    35  H    0.150009
    36  H    0.151767
    37  H    0.151534
    38  H    0.154827
    39  H    0.155132
    40  H    0.159943
 Sum of Mulliken charges =  -0.00000

 Dipole moment (field-independent basis, Debye):
    X=              0.0697    Y=             -0.0086    Z=              0.0139  Tot=              0.0716
 Quadrupole moment (field-independent basis, Debye-Ang):
   XX=            -85.2836   YY=            -84.9438   ZZ=            -84.8384
   XY=             -0.2215   XZ=             -0.2277   YZ=              0.0011

 Normal termination of Gaussian 16 at Wed May  5 19:55:18 2021.
