 Gaussian 16, Revision A.03,
 Gaussian 16:  EM64L-G16RevA.03 25-Dec-2016

 -------------
 #p 6-31g* mp2
 -------------

 ------------------------------------------------------
 Input file generated by CHIRIPA (05-May-2021 14:55:20)
 ------------------------------------------------------
 Symbolic Z-matrix:
 Charge =  0 Multiplicity = 1

                         Standard orientation:
 ---------------------------------------------------------------------
 Center     Atomic      Atomic             Coordinates (Angstroms)
 Number     Number       Type             X           Y           Z
 ---------------------------------------------------------------------
      1          6           0       -1.588730   -1.432195    1.894784
      2          6           0       -0.876523   -0.833286    0.850471
      3          6           0       -1.547396   -0.132116   -0.155928
      4          6           0       -2.937219   -0.049286   -0.086486
      5          6           0       -3.674972   -0.635170    0.941012
      6          6           0       -2.983223   -1.331403    1.936648
      7          1           0       -1.059472   -1.974963    2.672399
      8          1           0        0.206500   -0.909935    0.815394
      9          1           0       -1.020880    0.341090   -0.975851
     10          1           0       -4.754139   -0.541619    0.948951
     11          1           0       -3.538937   -1.795523    2.746475
     12          7           0       -3.658492    0.690398   -1.146218
     13          8           0       -4.883302    0.748898   -1.062221
     14          8           0       -2.985359    1.197656   -2.040767
     15          6           0        3.846410    0.814490    0.301737
     16          6           0        2.862330    1.984772    0.305463
     17          6           0        3.354381    3.168256    1.139157
     18          1           0        4.022341    0.488343    1.335963
     19          1           0        4.814733    1.159977   -0.086058
     20          1           0        1.895751    1.636844    0.691840
     21          1           0        2.688575    2.308046   -0.728905
     22          1           0        4.307306    3.542811    0.751547
     23          1           0        3.509978    2.867796    2.180364
     24          1           0        2.635666    3.993595    1.128003
     25          6           0        3.368551   -0.376231   -0.527455
     26          6           0        4.352631   -1.546512   -0.531181
     27          6           0        3.860581   -2.729997   -1.364875
     28          1           0        2.400229   -0.721719   -0.139659
     29          1           0        3.192621   -0.050084   -1.561681
     30          1           0        4.526387   -1.869787    0.503187
     31          1           0        5.319209   -1.198585   -0.917558
     32          1           0        3.704983   -2.429537   -2.406082
     33          1           0        2.907654   -3.104552   -0.977264
     34          1           0        4.579296   -3.555336   -1.353721
 ---------------------------------------------------------------------

 SCF Done:  E(RHF) =  -669.535569912     A.U. after   15 cycles
 E2 =    -0.2091543081D+01 EUMP2 =    -0.67162711299297D+03

 The electronic state is 1-A.
 Alpha  occ. eigenvalues --  -20.60738 -20.60733 -15.85792 -11.31158 -11.27740
 Alpha  occ. eigenvalues --  -11.27722 -11.27485 -11.26754 -11.26728 -11.22311
 Alpha  occ. eigenvalues --  -11.22251 -11.22217 -11.22052 -11.21674 -11.21511
 Alpha  occ. eigenvalues --   -1.59814  -1.39367  -1.19336  -1.09149  -1.08732
 Alpha  occ. eigenvalues --   -1.04740  -1.04148  -0.96597  -0.95565  -0.87607
 Alpha  occ. eigenvalues --   -0.86141  -0.82400  -0.80218  -0.78989  -0.77438
 Alpha  occ. eigenvalues --   -0.72010  -0.71137  -0.70446  -0.65841  -0.64988
 Alpha  occ. eigenvalues --   -0.64718  -0.62089  -0.61544  -0.59960  -0.58206
 Alpha  occ. eigenvalues --   -0.55899  -0.55246  -0.53253  -0.53076  -0.53038
 Alpha  occ. eigenvalues --   -0.52813  -0.50537  -0.48774  -0.48764  -0.48526
 Alpha  occ. eigenvalues --   -0.47265  -0.46492  -0.46427  -0.44772  -0.44434
 Alpha  occ. eigenvalues --   -0.37322  -0.36340
 Alpha virt. eigenvalues --    0.05082   0.11298   0.16516   0.18929   0.22820
 Alpha virt. eigenvalues --    0.23713   0.24519   0.26293   0.27379   0.28276
 Alpha virt. eigenvalues --    0.29616   0.30733   0.31276   0.31408   0.31929

 Mulliken charges:
               1
     1  C   -0.172498
     2  C   -0.227018
     3  C   -0.173879
     4  C    0.158554
     5  C   -0.170923
     6  C   -0.218522
     7  H    0.226019
     8  H    0.235103
     9  H    0.276611
    10  H    0.275571
    11  H    0.223287
    12  N    0.488156
    13  O   -0.460709
    14  O   -0.460248
    15  C   -0.298330
    16  C   -0.301705
    17  C   -0.476027
    18  H    0.148835
    19  H    0.153680
    20  H    0.146543
    21  H    0.155846
    22  H    0.157241
    23  H    0.154747
    24  H    0.163919
    25  C   -0.304307
    26  C   -0.299631
    27  C   -0.475933
    28  H    0.140727
    29  H    0.154655
    30  H    0.151267
    31  H    0.155826
    32  H    0.158316
    33  H    0.151944
    34  H    0.162883
 Sum of Mulliken charges =  -0.00000

 Dipole moment (field-independent basis, Debye):
    X=              2.7236    Y=             -2.5423    Z=              3.6731  Tot=              5.2319
 Quadrupole moment (field-independent basis, Debye-Ang):
   XX=           -105.0471   YY=            -95.4545   ZZ=            -94.5036
   XY=              8.7459   XZ=            -14.3041   YZ=             -1.3607

 Normal termination of Gaussian 16 at Thu May  6 17:27:26 2021.
