 Gaussian 16, Revision A.03,
 Gaussian 16:  EM64L-G16RevA.03 25-Dec-2016

 -------------
 #p 6-31g* mp2
 -------------

 ------------------------------------------------------
 Input file generated by CHIRIPA (05-May-2021 14:57:22)
 ------------------------------------------------------
 Symbolic Z-matrix:
 Charge =  0 Multiplicity = 1

                         Standard orientation:
 ---------------------------------------------------------------------
 Center     Atomic      Atomic             Coordinates (Angstroms)
 Number     Number       Type             X           Y           Z
 ---------------------------------------------------------------------
      1          6           0       -1.746998    2.033085    1.248331
      2          6           0       -2.370827    2.273381    0.019666
      3          6           0       -3.099151    1.263627   -0.616327
      4          6           0       -3.183431    0.019820    0.007477
      5          6           0       -2.573115   -0.250460    1.231304
      6          6           0       -1.849951    0.774151    1.849169
      7          1           0       -1.183223    2.823256    1.735344
      8          1           0       -2.292564    3.250115   -0.449281
      9          1           0       -3.591998    1.422420   -1.567802
     10          1           0       -2.668961   -1.234350    1.674240
     11          1           0       -1.366516    0.584678    2.803336
     12          7           0       -3.951743   -1.057025   -0.656224
     13          8           0       -4.010941   -2.144180   -0.085938
     14          8           0       -4.480201   -0.793511   -1.734153
     15          6           0        5.561787   -0.026438   -0.365434
     16          6           0        4.726336    0.828447   -1.091873
     17          6           0        3.336970    0.742717   -0.962025
     18          6           0        2.814631   -0.213815   -0.092832
     19          6           0        3.620697   -1.079741    0.644542
     20          6           0        5.007279   -0.976130    0.498931
     21          1           0        6.639999    0.047105   -0.472425
     22          1           0        5.154188    1.566946   -1.763890
     23          1           0        2.666972    1.392027   -1.512405
     24          1           0        3.164827   -1.805844    1.306642
     25          1           0        5.653667   -1.641357    1.064351
     26          7           0        1.345245   -0.314039    0.052975
     27          8           0        0.909856   -1.165247    0.825321
     28          8           0        0.656753    0.460511   -0.607847
 ---------------------------------------------------------------------

 SCF Done:  E(RHF) =  -868.337663560     A.U. after   16 cycles
 E2 =    -0.2601859396D+01 EUMP2 =    -0.87093952295588D+03

 The electronic state is 1-A.
 Alpha  occ. eigenvalues --  -20.61286 -20.61254 -20.59374 -20.59363 -15.86280
 Alpha  occ. eigenvalues --  -15.84412 -11.31610 -11.29436 -11.28173 -11.28159
 Alpha  occ. eigenvalues --  -11.27883 -11.27165 -11.27150 -11.26072 -11.25979
 Alpha  occ. eigenvalues --  -11.25812 -11.25070 -11.24962  -1.60324  -1.58448
 Alpha  occ. eigenvalues --   -1.39885  -1.38013  -1.19772  -1.17588  -1.09174
 Alpha  occ. eigenvalues --   -1.07095  -1.05164  -1.02986  -0.96019  -0.93989
 Alpha  occ. eigenvalues --   -0.86564  -0.84458  -0.82857  -0.80855  -0.77913
 Alpha  occ. eigenvalues --   -0.75914  -0.72523  -0.71656  -0.70873  -0.70662
 Alpha  occ. eigenvalues --   -0.69750  -0.68856  -0.65424  -0.65163  -0.63321
 Alpha  occ. eigenvalues --   -0.63102  -0.62513  -0.60405  -0.55669  -0.53642
 Alpha  occ. eigenvalues --   -0.53504  -0.53253  -0.51566  -0.51178  -0.49282
 Alpha  occ. eigenvalues --   -0.48903  -0.47418  -0.47385  -0.45306  -0.43496
 Alpha  occ. eigenvalues --   -0.37758  -0.36767  -0.35519  -0.34449
 Alpha virt. eigenvalues --    0.04604   0.06651   0.10888   0.13112   0.16118
 Alpha virt. eigenvalues --    0.18194   0.21054   0.22855   0.26961   0.27938
 Alpha virt. eigenvalues --    0.28756   0.29699   0.30623   0.32128   0.32311

 Mulliken charges:
               1
     1  C   -0.163716
     2  C   -0.211242
     3  C   -0.168339
     4  C    0.159694
     5  C   -0.154788
     6  C   -0.208287
     7  H    0.215112
     8  H    0.213908
     9  H    0.268668
    10  H    0.272094
    11  H    0.216666
    12  N    0.488069
    13  O   -0.463733
    14  O   -0.466690
    15  C   -0.170547
    16  C   -0.218403
    17  C   -0.171511
    18  C    0.158519
    19  C   -0.171178
    20  C   -0.218386
    21  H    0.226923
    22  H    0.224262
    23  H    0.274638
    24  H    0.275717
    25  H    0.224754
    26  N    0.487905
    27  O   -0.462787
    28  O   -0.457323
 Sum of Mulliken charges =  -0.00000

 Dipole moment (field-independent basis, Debye):
    X=              8.2694    Y=              4.0292    Z=              1.8341  Tot=              9.3799
 Quadrupole moment (field-independent basis, Debye-Ang):
   XX=            -94.8072   YY=           -101.4897   ZZ=           -100.7740
   XY=            -13.2512   XZ=             -8.2852   YZ=             -5.6293

 Normal termination of Gaussian 16 at Fri May  7 06:22:37 2021.
