 Gaussian 16, Revision A.03,
 Gaussian 16:  EM64L-G16RevA.03 25-Dec-2016

 -------------
 #p 6-31g* mp2
 -------------

 ------------------------------------------------------
 Input file generated by CHIRIPA (05-May-2021 14:55:23)
 ------------------------------------------------------
 Symbolic Z-matrix:
 Charge =  0 Multiplicity = 1

                         Standard orientation:
 ---------------------------------------------------------------------
 Center     Atomic      Atomic             Coordinates (Angstroms)
 Number     Number       Type             X           Y           Z
 ---------------------------------------------------------------------
      1          6           0       -1.666849    1.619690    1.100317
      2          6           0       -1.462606    0.251776    0.891472
      3          6           0       -2.436142   -0.522093    0.252798
      4          6           0       -3.607359    0.107330   -0.165969
      5          6           0       -3.840231    1.468065    0.027584
      6          6           0       -2.852918    2.222406    0.668468
      7          1           0       -0.905232    2.213265    1.597312
      8          1           0       -0.542460   -0.218977    1.225789
      9          1           0       -2.303947   -1.582986    0.078302
     10          1           0       -4.767704    1.909147   -0.316882
     11          1           0       -3.014254    3.284547    0.829316
     12          7           0       -4.645289   -0.701593   -0.843275
     13          8           0       -5.668500   -0.123273   -1.202751
     14          8           0       -4.415956   -1.898631   -1.001845
     15          6           0        4.794137   -0.240095   -0.580254
     16          6           0        6.021358    0.662842   -0.451337
     17          6           0        6.802620    0.788847   -1.759599
     18          1           0        5.113408   -1.236319   -0.915735
     19          1           0        4.135637    0.157754   -1.364786
     20          1           0        6.676678    0.264181    0.333671
     21          1           0        5.699149    1.656978   -0.115940
     22          1           0        6.168937    1.207955   -2.547884
     23          1           0        7.152021   -0.192755   -2.095718
     24          1           0        7.675750    1.438711   -1.644793
     25          6           0        4.002779   -0.375972    0.719368
     26          6           0        2.775558   -1.278909    0.590451
     27          6           0        1.994296   -1.404912    1.898712
     28          1           0        4.661280   -0.773820    1.503900
     29          1           0        3.683508    0.620252    1.054849
     30          1           0        3.097768   -2.273044    0.255054
     31          1           0        2.120238   -0.880247   -0.194558
     32          1           0        1.644895   -0.423310    2.234832
     33          1           0        2.627979   -1.824021    2.686998
     34          1           0        1.121166   -2.054777    1.783906
 ---------------------------------------------------------------------

 SCF Done:  E(RHF) =  -669.535233918     A.U. after   15 cycles
 E2 =    -0.2091400933D+01 EUMP2 =    -0.67162663485110D+03

 The electronic state is 1-A.
 Alpha  occ. eigenvalues --  -20.60715 -20.60710 -15.85766 -11.31119 -11.27686
 Alpha  occ. eigenvalues --  -11.27665 -11.27418 -11.26708 -11.26596 -11.22547
 Alpha  occ. eigenvalues --  -11.22327 -11.22162 -11.22103 -11.21960 -11.21471
 Alpha  occ. eigenvalues --   -1.59791  -1.39344  -1.19283  -1.09158  -1.08683
 Alpha  occ. eigenvalues --   -1.04687  -1.04295  -0.96769  -0.95523  -0.87792
 Alpha  occ. eigenvalues --   -0.86079  -0.82354  -0.80362  -0.78920  -0.77405
 Alpha  occ. eigenvalues --   -0.71986  -0.71113  -0.70404  -0.65833  -0.64934
 Alpha  occ. eigenvalues --   -0.64708  -0.62187  -0.61557  -0.60141  -0.58343
 Alpha  occ. eigenvalues --   -0.56086  -0.55174  -0.53513  -0.53177  -0.53017
 Alpha  occ. eigenvalues --   -0.52697  -0.50667  -0.48742  -0.48739  -0.48669
 Alpha  occ. eigenvalues --   -0.47385  -0.46472  -0.46370  -0.44753  -0.44528
 Alpha  occ. eigenvalues --   -0.37271  -0.36283
 Alpha virt. eigenvalues --    0.05124   0.11346   0.16607   0.19789   0.22614
 Alpha virt. eigenvalues --    0.23841   0.25800   0.26390   0.26591   0.27725
 Alpha virt. eigenvalues --    0.29329   0.30540   0.30892   0.31267   0.31500

 Mulliken charges:
               1
     1  C   -0.174524
     2  C   -0.228819
     3  C   -0.174849
     4  C    0.159081
     5  C   -0.171642
     6  C   -0.218304
     7  H    0.224806
     8  H    0.242565
     9  H    0.275283
    10  H    0.275266
    11  H    0.222952
    12  N    0.488050
    13  O   -0.460738
    14  O   -0.460571
    15  C   -0.299095
    16  C   -0.300045
    17  C   -0.476134
    18  H    0.151850
    19  H    0.150582
    20  H    0.152813
    21  H    0.151317
    22  H    0.155907
    23  H    0.156418
    24  H    0.161505
    25  C   -0.298282
    26  C   -0.302539
    27  C   -0.484259
    28  H    0.151901
    29  H    0.147326
    30  H    0.157776
    31  H    0.152294
    32  H    0.147719
    33  H    0.165500
    34  H    0.158892
 Sum of Mulliken charges =  -0.00000

 Dipole moment (field-independent basis, Debye):
    X=              3.9280    Y=              2.7819    Z=              2.3719  Tot=              5.3660
 Quadrupole moment (field-independent basis, Debye-Ang):
   XX=           -119.3358   YY=            -90.2948   ZZ=            -96.9819
   XY=            -13.4789   XZ=             -8.2403   YZ=             -0.7735

 Normal termination of Gaussian 16 at Thu May  6 19:14:48 2021.
