 Gaussian 16, Revision A.03,
 Gaussian 16:  EM64L-G16RevA.03 25-Dec-2016

 -------------
 #p 6-31g* mp2
 -------------

 ------------------------------------------------------
 Input file generated by CHIRIPA (05-May-2021 14:51:12)
 ------------------------------------------------------
 Symbolic Z-matrix:
 Charge =  0 Multiplicity = 1

                         Standard orientation:
 ---------------------------------------------------------------------
 Center     Atomic      Atomic             Coordinates (Angstroms)
 Number     Number       Type             X           Y           Z
 ---------------------------------------------------------------------
      1          6           0        2.592643    1.007565    0.238062
      2          6           0        3.214475    2.359046   -0.115221
      3          6           0        2.614699    3.513731    0.687753
      4          1           0        1.508861    1.053058    0.064017
      5          1           0        2.729111    0.818481    1.311849
      6          1           0        3.078093    2.544893   -1.188289
      7          1           0        4.296930    2.310270    0.059504
      8          1           0        2.763647    3.355071    1.760712
      9          1           0        1.537884    3.591027    0.505829
     10          1           0        3.073646    4.470382    0.419336
     11          6           0        3.181877   -0.156633   -0.556403
     12          6           0        2.560045   -1.508114   -0.203120
     13          6           0        3.159821   -2.662799   -1.006093
     14          1           0        3.045409    0.032451   -1.630190
     15          1           0        4.265659   -0.202126   -0.382358
     16          1           0        1.477590   -1.459338   -0.377845
     17          1           0        2.696428   -1.693961    0.869949
     18          1           0        4.236636   -2.740095   -0.824170
     19          1           0        3.010873   -2.504139   -2.079053
     20          1           0        2.700875   -3.619450   -0.737677
     21          6           0       -2.394684   -0.684431    0.682370
     22          6           0       -1.657387   -1.951085    0.246522
     23          6           0       -0.675506   -2.456957    1.303782
     24          1           0       -1.659968    0.100581    0.907968
     25          1           0       -2.933940   -0.886120    1.618276
     26          1           0       -1.120803   -1.747465   -0.689016
     27          1           0       -2.393951   -2.733113    0.021752
     28          1           0       -1.199357   -2.687591    2.237051
     29          1           0        0.081025   -1.696342    1.522244
     30          1           0       -0.159451   -3.363134    0.971527
     31          6           0       -3.379836   -0.166501   -0.364030
     32          6           0       -4.117134    1.100154    0.071819
     33          6           0       -5.099014    1.606026   -0.985441
     34          1           0       -2.840580    0.035189   -1.299935
     35          1           0       -4.114553   -0.951513   -0.589627
     36          1           0       -3.380570    1.882181    0.296588
     37          1           0       -4.653717    0.896533    1.007357
     38          1           0       -5.855546    0.845410   -1.203902
     39          1           0       -4.575164    1.836659   -1.918710
     40          1           0       -5.615069    2.512202   -0.653187
 ---------------------------------------------------------------------

 SCF Done:  E(RHF) =  -470.732201770     A.U. after   11 cycles
 E2 =    -0.1584022561D+01 EUMP2 =    -0.47231622433106D+03

 The electronic state is 1-A.
 Alpha  occ. eigenvalues --  -11.21645 -11.21618 -11.21612 -11.21522 -11.21448
 Alpha  occ. eigenvalues --  -11.21423 -11.21363 -11.21362 -11.21110 -11.21086
 Alpha  occ. eigenvalues --  -11.21062 -11.20946  -1.08484  -1.08416  -1.03608
 Alpha  occ. eigenvalues --   -1.03468  -0.96030  -0.95943  -0.87051  -0.86956
 Alpha  occ. eigenvalues --   -0.79698  -0.79520  -0.78306  -0.78229  -0.65226
 Alpha  occ. eigenvalues --   -0.64958  -0.61159  -0.60770  -0.59449  -0.59252
 Alpha  occ. eigenvalues --   -0.57669  -0.57522  -0.55350  -0.55207  -0.52710
 Alpha  occ. eigenvalues --   -0.52634  -0.52476  -0.52336  -0.49999  -0.49907
 Alpha  occ. eigenvalues --   -0.48018  -0.47762  -0.46712  -0.46584  -0.45938
 Alpha  occ. eigenvalues --   -0.45784  -0.45670  -0.45518  -0.43802  -0.43778
 Alpha virt. eigenvalues --    0.20462   0.23268   0.23456   0.24478   0.25844
 Alpha virt. eigenvalues --    0.26070   0.26979   0.27484   0.28264   0.29392
 Alpha virt. eigenvalues --    0.30271   0.31241   0.31321   0.32019   0.32467

 Mulliken charges:
               1
     1  C   -0.299663
     2  C   -0.299488
     3  C   -0.475701
     4  H    0.148848
     5  H    0.149616
     6  H    0.152019
     7  H    0.152360
     8  H    0.155366
     9  H    0.154809
    10  H    0.160483
    11  C   -0.297724
    12  C   -0.306486
    13  C   -0.475889
    14  H    0.149023
    15  H    0.149530
    16  H    0.161984
    17  H    0.152364
    18  H    0.155056
    19  H    0.154717
    20  H    0.160243
    21  C   -0.299056
    22  C   -0.303175
    23  C   -0.479576
    24  H    0.150061
    25  H    0.150018
    26  H    0.152212
    27  H    0.152387
    28  H    0.154807
    29  H    0.160903
    30  H    0.160097
    31  C   -0.298257
    32  C   -0.299629
    33  C   -0.475704
    34  H    0.149037
    35  H    0.149832
    36  H    0.151789
    37  H    0.152117
    38  H    0.155251
    39  H    0.155056
    40  H    0.160360
 Sum of Mulliken charges =  -0.00000

 Dipole moment (field-independent basis, Debye):
    X=              0.0122    Y=             -0.0015    Z=              0.0137  Tot=              0.0184
 Quadrupole moment (field-independent basis, Debye-Ang):
   XX=            -84.4033   YY=            -85.5978   ZZ=            -84.8100
   XY=              0.9995   XZ=             -0.0773   YZ=             -0.4842

 Normal termination of Gaussian 16 at Wed May  5 18:20:21 2021.
