 Gaussian 16, Revision A.03,
 Gaussian 16:  EM64L-G16RevA.03 25-Dec-2016

 -------------
 #p 6-31g* mp2
 -------------

 ------------------------------------------------------
 Input file generated by CHIRIPA (05-May-2021 14:57:25)
 ------------------------------------------------------
 Symbolic Z-matrix:
 Charge =  0 Multiplicity = 1

                         Standard orientation:
 ---------------------------------------------------------------------
 Center     Atomic      Atomic             Coordinates (Angstroms)
 Number     Number       Type             X           Y           Z
 ---------------------------------------------------------------------
      1          6           0        2.866555    2.303981    0.933471
      2          6           0        4.153510    2.015831    0.467385
      3          6           0        4.465714    0.740531   -0.012916
      4          6           0        3.462201   -0.227070   -0.012720
      5          6           0        2.170660    0.029235    0.445012
      6          6           0        1.880975    1.311513    0.920820
      7          1           0        2.632774    3.297375    1.304835
      8          1           0        4.920919    2.784632    0.476026
      9          1           0        5.453812    0.490289   -0.379605
     10          1           0        1.426676   -0.757824    0.423923
     11          1           0        0.880647    1.532447    1.282175
     12          7           0        3.780798   -1.580866   -0.518815
     13          8           0        2.878966   -2.415864   -0.508110
     14          8           0        4.926312   -1.781339   -0.916614
     15          6           0       -2.984849    2.366808   -0.846784
     16          6           0       -1.911598    1.542824   -0.492240
     17          6           0       -2.135194    0.231929   -0.060838
     18          6           0       -3.450765   -0.224485    0.004340
     19          6           0       -4.541040    0.572137   -0.342048
     20          6           0       -4.293837    1.879694   -0.770691
     21          1           0       -2.801985    3.383846   -1.180835
     22          1           0       -0.893966    1.918450   -0.550352
     23          1           0       -1.322819   -0.427444    0.219684
     24          1           0       -5.544361    0.169519   -0.273755
     25          1           0       -5.129278    2.517360   -1.045400
     26          7           0       -3.699972   -1.610504    0.459585
     27          8           0       -4.868367   -1.988818    0.508256
     28          8           0       -2.722187   -2.292307    0.759114
 ---------------------------------------------------------------------

 SCF Done:  E(RHF) =  -868.336306377     A.U. after   16 cycles
 E2 =    -0.2601006759D+01 EUMP2 =    -0.87093731313583D+03

 The electronic state is 1-A.
 Alpha  occ. eigenvalues --  -20.61055 -20.61052 -20.61045 -20.61032 -15.86113
 Alpha  occ. eigenvalues --  -15.86107 -11.31706 -11.31660 -11.28382 -11.28338
 Alpha  occ. eigenvalues --  -11.28290 -11.28207 -11.28119 -11.28004 -11.27442
 Alpha  occ. eigenvalues --  -11.27329 -11.27322 -11.27244  -1.60125  -1.60118
 Alpha  occ. eigenvalues --   -1.39674  -1.39664  -1.19920  -1.19844  -1.09265
 Alpha  occ. eigenvalues --   -1.09197  -1.05403  -1.05260  -0.96058  -0.96007
 Alpha  occ. eigenvalues --   -0.86781  -0.86638  -0.82957  -0.82791  -0.78005
 Alpha  occ. eigenvalues --   -0.77769  -0.72330  -0.72312  -0.71452  -0.71448
 Alpha  occ. eigenvalues --   -0.71061  -0.70913  -0.65591  -0.65578  -0.65481
 Alpha  occ. eigenvalues --   -0.65115  -0.62991  -0.62353  -0.55870  -0.55734
 Alpha  occ. eigenvalues --   -0.53738  -0.53640  -0.53536  -0.53171  -0.49107
 Alpha  occ. eigenvalues --   -0.49090  -0.49075  -0.49059  -0.45040  -0.45018
 Alpha  occ. eigenvalues --   -0.37900  -0.37812  -0.36976  -0.36894
 Alpha virt. eigenvalues --    0.04634   0.04672   0.10567   0.10761   0.15908
 Alpha virt. eigenvalues --    0.16042   0.18601   0.22059   0.24314   0.26471
 Alpha virt. eigenvalues --    0.27853   0.29105   0.30410   0.31099   0.31618

 Mulliken charges:
               1
     1  C   -0.171602
     2  C   -0.218441
     3  C   -0.168827
     4  C    0.160268
     5  C   -0.176759
     6  C   -0.227029
     7  H    0.226067
     8  H    0.225455
     9  H    0.278142
    10  H    0.280497
    11  H    0.221535
    12  N    0.487574
    13  O   -0.455710
    14  O   -0.459241
    15  C   -0.170755
    16  C   -0.225008
    17  C   -0.175109
    18  C    0.159872
    19  C   -0.169353
    20  C   -0.218146
    21  H    0.226165
    22  H    0.222218
    23  H    0.274071
    24  H    0.277831
    25  H    0.225315
    26  N    0.487525
    27  O   -0.458561
    28  O   -0.457991
 Sum of Mulliken charges =  -0.00000

 Dipole moment (field-independent basis, Debye):
    X=             -0.2083    Y=              9.5347    Z=              0.1290  Tot=              9.5379
 Quadrupole moment (field-independent basis, Debye-Ang):
   XX=           -107.5926   YY=           -109.6528   ZZ=           -106.2866
   XY=              0.4770   XZ=             11.5891   YZ=             -0.5475

 Normal termination of Gaussian 16 at Thu May  6 01:57:02 2021.
