 Gaussian 16, Revision A.03,
 Gaussian 16:  EM64L-G16RevA.03 25-Dec-2016

 -------------
 #p 6-31g* mp2
 -------------

 ------------------------------------------------------
 Input file generated by CHIRIPA (05-May-2021 14:55:20)
 ------------------------------------------------------
 Symbolic Z-matrix:
 Charge =  0 Multiplicity = 1

                         Standard orientation:
 ---------------------------------------------------------------------
 Center     Atomic      Atomic             Coordinates (Angstroms)
 Number     Number       Type             X           Y           Z
 ---------------------------------------------------------------------
      1          6           0       -1.594400    0.934730    0.471243
      2          6           0       -2.658949    1.719723    0.016223
      3          6           0       -3.912015    1.147394   -0.222132
      4          6           0       -4.065923   -0.219176    0.006094
      5          6           0       -3.024711   -1.027768    0.459246
      6          6           0       -1.780351   -0.434097    0.690915
      7          1           0       -0.624370    1.387619    0.653806
      8          1           0       -2.517437    2.783029   -0.155243
      9          1           0       -4.753292    1.731741   -0.574566
     10          1           0       -3.196338   -2.085020    0.621049
     11          1           0       -0.955405   -1.046182    1.044272
     12          7           0       -5.387879   -0.836373   -0.242702
     13          8           0       -5.497670   -2.042605   -0.033932
     14          8           0       -6.289206   -0.102211   -0.641768
     15          6           0        5.251902   -0.518487    0.111650
     16          6           0        6.664140   -0.667512   -0.455238
     17          6           0        7.303910   -2.010749   -0.102812
     18          1           0        5.287917   -0.633830    1.203596
     19          1           0        4.623595   -1.335892   -0.268446
     20          1           0        7.289238    0.150718   -0.075282
     21          1           0        6.624786   -0.551611   -1.545941
     22          1           0        6.704169   -2.838038   -0.495881
     23          1           0        7.372396   -2.131718    0.983134
     24          1           0        8.312979   -2.096048   -0.517979
     25          6           0        4.599102    0.819171   -0.232224
     26          6           0        3.186864    0.968197    0.334664
     27          6           0        2.547094    2.311434   -0.017761
     28          1           0        5.227409    1.636577    0.147872
     29          1           0        4.563087    0.934514   -1.324169
     30          1           0        3.226218    0.852295    1.425367
     31          1           0        2.561766    0.149966   -0.045291
     32          1           0        2.478608    2.432402   -1.103707
     33          1           0        3.146835    3.138722    0.375308
     34          1           0        1.538025    2.396732    0.397405
 ---------------------------------------------------------------------

 SCF Done:  E(RHF) =  -669.535516319     A.U. after   15 cycles
 E2 =    -0.2090772380D+01 EUMP2 =    -0.67162628869804D+03

 The electronic state is 1-A.
 Alpha  occ. eigenvalues --  -20.60732 -20.60727 -15.85786 -11.31144 -11.27716
 Alpha  occ. eigenvalues --  -11.27712 -11.27433 -11.26725 -11.26715 -11.22655
 Alpha  occ. eigenvalues --  -11.22297 -11.22183 -11.22131 -11.22024 -11.21513
 Alpha  occ. eigenvalues --   -1.59808  -1.39362  -1.19317  -1.09198  -1.08711
 Alpha  occ. eigenvalues --   -1.04720  -1.04327  -0.96778  -0.95548  -0.87795
 Alpha  occ. eigenvalues --   -0.86116  -0.82382  -0.80403  -0.78970  -0.77430
 Alpha  occ. eigenvalues --   -0.72004  -0.71131  -0.70447  -0.65818  -0.64968
 Alpha  occ. eigenvalues --   -0.64726  -0.62068  -0.61706  -0.60234  -0.58401
 Alpha  occ. eigenvalues --   -0.56038  -0.55248  -0.53466  -0.53172  -0.53047
 Alpha  occ. eigenvalues --   -0.52811  -0.50695  -0.48774  -0.48759  -0.48703
 Alpha  occ. eigenvalues --   -0.47420  -0.46520  -0.46414  -0.44769  -0.44575
 Alpha  occ. eigenvalues --   -0.37292  -0.36327
 Alpha virt. eigenvalues --    0.05104   0.11325   0.16587   0.19285   0.22429
 Alpha virt. eigenvalues --    0.23778   0.25789   0.25896   0.26520   0.27488
 Alpha virt. eigenvalues --    0.28695   0.30161   0.30773   0.31353   0.32367

 Mulliken charges:
               1
     1  C   -0.177049
     2  C   -0.221549
     3  C   -0.170782
     4  C    0.158260
     5  C   -0.170729
     6  C   -0.221760
     7  H    0.237150
     8  H    0.223656
     9  H    0.275483
    10  H    0.275405
    11  H    0.224131
    12  N    0.487984
    13  O   -0.460571
    14  O   -0.460542
    15  C   -0.298924
    16  C   -0.300281
    17  C   -0.476148
    18  H    0.150138
    19  H    0.149636
    20  H    0.152871
    21  H    0.153048
    22  H    0.155734
    23  H    0.155624
    24  H    0.162033
    25  C   -0.298759
    26  C   -0.301370
    27  C   -0.478946
    28  H    0.151795
    29  H    0.151886
    30  H    0.152766
    31  H    0.149215
    32  H    0.160015
    33  H    0.161116
    34  H    0.149464
 Sum of Mulliken charges =  -0.00000

 Dipole moment (field-independent basis, Debye):
    X=              4.9204    Y=              2.1822    Z=              0.8375  Tot=              5.4474
 Quadrupole moment (field-independent basis, Debye-Ang):
   XX=           -131.7542   YY=            -92.4751   ZZ=            -94.4735
   XY=            -10.9934   XZ=             -2.8261   YZ=             -1.1783

 Normal termination of Gaussian 16 at Thu May  6 14:05:54 2021.
