 Gaussian 16, Revision A.03,
 Gaussian 16:  EM64L-G16RevA.03 25-Dec-2016

 -------------
 #p 6-31g* mp2
 -------------

 ------------------------------------------------------
 Input file generated by CHIRIPA (05-May-2021 14:57:24)
 ------------------------------------------------------
 Symbolic Z-matrix:
 Charge =  0 Multiplicity = 1

                         Standard orientation:
 ---------------------------------------------------------------------
 Center     Atomic      Atomic             Coordinates (Angstroms)
 Number     Number       Type             X           Y           Z
 ---------------------------------------------------------------------
      1          6           0       -1.013737   -2.314599    0.656362
      2          6           0       -1.727160   -2.402582   -0.543557
      3          6           0       -2.625959   -1.396605   -0.910597
      4          6           0       -2.787499   -0.311849   -0.050073
      5          6           0       -2.091325   -0.195536    1.152051
      6          6           0       -1.197772   -1.213298    1.498852
      7          1           0       -0.317566   -3.100644    0.933626
      8          1           0       -1.586254   -3.256711   -1.199800
      9          1           0       -3.191174   -1.439435   -1.833698
     10          1           0       -2.253052    0.668082    1.785634
     11          1           0       -0.645072   -1.142319    2.431337
     12          7           0       -3.736240    0.759372   -0.427928
     13          8           0       -3.860605    1.704760    0.347579
     14          8           0       -4.337535    0.633324   -1.492444
     15          6           0        3.868246   -1.657310   -0.493254
     16          6           0        3.035514   -1.565432    0.626852
     17          6           0        2.345199   -0.381515    0.903173
     18          6           0        2.511535    0.695839    0.034304
     19          6           0        3.333918    0.635312   -1.089668
     20          6           0        4.014532   -0.558581   -1.346436
     21          1           0        4.400731   -2.580880   -0.700312
     22          1           0        2.920003   -2.417115    1.291185
     23          1           0        1.694095   -0.283020    1.763278
     24          1           0        3.429001    1.501208   -1.733563
     25          1           0        4.660567   -0.627067   -2.217063
     26          7           0        1.785864    1.954480    0.316483
     27          8           0        1.949347    2.889365   -0.464478
     28          8           0        1.067342    1.982285    1.313272
 ---------------------------------------------------------------------

 SCF Done:  E(RHF) =  -868.336274698     A.U. after   16 cycles
 E2 =    -0.2602264427D+01 EUMP2 =    -0.87093853912590D+03

 The electronic state is 1-A.
 Alpha  occ. eigenvalues --  -20.61166 -20.61141 -20.60408 -20.60372 -15.86210
 Alpha  occ. eigenvalues --  -15.85454 -11.31666 -11.30959 -11.28351 -11.28232
 Alpha  occ. eigenvalues --  -11.28052 -11.27627 -11.27523 -11.27507 -11.27382
 Alpha  occ. eigenvalues --  -11.27249 -11.26693 -11.26683  -1.60214  -1.59464
 Alpha  occ. eigenvalues --   -1.39772  -1.39012  -1.19871  -1.19199  -1.09242
 Alpha  occ. eigenvalues --   -1.08598  -1.05313  -1.04619  -0.96063  -0.95384
 Alpha  occ. eigenvalues --   -0.86710  -0.86036  -0.82912  -0.82208  -0.77955
 Alpha  occ. eigenvalues --   -0.77193  -0.72436  -0.71678  -0.71534  -0.71005
 Alpha  occ. eigenvalues --   -0.70786  -0.70353  -0.65538  -0.65366  -0.64863
 Alpha  occ. eigenvalues --   -0.64672  -0.62690  -0.61917  -0.55807  -0.55226
 Alpha  occ. eigenvalues --   -0.53676  -0.53453  -0.52863  -0.52701  -0.49194
 Alpha  occ. eigenvalues --   -0.49172  -0.48452  -0.48408  -0.45160  -0.44384
 Alpha  occ. eigenvalues --   -0.37868  -0.37536  -0.36645  -0.36105
 Alpha virt. eigenvalues --    0.04617   0.05334   0.10496   0.11589   0.15950
 Alpha virt. eigenvalues --    0.16818   0.19333   0.22158   0.25458   0.26254
 Alpha virt. eigenvalues --    0.28208   0.29548   0.29998   0.31295   0.32596

 Mulliken charges:
               1
     1  C   -0.168278
     2  C   -0.219383
     3  C   -0.170247
     4  C    0.156297
     5  C   -0.161192
     6  C   -0.222971
     7  H    0.217064
     8  H    0.220794
     9  H    0.275400
    10  H    0.284788
    11  H    0.218199
    12  N    0.488345
    13  O   -0.454974
    14  O   -0.462624
    15  C   -0.170584
    16  C   -0.222435
    17  C   -0.163364
    18  C    0.158423
    19  C   -0.169194
    20  C   -0.218825
    21  H    0.225809
    22  H    0.217270
    23  H    0.268753
    24  H    0.278263
    25  H    0.225295
    26  N    0.488896
    27  O   -0.455371
    28  O   -0.464155
 Sum of Mulliken charges =  -0.00000

 Dipole moment (field-independent basis, Debye):
    X=              5.8548    Y=             -7.8648    Z=              0.2288  Tot=              9.8074
 Quadrupole moment (field-independent basis, Debye-Ang):
   XX=           -110.4878   YY=           -107.9435   ZZ=            -98.7302
   XY=              1.5288   XZ=             -7.7950   YZ=             -0.4441

 Normal termination of Gaussian 16 at Wed May  5 19:28:53 2021.
