 Gaussian 16, Revision A.03,
 Gaussian 16:  EM64L-G16RevA.03 25-Dec-2016

 -------------
 #p 6-31g* mp2
 -------------

 ------------------------------------------------------
 Input file generated by CHIRIPA (05-May-2021 14:53:15)
 ------------------------------------------------------
 Symbolic Z-matrix:
 Charge =  0 Multiplicity = 1

                         Standard orientation:
 ---------------------------------------------------------------------
 Center     Atomic      Atomic             Coordinates (Angstroms)
 Number     Number       Type             X           Y           Z
 ---------------------------------------------------------------------
      1          6           0        2.964589    0.095232   -0.518028
      2          6           0        4.205206   -0.704731   -0.119389
      3          6           0        4.649177   -1.686647   -1.204066
      4          1           0        2.144401   -0.600170   -0.743087
      5          1           0        3.173321    0.643533   -1.447110
      6          1           0        3.994656   -1.250272    0.809412
      7          1           0        5.022480   -0.007337    0.104933
      8          1           0        4.886192   -1.155041   -2.131331
      9          1           0        3.852529   -2.405038   -1.422850
     10          1           0        5.537580   -2.247948   -0.898222
     11          6           0        2.508528    1.081152    0.556076
     12          6           0        1.267911    1.881115    0.157436
     13          6           0        0.823940    2.863031    1.242114
     14          1           0        2.299796    0.532851    1.485157
     15          1           0        3.328716    1.776554    0.781135
     16          1           0        0.450637    1.183721   -0.066885
     17          1           0        1.478461    2.426656   -0.771364
     18          1           0        1.620589    3.581422    1.460897
     19          1           0        0.586925    2.331425    2.169379
     20          1           0       -0.064463    3.424332    0.936270
     21          6           0       -1.496631   -2.416900    1.442304
     22          6           0       -1.403692   -1.113208    1.940570
     23          6           0       -1.756345   -0.021118    1.142120
     24          6           0       -2.199935   -0.270293   -0.155736
     25          6           0       -2.303439   -1.557473   -0.680850
     26          6           0       -1.945417   -2.634488    0.135488
     27          1           0       -1.220596   -3.259407    2.069507
     28          1           0       -1.055486   -0.941231    2.955076
     29          1           0       -1.694016    0.998499    1.502556
     30          1           0       -2.654002   -1.697346   -1.696211
     31          1           0       -2.018604   -3.645869   -0.254125
     32          7           0       -2.576116    0.877874   -1.010488
     33          8           0       -2.964001    0.631702   -2.150480
     34          8           0       -2.475957    2.002237   -0.524266
 ---------------------------------------------------------------------

 SCF Done:  E(RHF) =  -669.534897431     A.U. after   15 cycles
 E2 =    -0.2094510592D+01 EUMP2 =    -0.67162940802255D+03

 The electronic state is 1-A.
 Alpha  occ. eigenvalues --  -20.60901 -20.60881 -15.85922 -11.31257 -11.27856
 Alpha  occ. eigenvalues --  -11.27814 -11.27598 -11.26851 -11.26841 -11.21683
 Alpha  occ. eigenvalues --  -11.21383 -11.21337 -11.21287 -11.21175 -11.20883
 Alpha  occ. eigenvalues --   -1.59951  -1.39506  -1.19461  -1.08853  -1.08389
 Alpha  occ. eigenvalues --   -1.04862  -1.03475  -0.95955  -0.95673  -0.86961
 Alpha  occ. eigenvalues --   -0.86256  -0.82518  -0.79547  -0.78204  -0.77565
 Alpha  occ. eigenvalues --   -0.72150  -0.71279  -0.70571  -0.65123  -0.65088
 Alpha  occ. eigenvalues --   -0.64809  -0.62256  -0.60856  -0.59276  -0.57511
 Alpha  occ. eigenvalues --   -0.55444  -0.55182  -0.53208  -0.52919  -0.52591
 Alpha  occ. eigenvalues --   -0.52353  -0.49918  -0.48906  -0.48897  -0.47853
 Alpha  occ. eigenvalues --   -0.46625  -0.45770  -0.45695  -0.44819  -0.43711
 Alpha  occ. eigenvalues --   -0.37404  -0.36409
 Alpha virt. eigenvalues --    0.04933   0.11137   0.16389   0.20751   0.22974
 Alpha virt. eigenvalues --    0.24120   0.26396   0.26839   0.27424   0.27858
 Alpha virt. eigenvalues --    0.29383   0.30807   0.31410   0.31908   0.32201

 Mulliken charges:
               1
     1  C   -0.298515
     2  C   -0.299037
     3  C   -0.475407
     4  H    0.149204
     5  H    0.151813
     6  H    0.148672
     7  H    0.152528
     8  H    0.156791
     9  H    0.153411
    10  H    0.159505
    11  C   -0.296550
    12  C   -0.301494
    13  C   -0.483639
    14  H    0.142842
    15  H    0.149653
    16  H    0.152152
    17  H    0.157209
    18  H    0.155888
    19  H    0.140047
    20  H    0.178910
    21  C   -0.170641
    22  C   -0.219375
    23  C   -0.175733
    24  C    0.158549
    25  C   -0.171021
    26  C   -0.219038
    27  H    0.226091
    28  H    0.223981
    29  H    0.282722
    30  H    0.276023
    31  H    0.223836
    32  N    0.490574
    33  O   -0.459299
    34  O   -0.460649
 Sum of Mulliken charges =  -0.00000

 Dipole moment (field-independent basis, Debye):
    X=              1.2007    Y=             -3.9664    Z=              2.8939  Tot=              5.0546
 Quadrupole moment (field-independent basis, Debye-Ang):
   XX=           -101.1482   YY=            -90.5967   ZZ=            -93.7118
   XY=             10.2410   XZ=             -6.0522   YZ=              1.4355

 Normal termination of Gaussian 16 at Thu May  6 07:27:56 2021.
