 Gaussian 16, Revision A.03,
 Gaussian 16:  EM64L-G16RevA.03 25-Dec-2016

 -------------
 #p 6-31g* mp2
 -------------

 ------------------------------------------------------
 Input file generated by CHIRIPA (05-May-2021 14:57:22)
 ------------------------------------------------------
 Symbolic Z-matrix:
 Charge =  0 Multiplicity = 1

                         Standard orientation:
 ---------------------------------------------------------------------
 Center     Atomic      Atomic             Coordinates (Angstroms)
 Number     Number       Type             X           Y           Z
 ---------------------------------------------------------------------
      1          6           0       -6.020801   -0.339210    0.169732
      2          6           0       -5.366573    0.888547    0.315065
      3          6           0       -3.977708    0.973426    0.179428
      4          6           0       -3.271069   -0.194575   -0.102931
      5          6           0       -3.894080   -1.432514   -0.253442
      6          6           0       -5.283765   -1.493786   -0.113558
      7          1           0       -7.100023   -0.395976    0.276748
      8          1           0       -5.936404    1.786840    0.535082
      9          1           0       -3.445804    1.910947    0.286899
     10          1           0       -3.299061   -2.310760   -0.472658
     11          1           0       -5.789182   -2.448637   -0.226953
     12          7           0       -1.800305   -0.117213   -0.248772
     13          8           0       -1.200537   -1.160759   -0.497621
     14          8           0       -1.275139    0.985504   -0.111472
     15          6           0        5.251329   -1.621819    0.078132
     16          6           0        5.019465   -0.876064   -1.082303
     17          6           0        4.059022    0.139798   -1.093382
     18          6           0        3.345459    0.384160    0.078968
     19          6           0        3.553490   -0.341482    1.250915
     20          6           0        4.518893   -1.352622    1.238991
     21          1           0        5.999350   -2.409130    0.077804
     22          1           0        5.586788   -1.082919   -1.985298
     23          1           0        3.859243    0.732465   -1.977832
     24          1           0        2.972186   -0.112039    2.135707
     25          1           0        4.696836   -1.930178    2.141659
     26          7           0        2.326056    1.457108    0.079416
     27          8           0        1.710718    1.652770    1.125224
     28          8           0        2.161688    2.082106   -0.966050
 ---------------------------------------------------------------------

 SCF Done:  E(RHF) =  -868.336225413     A.U. after   16 cycles
 E2 =    -0.2600447600D+01 EUMP2 =    -0.87093667301358D+03

 The electronic state is 1-A.
 Alpha  occ. eigenvalues --  -20.60060 -20.59908 -20.59203 -20.59157 -15.85018
 Alpha  occ. eigenvalues --  -15.84255 -11.30617 -11.29977 -11.27248 -11.27174
 Alpha  occ. eigenvalues --  -11.27019 -11.26604 -11.26600 -11.26450 -11.26309
 Alpha  occ. eigenvalues --  -11.26265 -11.25729 -11.25720  -1.59061  -1.58209
 Alpha  occ. eigenvalues --   -1.38602  -1.37777  -1.18817  -1.18187  -1.08176
 Alpha  occ. eigenvalues --   -1.07520  -1.04253  -1.03663  -0.94969  -0.94300
 Alpha  occ. eigenvalues --   -0.85641  -0.85048  -0.81791  -0.81152  -0.76804
 Alpha  occ. eigenvalues --   -0.76123  -0.71254  -0.70516  -0.70373  -0.69928
 Alpha  occ. eigenvalues --   -0.69479  -0.69331  -0.64462  -0.64262  -0.63855
 Alpha  occ. eigenvalues --   -0.63694  -0.61594  -0.61020  -0.54760  -0.54181
 Alpha  occ. eigenvalues --   -0.52574  -0.52349  -0.51949  -0.51782  -0.48083
 Alpha  occ. eigenvalues --   -0.48013  -0.47217  -0.47176  -0.43985  -0.43053
 Alpha  occ. eigenvalues --   -0.36818  -0.36183  -0.35868  -0.35275
 Alpha virt. eigenvalues --    0.05733   0.06468   0.11783   0.12376   0.17178
 Alpha virt. eigenvalues --    0.17880   0.21885   0.22369   0.27779   0.28241
 Alpha virt. eigenvalues --    0.28812   0.29298   0.31414   0.31866   0.33093

 Mulliken charges:
               1
     1  C   -0.171638
     2  C   -0.218809
     3  C   -0.170964
     4  C    0.158736
     5  C   -0.171814
     6  C   -0.218725
     7  H    0.223544
     8  H    0.222662
     9  H    0.279945
    10  H    0.273353
    11  H    0.220944
    12  N    0.486751
    13  O   -0.470516
    14  O   -0.443340
    15  C   -0.172105
    16  C   -0.218480
    17  C   -0.169984
    18  C    0.164774
    19  C   -0.168586
    20  C   -0.218459
    21  H    0.220979
    22  H    0.219326
    23  H    0.273896
    24  H    0.273822
    25  H    0.219114
    26  N    0.493995
    27  O   -0.456178
    28  O   -0.462242
 Sum of Mulliken charges =  -0.00000

 Dipole moment (field-independent basis, Debye):
    X=             -1.7374    Y=             -3.7528    Z=              0.5453  Tot=              4.1712
 Quadrupole moment (field-independent basis, Debye-Ang):
   XX=            -50.4578   YY=           -103.5455   ZZ=           -101.2797
   XY=             -9.6170   XZ=             -2.1845   YZ=             -0.4370

 Normal termination of Gaussian 16 at Thu May  6 22:41:20 2021.
