 Gaussian 16, Revision A.03,
 Gaussian 16:  EM64L-G16RevA.03 25-Dec-2016

 -------------
 #p 6-31g* mp2
 -------------

 ------------------------------------------------------
 Input file generated by CHIRIPA (05-May-2021 14:53:14)
 ------------------------------------------------------
 Symbolic Z-matrix:
 Charge =  0 Multiplicity = 1

                         Standard orientation:
 ---------------------------------------------------------------------
 Center     Atomic      Atomic             Coordinates (Angstroms)
 Number     Number       Type             X           Y           Z
 ---------------------------------------------------------------------
      1          6           0       -4.209773   -0.069343   -0.467259
      2          6           0       -5.233413    0.629898    0.427844
      3          6           0       -6.337387    1.326048   -0.368654
      4          1           0       -3.763239    0.668115   -1.148220
      5          1           0       -4.727078   -0.804871   -1.098756
      6          1           0       -4.714138    1.362912    1.058447
      7          1           0       -5.677424   -0.109275    1.106884
      8          1           0       -6.881248    0.603586   -0.985797
      9          1           0       -5.912489    2.084138   -1.034509
     10          1           0       -7.058165    1.819369    0.290871
     11          6           0       -3.099844   -0.769877    0.314430
     12          6           0       -2.076205   -1.469118   -0.580673
     13          6           0       -0.972231   -2.165268    0.215825
     14          1           0       -2.582539   -0.034349    0.945927
     15          1           0       -3.546379   -1.507335    0.995391
     16          1           0       -1.632194   -0.729945   -1.259713
     17          1           0       -2.595480   -2.202132   -1.211276
     18          1           0       -1.397129   -2.923357    0.881680
     19          1           0       -0.428370   -1.442806    0.832968
     20          1           0       -0.251453   -2.658588   -0.443700
     21          6           0        3.134339   -2.179040   -0.001330
     22          6           0        2.501074   -1.571512    1.087893
     23          6           0        2.340966   -0.183370    1.132334
     24          6           0        2.828345    0.570174    0.065599
     25          6           0        3.463689   -0.005681   -1.033500
     26          6           0        3.612782   -1.395566   -1.056690
     27          1           0        3.254436   -3.258060   -0.027599
     28          1           0        2.128521   -2.177466    1.908910
     29          1           0        1.854603    0.312935    1.963328
     30          1           0        3.824648    0.624725   -1.837064
     31          1           0        4.104991   -1.864658   -1.903879
     32          7           0        2.664676    2.040661    0.101398
     33          8           0        3.102857    2.682278   -0.850948
     34          8           0        2.101311    2.523767    1.081124
 ---------------------------------------------------------------------

 SCF Done:  E(RHF) =  -669.534672801     A.U. after   15 cycles
 E2 =    -0.2092458777D+01 EUMP2 =    -0.67162713157886D+03

 The electronic state is 1-A.
 Alpha  occ. eigenvalues --  -20.60806 -20.60801 -15.85858 -11.31227 -11.27760
 Alpha  occ. eigenvalues --  -11.27753 -11.27491 -11.26808 -11.26775 -11.21743
 Alpha  occ. eigenvalues --  -11.21535 -11.21450 -11.21344 -11.21332 -11.20979
 Alpha  occ. eigenvalues --   -1.59882  -1.39435  -1.19387  -1.08783  -1.08466
 Alpha  occ. eigenvalues --   -1.04796  -1.03587  -0.96054  -0.95618  -0.87086
 Alpha  occ. eigenvalues --   -0.86179  -0.82454  -0.79666  -0.78272  -0.77498
 Alpha  occ. eigenvalues --   -0.72076  -0.71205  -0.70487  -0.65103  -0.65031
 Alpha  occ. eigenvalues --   -0.64789  -0.62143  -0.60993  -0.59432  -0.57659
 Alpha  occ. eigenvalues --   -0.55411  -0.55278  -0.53280  -0.52887  -0.52602
 Alpha  occ. eigenvalues --   -0.52450  -0.49967  -0.48835  -0.48832  -0.47984
 Alpha  occ. eigenvalues --   -0.46684  -0.45820  -0.45726  -0.44839  -0.43847
 Alpha  occ. eigenvalues --   -0.37342  -0.36294
 Alpha virt. eigenvalues --    0.04992   0.11223   0.16426   0.21156   0.22856
 Alpha virt. eigenvalues --    0.24241   0.26377   0.26831   0.27533   0.28202
 Alpha virt. eigenvalues --    0.28408   0.30757   0.31357   0.31722   0.32105

 Mulliken charges:
               1
     1  C   -0.298609
     2  C   -0.300079
     3  C   -0.475906
     4  H    0.152010
     5  H    0.148627
     6  H    0.154075
     7  H    0.150787
     8  H    0.154333
     9  H    0.156632
    10  H    0.160525
    11  C   -0.299015
    12  C   -0.299624
    13  C   -0.476623
    14  H    0.151525
    15  H    0.148141
    16  H    0.154585
    17  H    0.151096
    18  H    0.151037
    19  H    0.154605
    20  H    0.157429
    21  C   -0.172470
    22  C   -0.210951
    23  C   -0.173466
    24  C    0.159087
    25  C   -0.171805
    26  C   -0.218260
    27  H    0.225795
    28  H    0.225081
    29  H    0.275248
    30  H    0.275508
    31  H    0.223579
    32  N    0.487979
    33  O   -0.460216
    34  O   -0.460659
 Sum of Mulliken charges =  -0.00000

 Dipole moment (field-independent basis, Debye):
    X=              0.6098    Y=             -5.1411    Z=             -0.1397  Tot=              5.1791
 Quadrupole moment (field-independent basis, Debye-Ang):
   XX=            -91.4611   YY=           -101.0415   ZZ=            -91.2357
   XY=            -13.6803   XZ=             -3.0291   YZ=             -0.5805

 Normal termination of Gaussian 16 at Thu May  6 08:57:23 2021.
