 Gaussian 16, Revision A.03,
 Gaussian 16:  EM64L-G16RevA.03 25-Dec-2016

 -------------
 #p 6-31g* mp2
 -------------

 ------------------------------------------------------
 Input file generated by CHIRIPA (05-May-2021 14:57:24)
 ------------------------------------------------------
 Symbolic Z-matrix:
 Charge =  0 Multiplicity = 1

                         Standard orientation:
 ---------------------------------------------------------------------
 Center     Atomic      Atomic             Coordinates (Angstroms)
 Number     Number       Type             X           Y           Z
 ---------------------------------------------------------------------
      1          6           0       -4.092391    1.755028   -0.840196
      2          6           0       -3.382796    2.025034    0.334577
      3          6           0       -2.689695    1.006476    0.995409
      4          6           0       -2.727712   -0.276333    0.451126
      5          6           0       -3.425628   -0.576866   -0.717584
      6          6           0       -4.111508    0.457228   -1.361608
      7          1           0       -4.628004    2.552302   -1.347018
      8          1           0       -3.366194    3.031977    0.741805
      9          1           0       -2.132346    1.187695    1.906420
     10          1           0       -3.423690   -1.590597   -1.099372
     11          1           0       -4.661750    0.244622   -2.273791
     12          7           0       -1.997779   -1.362858    1.141822
     13          8           0       -2.046881   -2.484605    0.641913
     14          8           0       -1.390377   -1.072156    2.170021
     15          6           0        5.078932    0.799479    0.609185
     16          6           0        4.956979   -0.420346   -0.064370
     17          6           0        3.725785   -0.819591   -0.592871
     18          6           0        2.632336    0.029373   -0.428792
     19          6           0        2.721955    1.250726    0.237207
     20          6           0        3.962999    1.629658    0.757562
     21          1           0        6.039179    1.101732    1.016574
     22          1           0        5.821927   -1.067093   -0.181105
     23          1           0        3.603236   -1.758632   -1.118799
     24          1           0        1.841815    1.874155    0.337740
     25          1           0        4.054760    2.577545    1.280185
     26          7           0        1.323713   -0.382537   -0.983982
     27          8           0        0.375511    0.383367   -0.826060
     28          8           0        1.270996   -1.463497   -1.566547
 ---------------------------------------------------------------------

 SCF Done:  E(RHF) =  -868.338277744     A.U. after   16 cycles
 E2 =    -0.2600750824D+01 EUMP2 =    -0.87093902856807D+03

 The electronic state is 1-A.
 Alpha  occ. eigenvalues --  -20.60635 -20.60570 -20.59594 -20.59526 -15.85635
 Alpha  occ. eigenvalues --  -15.84605 -11.30933 -11.29846 -11.27532 -11.27483
 Alpha  occ. eigenvalues --  -11.27259 -11.26535 -11.26509 -11.26503 -11.26422
 Alpha  occ. eigenvalues --  -11.26297 -11.25578 -11.25510  -1.59664  -1.58618
 Alpha  occ. eigenvalues --   -1.39223  -1.38185  -1.19105  -1.18040  -1.08518
 Alpha  occ. eigenvalues --   -1.07485  -1.04510  -1.03491  -0.95367  -0.94345
 Alpha  occ. eigenvalues --   -0.85913  -0.84909  -0.82210  -0.81215  -0.77258
 Alpha  occ. eigenvalues --   -0.76247  -0.71898  -0.71018  -0.70869  -0.70236
 Alpha  occ. eigenvalues --   -0.69802  -0.69265  -0.64773  -0.64529  -0.63762
 Alpha  occ. eigenvalues --   -0.63574  -0.61868  -0.60883  -0.55032  -0.54074
 Alpha  occ. eigenvalues --   -0.52827  -0.52617  -0.51757  -0.51649  -0.48634
 Alpha  occ. eigenvalues --   -0.48602  -0.47618  -0.47601  -0.44672  -0.43609
 Alpha  occ. eigenvalues --   -0.37084  -0.36106  -0.35957  -0.35058
 Alpha virt. eigenvalues --    0.05262   0.06381   0.11554   0.12588   0.16778
 Alpha virt. eigenvalues --    0.17836   0.21623   0.22451   0.27505   0.28261
 Alpha virt. eigenvalues --    0.28550   0.29370   0.31136   0.31919   0.32722

 Mulliken charges:
               1
     1  C   -0.170563
     2  C   -0.218733
     3  C   -0.165638
     4  C    0.177825
     5  C   -0.164109
     6  C   -0.218103
     7  H    0.219863
     8  H    0.215873
     9  H    0.267967
    10  H    0.274704
    11  H    0.219111
    12  N    0.489250
    13  O   -0.458808
    14  O   -0.470442
    15  C   -0.170380
    16  C   -0.218437
    17  C   -0.169134
    18  C    0.161083
    19  C   -0.168260
    20  C   -0.218261
    21  H    0.224861
    22  H    0.223301
    23  H    0.276729
    24  H    0.272072
    25  H    0.221705
    26  N    0.491058
    27  O   -0.470007
    28  O   -0.454526
 Sum of Mulliken charges =  -0.00000

 Dipole moment (field-independent basis, Debye):
    X=              2.2811    Y=              5.0373    Z=             -0.6250  Tot=              5.5649
 Quadrupole moment (field-independent basis, Debye-Ang):
   XX=            -67.1948   YY=           -102.0619   ZZ=           -107.1988
   XY=             -6.4278   XZ=              9.5072   YZ=              6.3547

 Normal termination of Gaussian 16 at Thu May  6 00:17:31 2021.
