 Gaussian 16, Revision A.03,
 Gaussian 16:  EM64L-G16RevA.03 25-Dec-2016

 -------------
 #p 6-31g* mp2
 -------------

 ------------------------------------------------------
 Input file generated by CHIRIPA (05-May-2021 14:55:20)
 ------------------------------------------------------
 Symbolic Z-matrix:
 Charge =  0 Multiplicity = 1

                         Standard orientation:
 ---------------------------------------------------------------------
 Center     Atomic      Atomic             Coordinates (Angstroms)
 Number     Number       Type             X           Y           Z
 ---------------------------------------------------------------------
      1          6           0        2.121859   -1.848655    1.801352
      2          6           0        1.035642   -1.120394    1.305076
      3          6           0        1.226230   -0.137097    0.329703
      4          6           0        2.522371    0.092891   -0.129005
      5          6           0        3.624843   -0.615968    0.345724
      6          6           0        3.410720   -1.594566    1.320939
      7          1           0        1.964664   -2.610679    2.558984
      8          1           0        0.033584   -1.315580    1.676326
      9          1           0        0.403183    0.441457   -0.071902
     10          1           0        4.612032   -0.398818   -0.043790
     11          1           0        4.256162   -2.158596    1.704530
     12          7           0        2.736596    1.131376   -1.161505
     13          8           0        3.888386    1.314934   -1.549220
     14          8           0        1.748659    1.742119   -1.563512
     15          6           0       -3.407069    0.590962    0.488193
     16          6           0       -2.604785    1.892607    0.495113
     17          6           0       -3.063922    2.864247    1.582725
     18          1           0       -4.471367    0.824421    0.347799
     19          1           0       -3.319833    0.109396    1.472001
     20          1           0       -2.692378    2.370880   -0.488858
     21          1           0       -1.542250    1.656009    0.635315
     22          1           0       -2.960285    2.410308    2.573583
     23          1           0       -4.116948    3.129241    1.443023
     24          1           0       -2.477018    3.787953    1.569662
     25          6           0       -2.959817   -0.390606   -0.593572
     26          6           0       -3.762101   -1.692251   -0.600493
     27          6           0       -3.302964   -2.663891   -1.688105
     28          1           0       -3.047052    0.090960   -1.577382
     29          1           0       -1.895518   -0.624065   -0.453179
     30          1           0       -4.824636   -1.455653   -0.740694
     31          1           0       -3.674507   -2.170524    0.383478
     32          1           0       -2.249938   -2.928885   -1.548404
     33          1           0       -3.406601   -2.209953   -2.678964
     34          1           0       -3.889868   -3.587598   -1.675042
 ---------------------------------------------------------------------

 SCF Done:  E(RHF) =  -669.535156847     A.U. after   15 cycles
 E2 =    -0.2092558295D+01 EUMP2 =    -0.67162771514211D+03

 The electronic state is 1-A.
 Alpha  occ. eigenvalues --  -20.60750 -20.60744 -15.85802 -11.31178 -11.27763
 Alpha  occ. eigenvalues --  -11.27719 -11.27511 -11.26785 -11.26775 -11.22076
 Alpha  occ. eigenvalues --  -11.21994 -11.21938 -11.21853 -11.21420 -11.21318
 Alpha  occ. eigenvalues --   -1.59824  -1.39377  -1.19361  -1.08914  -1.08754
 Alpha  occ. eigenvalues --   -1.04771  -1.03922  -0.96366  -0.95586  -0.87377
 Alpha  occ. eigenvalues --   -0.86166  -0.82422  -0.79990  -0.78752  -0.77449
 Alpha  occ. eigenvalues --   -0.72022  -0.71147  -0.70483  -0.65607  -0.65003
 Alpha  occ. eigenvalues --   -0.64775  -0.62116  -0.61319  -0.59722  -0.57968
 Alpha  occ. eigenvalues --   -0.55668  -0.55272  -0.53100  -0.53050  -0.52856
 Alpha  occ. eigenvalues --   -0.52768  -0.50317  -0.48783  -0.48775  -0.48291
 Alpha  occ. eigenvalues --   -0.47045  -0.46234  -0.46177  -0.44779  -0.44201
 Alpha  occ. eigenvalues --   -0.37344  -0.36364
 Alpha virt. eigenvalues --    0.05034   0.11259   0.16480   0.18988   0.22895
 Alpha virt. eigenvalues --    0.23844   0.24779   0.26249   0.27417   0.28226
 Alpha virt. eigenvalues --    0.29879   0.31253   0.31339   0.31681   0.32026

 Mulliken charges:
               1
     1  C   -0.170692
     2  C   -0.222667
     3  C   -0.182594
     4  C    0.160305
     5  C   -0.170190
     6  C   -0.218803
     7  H    0.225643
     8  H    0.223924
     9  H    0.288977
    10  H    0.275686
    11  H    0.223584
    12  N    0.487266
    13  O   -0.460572
    14  O   -0.459825
    15  C   -0.299406
    16  C   -0.303412
    17  C   -0.475791
    18  H    0.153527
    19  H    0.144364
    20  H    0.160571
    21  H    0.146992
    22  H    0.152745
    23  H    0.156731
    24  H    0.165260
    25  C   -0.302515
    26  C   -0.299424
    27  C   -0.476091
    28  H    0.157338
    29  H    0.141932
    30  H    0.154935
    31  H    0.147869
    32  H    0.154380
    33  H    0.158895
    34  H    0.161056
 Sum of Mulliken charges =  -0.00000

 Dipole moment (field-independent basis, Debye):
    X=             -0.8787    Y=             -3.5611    Z=              3.5323  Tot=              5.0922
 Quadrupole moment (field-independent basis, Debye-Ang):
   XX=            -92.7217   YY=            -96.0932   ZZ=            -96.4887
   XY=            -10.9457   XZ=             10.3849   YZ=             -0.1263

 Normal termination of Gaussian 16 at Thu May  6 06:07:48 2021.
