 Gaussian 16, Revision A.03,
 Gaussian 16:  EM64L-G16RevA.03 25-Dec-2016

 -------------
 #p 6-31g* mp2
 -------------

 ------------------------------------------------------
 Input file generated by CHIRIPA (05-May-2021 14:57:21)
 ------------------------------------------------------
 Symbolic Z-matrix:
 Charge =  0 Multiplicity = 1

                         Standard orientation:
 ---------------------------------------------------------------------
 Center     Atomic      Atomic             Coordinates (Angstroms)
 Number     Number       Type             X           Y           Z
 ---------------------------------------------------------------------
      1          6           0       -3.712752   -2.374626   -0.105872
      2          6           0       -4.883386   -1.636730   -0.309944
      3          6           0       -4.854109   -0.239115   -0.290887
      4          6           0       -3.631441    0.390861   -0.063944
      5          6           0       -2.448091   -0.316431    0.142725
      6          6           0       -2.500977   -1.713287    0.119414
      7          1           0       -3.744665   -3.460032   -0.122327
      8          1           0       -5.825886   -2.147659   -0.485133
      9          1           0       -5.745359    0.356750   -0.445920
     10          1           0       -1.523517    0.221084    0.314940
     11          1           0       -1.590273   -2.283767    0.278208
     12          7           0       -3.587950    1.870052   -0.041518
     13          8           0       -2.498151    2.401257    0.160464
     14          8           0       -4.644483    2.470228   -0.226348
     15          6           0        5.889071    0.659198   -0.739373
     16          6           0        5.540415    0.791241    0.608783
     17          6           0        4.296199    0.348023    1.067077
     18          6           0        3.421043   -0.225020    0.145659
     19          6           0        3.739316   -0.370494   -1.203721
     20          6           0        4.988995    0.079773   -1.639736
     21          1           0        6.857729    1.006238   -1.086733
     22          1           0        6.237426    1.240836    1.310270
     23          1           0        4.000604    0.437968    2.105322
     24          1           0        3.023439   -0.822817   -1.879253
     25          1           0        5.257074   -0.024061   -2.687302
     26          7           0        2.100955   -0.697966    0.619041
     27          8           0        1.347721   -1.199320   -0.212776
     28          8           0        1.844500   -0.558352    1.812933
 ---------------------------------------------------------------------

 SCF Done:  E(RHF) =  -868.341271747     A.U. after   16 cycles
 E2 =    -0.2598569601D+01 EUMP2 =    -0.87093984134757D+03

 The electronic state is 1-A.
 Alpha  occ. eigenvalues --  -20.61618 -20.61603 -20.59824 -20.59812 -15.86603
 Alpha  occ. eigenvalues --  -15.84860 -11.31610 -11.29971 -11.28145 -11.28125
 Alpha  occ. eigenvalues --  -11.27826 -11.27079 -11.27065 -11.26603 -11.26321
 Alpha  occ. eigenvalues --  -11.26245 -11.25617 -11.25249  -1.60661  -1.58900
 Alpha  occ. eigenvalues --   -1.40220  -1.38459  -1.19750  -1.18121  -1.09217
 Alpha  occ. eigenvalues --   -1.07585  -1.05100  -1.03440  -0.96111  -0.94454
 Alpha  occ. eigenvalues --   -0.86516  -0.84877  -0.82957  -0.81261  -0.78038
 Alpha  occ. eigenvalues --   -0.76327  -0.72838  -0.71939  -0.71090  -0.70860
 Alpha  occ. eigenvalues --   -0.70218  -0.69253  -0.65410  -0.65105  -0.63759
 Alpha  occ. eigenvalues --   -0.63422  -0.62451  -0.60759  -0.55624  -0.54031
 Alpha  occ. eigenvalues --   -0.53444  -0.53190  -0.51852  -0.51500  -0.49614
 Alpha  occ. eigenvalues --   -0.49572  -0.47851  -0.47821  -0.45694  -0.43919
 Alpha  occ. eigenvalues --   -0.37709  -0.36682  -0.36153  -0.35041
 Alpha virt. eigenvalues --    0.04456   0.06139   0.10979   0.12584   0.16025
 Alpha virt. eigenvalues --    0.17680   0.21123   0.22775   0.27069   0.27944
 Alpha virt. eigenvalues --    0.28861   0.29501   0.30772   0.32142   0.32365

 Mulliken charges:
               1
     1  C   -0.172553
     2  C   -0.219290
     3  C   -0.173532
     4  C    0.157238
     5  C   -0.171634
     6  C   -0.222751
     7  H    0.221591
     8  H    0.218152
     9  H    0.270869
    10  H    0.283734
    11  H    0.241930
    12  N    0.488118
    13  O   -0.461578
    14  O   -0.465225
    15  C   -0.169311
    16  C   -0.218519
    17  C   -0.169308
    18  C    0.158239
    19  C   -0.169678
    20  C   -0.218454
    21  H    0.227583
    22  H    0.225466
    23  H    0.276962
    24  H    0.275300
    25  H    0.225028
    26  N    0.489969
    27  O   -0.471186
    28  O   -0.457161
 Sum of Mulliken charges =  -0.00000

 Dipole moment (field-independent basis, Debye):
    X=              5.1925    Y=             -3.5676    Z=             -1.6671  Tot=              6.5168
 Quadrupole moment (field-independent basis, Debye-Ang):
   XX=            -68.1879   YY=           -110.9568   ZZ=           -101.5839
   XY=             24.3249   XZ=             -2.8175   YZ=              2.4328

 Normal termination of Gaussian 16 at Thu May  6 12:49:21 2021.
