 Gaussian 16, Revision A.03,
 Gaussian 16:  EM64L-G16RevA.03 25-Dec-2016

 -------------
 #p 6-31g* mp2
 -------------

 ------------------------------------------------------
 Input file generated by CHIRIPA (05-May-2021 14:51:13)
 ------------------------------------------------------
 Symbolic Z-matrix:
 Charge =  0 Multiplicity = 1

                         Standard orientation:
 ---------------------------------------------------------------------
 Center     Atomic      Atomic             Coordinates (Angstroms)
 Number     Number       Type             X           Y           Z
 ---------------------------------------------------------------------
      1          6           0       -4.884958   -0.409361    0.340127
      2          6           0       -6.037611   -0.374923   -0.663960
      3          6           0       -7.363981   -0.833717   -0.057293
      4          1           0       -4.777483   -1.430659    0.730439
      5          1           0       -5.136635    0.228513    1.198714
      6          1           0       -5.783243   -1.011579   -1.521038
      7          1           0       -6.142231    0.646371   -1.052070
      8          1           0       -7.644245   -0.193244    0.785231
      9          1           0       -7.283218   -1.860614    0.313599
     10          1           0       -8.174219   -0.801234   -0.792357
     11          6           0       -3.552336    0.046530   -0.251490
     12          6           0       -2.399683    0.012093    0.752597
     13          6           0       -1.073313    0.470886    0.145931
     14          1           0       -3.300659   -0.591343   -1.110077
     15          1           0       -3.659811    1.067828   -0.641802
     16          1           0       -2.295063   -1.009201    1.140707
     17          1           0       -2.654051    0.648749    1.609675
     18          1           0       -1.154076    1.497783   -0.224962
     19          1           0       -0.793049   -0.169587   -0.696594
     20          1           0       -0.263075    0.438403    0.880995
     21          6           0        3.976213    0.890740   -0.191001
     22          6           0        2.517006    1.125953    0.200634
     23          6           0        2.046640    2.549611   -0.098945
     24          1           0        4.613000    1.608921    0.343473
     25          1           0        4.099429    1.100763   -1.262497
     26          1           0        2.396287    0.914216    1.270779
     27          1           0        1.883638    0.407004   -0.334690
     28          1           0        2.138379    2.768770   -1.167661
     29          1           0        2.653941    3.278864    0.446929
     30          1           0        1.000845    2.695806    0.188806
     31          6           0        4.461081   -0.527909    0.102364
     32          6           0        5.920287   -0.763123   -0.289271
     33          6           0        6.390654   -2.186781    0.010307
     34          1           0        4.337865   -0.737932    1.173859
     35          1           0        3.824293   -1.246090   -0.432111
     36          1           0        6.553656   -0.044173    0.246052
     37          1           0        6.041008   -0.551385   -1.359415
     38          1           0        5.783353   -2.916033   -0.535566
     39          1           0        6.298914   -2.405939    1.079023
     40          1           0        7.436449   -2.332975   -0.277443
 ---------------------------------------------------------------------

 SCF Done:  E(RHF) =  -470.731813680     A.U. after   11 cycles
 E2 =    -0.1583559379D+01 EUMP2 =    -0.47231537305822D+03

 The electronic state is 1-A.
 Alpha  occ. eigenvalues --  -11.21599 -11.21574 -11.21568 -11.21467 -11.21398
 Alpha  occ. eigenvalues --  -11.21347 -11.21339 -11.21277 -11.21070 -11.21049
 Alpha  occ. eigenvalues --  -11.21009 -11.20913  -1.08432  -1.08360  -1.03577
 Alpha  occ. eigenvalues --   -1.03413  -0.96065  -0.95829  -0.87030  -0.86905
 Alpha  occ. eigenvalues --   -0.79683  -0.79466  -0.78261  -0.78156  -0.65061
 Alpha  occ. eigenvalues --   -0.64996  -0.60952  -0.60857  -0.59669  -0.59049
 Alpha  occ. eigenvalues --   -0.57659  -0.57440  -0.55286  -0.55201  -0.52820
 Alpha  occ. eigenvalues --   -0.52508  -0.52408  -0.52208  -0.49971  -0.49805
 Alpha  occ. eigenvalues --   -0.47981  -0.47766  -0.46679  -0.46491  -0.45796
 Alpha  occ. eigenvalues --   -0.45747  -0.45685  -0.45604  -0.43751  -0.43649
 Alpha virt. eigenvalues --    0.22216   0.23014   0.23536   0.24945   0.26263
 Alpha virt. eigenvalues --    0.26610   0.26842   0.27511   0.27774   0.29116
 Alpha virt. eigenvalues --    0.30141   0.30431   0.31417   0.31915   0.32445

 Mulliken charges:
               1
     1  C   -0.298213
     2  C   -0.299589
     3  C   -0.475690
     4  H    0.149615
     5  H    0.149486
     6  H    0.151863
     7  H    0.151921
     8  H    0.155178
     9  H    0.155162
    10  H    0.160234
    11  C   -0.298732
    12  C   -0.300282
    13  C   -0.479882
    14  H    0.149332
    15  H    0.149601
    16  H    0.151752
    17  H    0.151581
    18  H    0.156227
    19  H    0.153991
    20  H    0.167885
    21  C   -0.297747
    22  C   -0.303201
    23  C   -0.478897
    24  H    0.149111
    25  H    0.149238
    26  H    0.149526
    27  H    0.158114
    28  H    0.154271
    29  H    0.153912
    30  H    0.165095
    31  C   -0.298180
    32  C   -0.299558
    33  C   -0.475647
    34  H    0.149165
    35  H    0.149341
    36  H    0.151906
    37  H    0.151854
    38  H    0.155040
    39  H    0.155079
    40  H    0.160140
 Sum of Mulliken charges =  -0.00000

 Dipole moment (field-independent basis, Debye):
    X=             -0.0300    Y=             -0.0074    Z=             -0.0024  Tot=              0.0310
 Quadrupole moment (field-independent basis, Debye-Ang):
   XX=            -86.3189   YY=            -84.9124   ZZ=            -83.9645
   XY=             -0.0294   XZ=              0.4365   YZ=              0.7994

 Normal termination of Gaussian 16 at Wed May  5 19:56:47 2021.
