 Gaussian 16, Revision A.03,
 Gaussian 16:  EM64L-G16RevA.03 25-Dec-2016

 -------------
 #p 6-31g* mp2
 -------------

 ------------------------------------------------------
 Input file generated by CHIRIPA (05-May-2021 14:51:07)
 ------------------------------------------------------
 Symbolic Z-matrix:
 Charge =  0 Multiplicity = 1

                         Standard orientation:
 ---------------------------------------------------------------------
 Center     Atomic      Atomic             Coordinates (Angstroms)
 Number     Number       Type             X           Y           Z
 ---------------------------------------------------------------------
      1          6           0        3.522677   -0.330915    0.072972
      2          6           0        3.044502   -1.435588   -0.869912
      3          6           0        3.529677   -2.823117   -0.449003
      4          1           0        4.620547   -0.340775    0.112084
      5          1           0        3.171666   -0.549921    1.090922
      6          1           0        3.395140   -1.213842   -1.886031
      7          1           0        1.947649   -1.422973   -0.906932
      8          1           0        3.168006   -3.069680    0.554492
      9          1           0        4.623721   -2.859361   -0.430170
     10          1           0        3.176359   -3.597696   -1.136791
     11          6           0        3.045738    1.061971   -0.334616
     12          6           0        3.523914    2.166645    0.608268
     13          6           0        3.038738    3.554173    0.187359
     14          1           0        3.396750    1.280977   -1.352566
     15          1           0        1.947869    1.071831   -0.373728
     16          1           0        4.620767    2.154029    0.645288
     17          1           0        3.173275    1.944898    1.624387
     18          1           0        1.944694    3.590417    0.168526
     19          1           0        3.400410    3.800736   -0.816136
     20          1           0        3.392056    4.328753    0.875147
     21          6           0       -4.037153   -0.242666    0.168386
     22          6           0       -4.476215    1.048016   -0.523963
     23          6           0       -5.985194    1.279909   -0.440281
     24          1           0       -4.565839   -1.092447   -0.284724
     25          1           0       -4.345912   -0.208475    1.222376
     26          1           0       -4.165500    1.011995   -1.575996
     27          1           0       -3.946278    1.894803   -0.069280
     28          1           0       -6.308058    1.342179    0.603980
     29          1           0       -6.528525    0.454356   -0.911297
     30          1           0       -6.277159    2.207983   -0.941575
     31          6           0       -2.531262   -0.488390    0.093259
     32          6           0       -2.092201   -1.779073    0.785607
     33          6           0       -0.583221   -2.010965    0.701926
     34          1           0       -2.222503   -0.522581   -0.960731
     35          1           0       -2.002576    0.361391    0.546369
     36          1           0       -2.622137   -2.625859    0.330924
     37          1           0       -2.402916   -1.743052    1.837641
     38          1           0       -0.039890   -1.185412    1.172942
     39          1           0       -0.260357   -2.073235   -0.342335
     40          1           0       -0.291256   -2.939039    1.203219
 ---------------------------------------------------------------------

 SCF Done:  E(RHF) =  -470.733066712     A.U. after   11 cycles
 E2 =    -0.1583087647D+01 EUMP2 =    -0.47231615435900D+03

 The electronic state is 1-A.
 Alpha  occ. eigenvalues --  -11.21673 -11.21636 -11.21568 -11.21465 -11.21431
 Alpha  occ. eigenvalues --  -11.21401 -11.21335 -11.21269 -11.21169 -11.21097
 Alpha  occ. eigenvalues --  -11.21050 -11.20967  -1.08490  -1.08352  -1.03599
 Alpha  occ. eigenvalues --   -1.03445  -0.96049  -0.95906  -0.87072  -0.86920
 Alpha  occ. eigenvalues --   -0.79693  -0.79490  -0.78312  -0.78155  -0.65118
 Alpha  occ. eigenvalues --   -0.64994  -0.61022  -0.60840  -0.59411  -0.59280
 Alpha  occ. eigenvalues --   -0.57662  -0.57508  -0.55383  -0.55152  -0.52731
 Alpha  occ. eigenvalues --   -0.52612  -0.52491  -0.52325  -0.50010  -0.49839
 Alpha  occ. eigenvalues --   -0.48097  -0.47761  -0.46761  -0.46451  -0.45934
 Alpha  occ. eigenvalues --   -0.45770  -0.45674  -0.45458  -0.43843  -0.43708
 Alpha virt. eigenvalues --    0.20957   0.22979   0.23840   0.24591   0.26119
 Alpha virt. eigenvalues --    0.26251   0.27155   0.27560   0.27984   0.29439
 Alpha virt. eigenvalues --    0.30300   0.31041   0.31832   0.31912   0.32364

 Mulliken charges:
               1
     1  C   -0.298068
     2  C   -0.306296
     3  C   -0.475530
     4  H    0.149173
     5  H    0.149492
     6  H    0.150595
     7  H    0.160624
     8  H    0.155806
     9  H    0.154505
    10  H    0.159366
    11  C   -0.299120
    12  C   -0.299516
    13  C   -0.475621
    14  H    0.149379
    15  H    0.150133
    16  H    0.151942
    17  H    0.151431
    18  H    0.154952
    19  H    0.155210
    20  H    0.160058
    21  C   -0.298304
    22  C   -0.299717
    23  C   -0.475752
    24  H    0.149853
    25  H    0.149660
    26  H    0.152092
    27  H    0.151940
    28  H    0.155229
    29  H    0.155251
    30  H    0.160425
    31  C   -0.298411
    32  C   -0.299976
    33  C   -0.479547
    34  H    0.149633
    35  H    0.149184
    36  H    0.152405
    37  H    0.152124
    38  H    0.155683
    39  H    0.158460
    40  H    0.161252
 Sum of Mulliken charges =  -0.00000

 Dipole moment (field-independent basis, Debye):
    X=             -0.0618    Y=             -0.0214    Z=              0.0039  Tot=              0.0655
 Quadrupole moment (field-independent basis, Debye-Ang):
   XX=            -85.4257   YY=            -85.7537   ZZ=            -83.7400
   XY=              0.8389   XZ=             -0.4012   YZ=              0.5511

 Normal termination of Gaussian 16 at Wed May  5 15:02:42 2021.
