 Gaussian 16, Revision A.03,
 Gaussian 16:  EM64L-G16RevA.03 25-Dec-2016

 -------------
 #p 6-31g* mp2
 -------------

 ------------------------------------------------------
 Input file generated by CHIRIPA (05-May-2021 14:51:14)
 ------------------------------------------------------
 Symbolic Z-matrix:
 Charge =  0 Multiplicity = 1

                         Standard orientation:
 ---------------------------------------------------------------------
 Center     Atomic      Atomic             Coordinates (Angstroms)
 Number     Number       Type             X           Y           Z
 ---------------------------------------------------------------------
      1          6           0        2.838078    0.104061    0.878491
      2          6           0        1.723945   -0.706487    1.541595
      3          6           0        0.885940    0.125085    2.513206
      4          1           0        3.488213    0.526787    1.656676
      5          1           0        2.394397    0.956104    0.345046
      6          1           0        2.169481   -1.557531    2.072479
      7          1           0        1.076498   -1.127491    0.761734
      8          1           0        0.414712    0.965649    1.993594
      9          1           0        1.513905    0.533165    3.311787
     10          1           0        0.095406   -0.473971    2.975860
     11          6           0        3.684546   -0.713499   -0.095580
     12          6           0        4.798679    0.097049   -0.758683
     13          6           0        5.636684   -0.734523   -1.730295
     14          1           0        4.128227   -1.565543    0.437866
     15          1           0        3.034411   -1.136225   -0.873765
     16          1           0        5.446126    0.518052    0.021178
     17          1           0        4.353143    0.948093   -1.289567
     18          1           0        5.008719   -1.142604   -2.528875
     19          1           0        6.107912   -1.575087   -1.210682
     20          1           0        6.427218   -0.135467   -2.192949
     21          6           0       -3.313679   -0.453850   -0.463998
     22          6           0       -4.731474   -0.986605   -0.254199
     23          6           0       -4.820110   -2.505792   -0.402547
     24          1           0       -2.962621   -0.747263   -1.462804
     25          1           0       -2.638570   -0.933708    0.258054
     26          1           0       -5.403957   -0.504857   -0.975518
     27          1           0       -5.079270   -0.691725    0.744149
     28          1           0       -4.172239   -3.002543    0.326905
     29          1           0       -4.498771   -2.814613   -1.402534
     30          1           0       -5.842343   -2.865238   -0.248601
     31          6           0       -3.208945    1.063289   -0.318913
     32          6           0       -1.791150    1.596043   -0.528712
     33          6           0       -1.702514    3.115231   -0.380365
     34          1           0       -3.884053    1.543146   -1.040965
     35          1           0       -3.560003    1.356701    0.679893
     36          1           0       -1.443354    1.301164   -1.527061
     37          1           0       -1.118667    1.114296    0.192607
     38          1           0       -2.023853    3.424051    0.619621
     39          1           0       -2.350385    3.611981   -1.109817
     40          1           0       -0.680281    3.474676   -0.534311
 ---------------------------------------------------------------------

 SCF Done:  E(RHF) =  -470.733330301     A.U. after   11 cycles
 E2 =    -0.1582883375D+01 EUMP2 =    -0.47231621367660D+03

 The electronic state is 1-A.
 Alpha  occ. eigenvalues --  -11.21623 -11.21609 -11.21606 -11.21602 -11.21417
 Alpha  occ. eigenvalues --  -11.21410 -11.21357 -11.21350 -11.21106 -11.21105
 Alpha  occ. eigenvalues --  -11.21078 -11.21071  -1.08456  -1.08427  -1.03575
 Alpha  occ. eigenvalues --   -1.03520  -0.96010  -0.95984  -0.87028  -0.86998
 Alpha  occ. eigenvalues --   -0.79647  -0.79573  -0.78268  -0.78240  -0.65182
 Alpha  occ. eigenvalues --   -0.64980  -0.61144  -0.60772  -0.59378  -0.59347
 Alpha  occ. eigenvalues --   -0.57642  -0.57572  -0.55369  -0.55207  -0.52696
 Alpha  occ. eigenvalues --   -0.52687  -0.52439  -0.52403  -0.50043  -0.49855
 Alpha  occ. eigenvalues --   -0.48011  -0.47850  -0.46776  -0.46490  -0.45869
 Alpha  occ. eigenvalues --   -0.45768  -0.45728  -0.45593  -0.43801  -0.43797
 Alpha virt. eigenvalues --    0.20406   0.23196   0.23720   0.24498   0.26322
 Alpha virt. eigenvalues --    0.26800   0.26895   0.27686   0.28253   0.29158
 Alpha virt. eigenvalues --    0.30583   0.31559   0.31625   0.31715   0.31946

 Mulliken charges:
               1
     1  C   -0.298471
     2  C   -0.300726
     3  C   -0.480403
     4  H    0.149649
     5  H    0.149826
     6  H    0.152175
     7  H    0.152998
     8  H    0.159383
     9  H    0.155811
    10  H    0.159554
    11  C   -0.298384
    12  C   -0.299678
    13  C   -0.475715
    14  H    0.149484
    15  H    0.149972
    16  H    0.151911
    17  H    0.151966
    18  H    0.155212
    19  H    0.155179
    20  H    0.160250
    21  C   -0.298805
    22  C   -0.299680
    23  C   -0.475734
    24  H    0.149398
    25  H    0.149953
    26  H    0.151966
    27  H    0.152086
    28  H    0.155228
    29  H    0.155122
    30  H    0.160307
    31  C   -0.297585
    32  C   -0.308480
    33  C   -0.475727
    34  H    0.149555
    35  H    0.149923
    36  H    0.151511
    37  H    0.160134
    38  H    0.155544
    39  H    0.155601
    40  H    0.159689
 Sum of Mulliken charges =  -0.00000

 Dipole moment (field-independent basis, Debye):
    X=              0.0010    Y=             -0.0001    Z=              0.0059  Tot=              0.0060
 Quadrupole moment (field-independent basis, Debye-Ang):
   XX=            -84.8532   YY=            -86.1372   ZZ=            -83.7513
   XY=             -0.1127   XZ=              1.1614   YZ=             -0.7079

 Normal termination of Gaussian 16 at Thu May  6 05:36:39 2021.
