 Gaussian 16, Revision A.03,
 Gaussian 16:  EM64L-G16RevA.03 25-Dec-2016

 -------------
 #p 6-31g* mp2
 -------------

 ------------------------------------------------------
 Input file generated by CHIRIPA (05-May-2021 14:51:13)
 ------------------------------------------------------
 Symbolic Z-matrix:
 Charge =  0 Multiplicity = 1

                         Standard orientation:
 ---------------------------------------------------------------------
 Center     Atomic      Atomic             Coordinates (Angstroms)
 Number     Number       Type             X           Y           Z
 ---------------------------------------------------------------------
      1          6           0       -2.687113   -0.478050    0.540487
      2          6           0       -1.942942   -1.789841    0.792278
      3          6           0       -0.677689   -1.600416    1.629564
      4          1           0       -2.013307    0.227158    0.034906
      5          1           0       -2.949602   -0.022462    1.505336
      6          1           0       -1.683150   -2.243510   -0.172766
      7          1           0       -2.618657   -2.492075    1.297146
      8          1           0       -0.922735   -1.170188    2.606015
      9          1           0        0.018087   -0.920210    1.127752
     10          1           0       -0.161377   -2.550727    1.797465
     11          6           0       -3.954173   -0.651101   -0.295181
     12          6           0       -4.698343    0.660690   -0.546972
     13          6           0       -5.963596    0.471265   -1.384258
     14          1           0       -3.691684   -1.106690   -1.260030
     15          1           0       -4.627978   -1.356310    0.210400
     16          1           0       -4.022628    1.362924   -1.051841
     17          1           0       -4.958135    1.114358    0.418072
     18          1           0       -6.659372   -0.208942   -0.882446
     19          1           0       -5.718550    0.041036   -2.360710
     20          1           0       -6.479908    1.421575   -1.552159
     21          6           0        3.096159    1.289111   -0.032724
     22          6           0        1.701432    1.420169    0.580094
     23          6           0        1.266407    2.875640    0.753731
     24          1           0        3.820245    1.816321    0.603431
     25          1           0        3.109721    1.795640   -1.007733
     26          1           0        1.690121    0.912353    1.553033
     27          1           0        0.980612    0.892423   -0.057494
     28          1           0        1.249442    3.390510   -0.212304
     29          1           0        1.962983    3.410554    1.407375
     30          1           0        0.266582    2.946101    1.193326
     31          6           0        3.545126   -0.159960   -0.212582
     32          6           0        4.939853   -0.291017   -0.825400
     33          6           0        5.374878   -1.746489   -0.999036
     34          1           0        3.531565   -0.666488    0.762426
     35          1           0        2.821040   -0.687170   -0.848738
     36          1           0        5.660673    0.236729   -0.187812
     37          1           0        4.951164    0.216798   -1.798339
     38          1           0        4.678302   -2.281402   -1.652681
     39          1           0        5.391844   -2.261358   -0.033003
     40          1           0        6.374703   -1.816950   -1.438633
 ---------------------------------------------------------------------

 SCF Done:  E(RHF) =  -470.732666386     A.U. after   11 cycles
 E2 =    -0.1583386265D+01 EUMP2 =    -0.47231605265140D+03

 The electronic state is 1-A.
 Alpha  occ. eigenvalues --  -11.21637 -11.21620 -11.21590 -11.21532 -11.21433
 Alpha  occ. eigenvalues --  -11.21382 -11.21373 -11.21322 -11.21096 -11.21081
 Alpha  occ. eigenvalues --  -11.21063 -11.20866  -1.08471  -1.08390  -1.03577
 Alpha  occ. eigenvalues --   -1.03463  -0.96005  -0.95923  -0.87039  -0.86927
 Alpha  occ. eigenvalues --   -0.79736  -0.79470  -0.78338  -0.78149  -0.65117
 Alpha  occ. eigenvalues --   -0.65009  -0.60991  -0.60864  -0.59422  -0.59257
 Alpha  occ. eigenvalues --   -0.57662  -0.57491  -0.55289  -0.55226  -0.52716
 Alpha  occ. eigenvalues --   -0.52611  -0.52485  -0.52297  -0.49951  -0.49910
 Alpha  occ. eigenvalues --   -0.48174  -0.47660  -0.46726  -0.46573  -0.45946
 Alpha  occ. eigenvalues --   -0.45758  -0.45686  -0.45363  -0.43807  -0.43738
 Alpha virt. eigenvalues --    0.21334   0.23136   0.23681   0.24696   0.25967
 Alpha virt. eigenvalues --    0.26207   0.27147   0.27247   0.28325   0.29209
 Alpha virt. eigenvalues --    0.30765   0.31281   0.31767   0.31818   0.32067

 Mulliken charges:
               1
     1  C   -0.299770
     2  C   -0.299121
     3  C   -0.484958
     4  H    0.150283
     5  H    0.149395
     6  H    0.150971
     7  H    0.151458
     8  H    0.153517
     9  H    0.167454
    10  H    0.159053
    11  C   -0.298169
    12  C   -0.299633
    13  C   -0.475677
    14  H    0.149285
    15  H    0.149783
    16  H    0.151829
    17  H    0.151895
    18  H    0.155191
    19  H    0.155095
    20  H    0.160210
    21  C   -0.297628
    22  C   -0.305604
    23  C   -0.475554
    24  H    0.149871
    25  H    0.149300
    26  H    0.156025
    27  H    0.153677
    28  H    0.154899
    29  H    0.155387
    30  H    0.161328
    31  C   -0.299145
    32  C   -0.299567
    33  C   -0.475709
    34  H    0.150453
    35  H    0.149391
    36  H    0.152070
    37  H    0.151872
    38  H    0.155171
    39  H    0.155387
    40  H    0.160282
 Sum of Mulliken charges =  -0.00000

 Dipole moment (field-independent basis, Debye):
    X=              0.0556    Y=              0.0379    Z=              0.0040  Tot=              0.0674
 Quadrupole moment (field-independent basis, Debye-Ang):
   XX=            -85.4161   YY=            -85.8509   ZZ=            -83.5797
   XY=              0.5281   XZ=             -0.4883   YZ=             -0.2038

 Normal termination of Gaussian 16 at Thu May  6 05:33:42 2021.
