 Gaussian 16, Revision A.03,
 Gaussian 16:  EM64L-G16RevA.03 25-Dec-2016

 -------------
 #p 6-31g* mp2
 -------------

 ------------------------------------------------------
 Input file generated by CHIRIPA (05-May-2021 14:57:26)
 ------------------------------------------------------
 Symbolic Z-matrix:
 Charge =  0 Multiplicity = 1

                         Standard orientation:
 ---------------------------------------------------------------------
 Center     Atomic      Atomic             Coordinates (Angstroms)
 Number     Number       Type             X           Y           Z
 ---------------------------------------------------------------------
      1          6           0       -5.471767    1.127850   -0.715622
      2          6           0       -4.520860    1.872450   -0.010026
      3          6           0       -3.395957    1.249591    0.538780
      4          6           0       -3.252937   -0.125773    0.362113
      5          6           0       -4.182846   -0.894939   -0.335699
      6          6           0       -5.300028   -0.251038   -0.875925
      7          1           0       -6.342620    1.619875   -1.138615
      8          1           0       -4.651637    2.943455    0.116035
      9          1           0       -2.644352    1.801945    1.089610
     10          1           0       -4.025107   -1.961065   -0.444841
     11          1           0       -6.036896   -0.831829   -1.423420
     12          7           0       -2.066140   -0.796304    0.938567
     13          8           0       -1.963249   -2.009271    0.768974
     14          8           0       -1.261290   -0.096203    1.549070
     15          6           0        5.679956    1.045097    0.303967
     16          6           0        5.548711   -0.345632    0.232047
     17          6           0        4.317149   -0.927198   -0.083519
     18          6           0        3.232810   -0.084300   -0.322316
     19          6           0        3.331804    1.304725   -0.258269
     20          6           0        4.573035    1.864391    0.059012
     21          1           0        6.640419    1.488365    0.549772
     22          1           0        6.406648   -0.984368    0.421796
     23          1           0        4.187512   -2.000845   -0.145912
     24          1           0        2.458526    1.915511   -0.452546
     25          1           0        4.672024    2.944763    0.114161
     26          7           0        1.923892   -0.688386   -0.657299
     27          8           0        0.983822    0.076106   -0.863352
     28          8           0        1.862817   -1.914922   -0.707463
 ---------------------------------------------------------------------

 SCF Done:  E(RHF) =  -868.336805370     A.U. after   16 cycles
 E2 =    -0.2600489853D+01 EUMP2 =    -0.87093729522280D+03

 The electronic state is 1-A.
 Alpha  occ. eigenvalues --  -20.59789 -20.59770 -20.59458 -20.59452 -15.84838
 Alpha  occ. eigenvalues --  -15.84523 -11.30448 -11.30197 -11.27062 -11.27042
 Alpha  occ. eigenvalues --  -11.26865 -11.26828 -11.26800 -11.26652 -11.26148
 Alpha  occ. eigenvalues --  -11.26128 -11.25938 -11.25913  -1.58823  -1.58489
 Alpha  occ. eigenvalues --   -1.38382  -1.38052  -1.18647  -1.18405  -1.07999
 Alpha  occ. eigenvalues --   -1.07745  -1.04096  -1.03871  -0.94798  -0.94532
 Alpha  occ. eigenvalues --   -0.85484  -0.85255  -0.81641  -0.81380  -0.76637
 Alpha  occ. eigenvalues --   -0.76361  -0.71119  -0.70774  -0.70191  -0.69774
 Alpha  occ. eigenvalues --   -0.69668  -0.69542  -0.64307  -0.64116  -0.64070
 Alpha  occ. eigenvalues --   -0.63899  -0.61447  -0.61225  -0.54606  -0.54386
 Alpha  occ. eigenvalues --   -0.52402  -0.52204  -0.52164  -0.51985  -0.47886
 Alpha  occ. eigenvalues --   -0.47795  -0.47516  -0.47480  -0.43934  -0.43159
 Alpha  occ. eigenvalues --   -0.36642  -0.36398  -0.35709  -0.35486
 Alpha virt. eigenvalues --    0.05899   0.06262   0.11945   0.12168   0.17348
 Alpha virt. eigenvalues --    0.17665   0.21996   0.22186   0.27879   0.28060
 Alpha virt. eigenvalues --    0.28911   0.29121   0.31503   0.31699   0.33159

 Mulliken charges:
               1
     1  C   -0.172065
     2  C   -0.218835
     3  C   -0.169012
     4  C    0.163910
     5  C   -0.170146
     6  C   -0.218700
     7  H    0.221745
     8  H    0.219133
     9  H    0.272975
    10  H    0.275740
    11  H    0.220504
    12  N    0.493987
    13  O   -0.457157
    14  O   -0.462270
    15  C   -0.171702
    16  C   -0.218609
    17  C   -0.170558
    18  C    0.161621
    19  C   -0.169331
    20  C   -0.218638
    21  H    0.222830
    22  H    0.221396
    23  H    0.275864
    24  H    0.273709
    25  H    0.220279
    26  N    0.491622
    27  O   -0.462020
    28  O   -0.456270
 Sum of Mulliken charges =  -0.00000

 Dipole moment (field-independent basis, Debye):
    X=              0.5049    Y=              4.2722    Z=             -0.8346  Tot=              4.3822
 Quadrupole moment (field-independent basis, Debye-Ang):
   XX=            -49.8844   YY=            -98.1254   ZZ=           -108.2658
   XY=             -1.0867   XZ=              8.5452   YZ=              1.7950

 Normal termination of Gaussian 16 at Thu May  6 19:46:10 2021.
