 Gaussian 16, Revision A.03,
 Gaussian 16:  EM64L-G16RevA.03 25-Dec-2016

 -------------
 #p 6-31g* mp2
 -------------

 ------------------------------------------------------
 Input file generated by CHIRIPA (05-May-2021 14:55:20)
 ------------------------------------------------------
 Symbolic Z-matrix:
 Charge =  0 Multiplicity = 1

                         Standard orientation:
 ---------------------------------------------------------------------
 Center     Atomic      Atomic             Coordinates (Angstroms)
 Number     Number       Type             X           Y           Z
 ---------------------------------------------------------------------
      1          6           0       -1.068082   -2.517012    0.670246
      2          6           0       -1.296373   -2.201252   -0.673146
      3          6           0       -1.884116   -0.982857   -1.026159
      4          6           0       -2.232677   -0.099695   -0.005464
      5          6           0       -2.018091   -0.385441    1.341975
      6          6           0       -1.429033   -1.609698    1.671753
      7          1           0       -0.610998   -3.465767    0.935450
      8          1           0       -1.017076   -2.903959   -1.453044
      9          1           0       -2.072204   -0.712948   -2.058240
     10          1           0       -2.307290    0.335340    2.097129
     11          1           0       -1.252929   -1.852252    2.715879
     12          7           0       -2.855591    1.193269   -0.366885
     13          8           0       -3.153570    1.954208    0.551166
     14          8           0       -3.034055    1.421272   -1.561373
     15          6           0        2.305156    1.037187   -0.048339
     16          6           0        3.123335    2.296249    0.240329
     17          6           0        2.266573    3.562052    0.278985
     18          1           0        1.783902    1.158298   -1.007804
     19          1           0        1.526199    0.930524    0.719284
     20          1           0        3.901395    2.399753   -0.526826
     21          1           0        3.642853    2.172049    1.199126
     22          1           0        1.499533    3.484474    1.056309
     23          1           0        1.759544    3.713471   -0.679448
     24          1           0        2.871557    4.450128    0.486773
     25          6           0        3.147680   -0.236443   -0.090162
     26          6           0        2.329499   -1.495505   -0.378831
     27          6           0        3.186261   -2.761308   -0.417488
     28          1           0        3.926635   -0.129780   -0.857785
     29          1           0        3.668932   -0.357554    0.869302
     30          1           0        1.809981   -1.371305   -1.337627
     31          1           0        1.551439   -1.599010    0.388323
     32          1           0        3.693291   -2.912728    0.540946
     33          1           0        3.953301   -2.683730   -1.194812
     34          1           0        2.581277   -3.649385   -0.625276
 ---------------------------------------------------------------------

 SCF Done:  E(RHF) =  -669.534390751     A.U. after   15 cycles
 E2 =    -0.2094040408D+01 EUMP2 =    -0.67162843115839D+03

 The electronic state is 1-A.
 Alpha  occ. eigenvalues --  -20.60795 -20.60790 -15.85851 -11.31242 -11.27831
 Alpha  occ. eigenvalues --  -11.27794 -11.27529 -11.26840 -11.26792 -11.21835
 Alpha  occ. eigenvalues --  -11.21618 -11.21570 -11.21555 -11.21410 -11.20858
 Alpha  occ. eigenvalues --   -1.59869  -1.39423  -1.19419  -1.08827  -1.08553
 Alpha  occ. eigenvalues --   -1.04823  -1.03679  -0.96136  -0.95640  -0.87142
 Alpha  occ. eigenvalues --   -0.86220  -0.82471  -0.79755  -0.78360  -0.77510
 Alpha  occ. eigenvalues --   -0.72069  -0.71190  -0.70530  -0.65211  -0.65070
 Alpha  occ. eigenvalues --   -0.64824  -0.62169  -0.61087  -0.59567  -0.57745
 Alpha  occ. eigenvalues --   -0.55429  -0.55309  -0.53287  -0.52914  -0.52793
 Alpha  occ. eigenvalues --   -0.52533  -0.50062  -0.48829  -0.48822  -0.48045
 Alpha  occ. eigenvalues --   -0.46791  -0.45872  -0.45799  -0.44825  -0.43927
 Alpha  occ. eigenvalues --   -0.37263  -0.36397
 Alpha virt. eigenvalues --    0.04995   0.11161   0.16420   0.20709   0.22868
 Alpha virt. eigenvalues --    0.24173   0.26327   0.26928   0.27251   0.27659
 Alpha virt. eigenvalues --    0.28828   0.30657   0.31297   0.31496   0.32112

 Mulliken charges:
               1
     1  C   -0.173592
     2  C   -0.210900
     3  C   -0.171794
     4  C    0.160163
     5  C   -0.171321
     6  C   -0.218867
     7  H    0.226786
     8  H    0.223800
     9  H    0.275568
    10  H    0.275778
    11  H    0.223725
    12  N    0.488141
    13  O   -0.460386
    14  O   -0.460417
    15  C   -0.298755
    16  C   -0.299944
    17  C   -0.476279
    18  H    0.151042
    19  H    0.149078
    20  H    0.151626
    21  H    0.150296
    22  H    0.157006
    23  H    0.158788
    24  H    0.160085
    25  C   -0.297856
    26  C   -0.303917
    27  C   -0.475569
    28  H    0.149583
    29  H    0.148094
    30  H    0.148909
    31  H    0.157166
    32  H    0.155211
    33  H    0.157971
    34  H    0.150781
 Sum of Mulliken charges =  -0.00000

 Dipole moment (field-independent basis, Debye):
    X=              2.0966    Y=             -4.4794    Z=              1.2675  Tot=              5.1056
 Quadrupole moment (field-independent basis, Debye-Ang):
   XX=           -105.9254   YY=            -95.2289   ZZ=            -89.1108
   XY=             10.6987   XZ=             -3.3239   YZ=              0.9617

 Normal termination of Gaussian 16 at Thu May  6 14:08:59 2021.
