 Gaussian 16, Revision A.03,
 Gaussian 16:  EM64L-G16RevA.03 25-Dec-2016

 -------------
 #p 6-31g* mp2
 -------------

 ------------------------------------------------------
 Input file generated by CHIRIPA (05-May-2021 14:57:23)
 ------------------------------------------------------
 Symbolic Z-matrix:
 Charge =  0 Multiplicity = 1

                         Standard orientation:
 ---------------------------------------------------------------------
 Center     Atomic      Atomic             Coordinates (Angstroms)
 Number     Number       Type             X           Y           Z
 ---------------------------------------------------------------------
      1          6           0       -1.511190   -1.756253   -0.584022
      2          6           0       -2.836545   -2.164827   -0.765738
      3          6           0       -3.892133   -1.283514   -0.513609
      4          6           0       -3.584764    0.004842   -0.078923
      5          6           0       -2.274704    0.441610    0.111519
      6          6           0       -1.234986   -0.456629   -0.146744
      7          1           0       -0.697347   -2.447452   -0.782265
      8          1           0       -3.054025   -3.173531   -1.105243
      9          1           0       -4.927378   -1.573616   -0.645999
     10          1           0       -2.089273    1.453462    0.450914
     11          1           0       -0.206662   -0.136579   -0.004752
     12          7           0       -4.693867    0.946808    0.191242
     13          8           0       -4.396595    2.076511    0.573391
     14          8           0       -5.839453    0.537582    0.015734
     15          6           0        3.543754    2.593907   -0.489022
     16          6           0        2.600528    2.160886    0.448709
     17          6           0        2.513010    0.809405    0.795677
     18          6           0        3.388263   -0.085824    0.182661
     19          6           0        4.338704    0.314749   -0.755152
     20          6           0        4.408307    1.671083   -1.086905
     21          1           0        3.604782    3.645654   -0.752646
     22          1           0        1.927820    2.875324    0.914635
     23          1           0        1.792221    0.446946    1.518522
     24          1           0        4.995769   -0.421027   -1.202722
     25          1           0        5.141818    2.004519   -1.815485
     26          7           0        3.305095   -1.519145    0.541927
     27          8           0        4.087610   -2.287927   -0.012401
     28          8           0        2.458966   -1.846660    1.371046
 ---------------------------------------------------------------------

 SCF Done:  E(RHF) =  -868.338420870     A.U. after   16 cycles
 E2 =    -0.2600215235D+01 EUMP2 =    -0.87093863610482D+03

 The electronic state is 1-A.
 Alpha  occ. eigenvalues --  -20.61803 -20.61774 -20.60705 -20.60691 -15.86831
 Alpha  occ. eigenvalues --  -15.85752 -11.32164 -11.31018 -11.28725 -11.28640
 Alpha  occ. eigenvalues --  -11.28336 -11.27695 -11.27631 -11.27629 -11.27562
 Alpha  occ. eigenvalues --  -11.27189 -11.26530 -11.26505  -1.60869  -1.59778
 Alpha  occ. eigenvalues --   -1.40421  -1.39335  -1.20304  -1.19170  -1.09685
 Alpha  occ. eigenvalues --   -1.08554  -1.05694  -1.04575  -0.96535  -0.95414
 Alpha  occ. eigenvalues --   -0.87083  -0.85957  -0.83361  -0.82269  -0.78442
 Alpha  occ. eigenvalues --   -0.77353  -0.73035  -0.72207  -0.71971  -0.71370
 Alpha  occ. eigenvalues --   -0.71100  -0.70221  -0.65936  -0.65678  -0.64814
 Alpha  occ. eigenvalues --   -0.64581  -0.63037  -0.61922  -0.56131  -0.54989
 Alpha  occ. eigenvalues --   -0.54034  -0.53764  -0.52884  -0.52617  -0.49810
 Alpha  occ. eigenvalues --   -0.49792  -0.48736  -0.48717  -0.45828  -0.44765
 Alpha  occ. eigenvalues --   -0.38240  -0.37287  -0.37087  -0.36185
 Alpha virt. eigenvalues --    0.04036   0.05201   0.10219   0.11467   0.15597
 Alpha virt. eigenvalues --    0.16717   0.20223   0.21946   0.25883   0.27187
 Alpha virt. eigenvalues --    0.28433   0.28669   0.30099   0.30983   0.32126

 Mulliken charges:
               1
     1  C   -0.170612
     2  C   -0.218946
     3  C   -0.171159
     4  C    0.158534
     5  C   -0.174045
     6  C   -0.220370
     7  H    0.234613
     8  H    0.224572
     9  H    0.275058
    10  H    0.269131
    11  H    0.223689
    12  N    0.488369
    13  O   -0.463505
    14  O   -0.460249
    15  C   -0.169873
    16  C   -0.219119
    17  C   -0.182598
    18  C    0.158798
    19  C   -0.170740
    20  C   -0.216964
    21  H    0.230354
    22  H    0.227494
    23  H    0.275263
    24  H    0.277829
    25  H    0.227419
    26  N    0.487034
    27  O   -0.456412
    28  O   -0.463565
 Sum of Mulliken charges =  -0.00000

 Dipole moment (field-independent basis, Debye):
    X=              4.5653    Y=              1.6965    Z=             -2.3270  Tot=              5.3977
 Quadrupole moment (field-independent basis, Debye-Ang):
   XX=           -125.7175   YY=           -103.2358   ZZ=           -104.0479
   XY=             31.8149   XZ=             -3.1806   YZ=              3.0590

 Normal termination of Gaussian 16 at Thu May  6 22:44:49 2021.
