 Gaussian 16, Revision A.03,
 Gaussian 16:  EM64L-G16RevA.03 25-Dec-2016

 -------------
 #p 6-31g* mp2
 -------------

 ------------------------------------------------------
 Input file generated by CHIRIPA (05-May-2021 14:55:23)
 ------------------------------------------------------
 Symbolic Z-matrix:
 Charge =  0 Multiplicity = 1

                         Standard orientation:
 ---------------------------------------------------------------------
 Center     Atomic      Atomic             Coordinates (Angstroms)
 Number     Number       Type             X           Y           Z
 ---------------------------------------------------------------------
      1          6           0       -3.439236    2.485520    0.629369
      2          6           0       -4.468753    1.581805    0.346679
      3          6           0       -4.177100    0.296400   -0.119390
      4          6           0       -2.838809   -0.053498   -0.292130
      5          6           0       -1.790858    0.824362   -0.019273
      6          6           0       -2.105925    2.104586    0.445814
      7          1           0       -3.674893    3.482042    0.991042
      8          1           0       -5.505133    1.874902    0.488293
      9          1           0       -4.954514   -0.423110   -0.345999
     10          1           0       -0.767372    0.503305   -0.170323
     11          1           0       -1.304333    2.804339    0.664541
     12          7           0       -2.517656   -1.411557   -0.785017
     13          8           0       -1.330491   -1.695433   -0.928858
     14          8           0       -3.459182   -2.166411   -1.018169
     15          6           0        4.339959   -0.138738   -0.141663
     16          6           0        4.755916    1.319102   -0.340829
     17          6           0        6.035088    1.461386   -1.166220
     18          1           0        5.157851   -0.682830    0.350232
     19          1           0        4.197735   -0.609683   -1.124200
     20          1           0        4.895968    1.787541    0.641803
     21          1           0        3.936864    1.859832   -0.832135
     22          1           0        5.903916    1.019576   -2.159294
     23          1           0        6.868470    0.946875   -0.676981
     24          1           0        6.314186    2.511643   -1.296321
     25          6           0        3.062894   -0.297297    0.681558
     26          6           0        2.646937   -1.755136    0.880724
     27          6           0        1.367765   -1.897421    1.706114
     28          1           0        3.205116    0.173648    1.664095
     29          1           0        2.245001    0.246795    0.189662
     30          1           0        3.465988   -2.295867    1.372030
     31          1           0        2.506884   -2.223576   -0.101908
     32          1           0        0.534383   -1.382909    1.216876
     33          1           0        1.498937   -1.455610    2.699189
     34          1           0        1.088667   -2.947678    1.836215
 ---------------------------------------------------------------------

 SCF Done:  E(RHF) =  -669.535868949     A.U. after   15 cycles
 E2 =    -0.2091855341D+01 EUMP2 =    -0.67162772429043D+03

 The electronic state is 1-A.
 Alpha  occ. eigenvalues --  -20.60897 -20.60891 -15.85925 -11.31256 -11.27820
 Alpha  occ. eigenvalues --  -11.27813 -11.27551 -11.26828 -11.26817 -11.21610
 Alpha  occ. eigenvalues --  -11.21309 -11.21240 -11.21107 -11.21056 -11.20414
 Alpha  occ. eigenvalues --   -1.59956  -1.39514  -1.19423  -1.08825  -1.08255
 Alpha  occ. eigenvalues --   -1.04821  -1.03270  -0.95738  -0.95651  -0.86744
 Alpha  occ. eigenvalues --   -0.86223  -0.82501  -0.79358  -0.78089  -0.77550
 Alpha  occ. eigenvalues --   -0.72154  -0.71269  -0.70536  -0.65085  -0.64919
 Alpha  occ. eigenvalues --   -0.64787  -0.62185  -0.60637  -0.59116  -0.57336
 Alpha  occ. eigenvalues --   -0.55327  -0.54999  -0.53149  -0.52919  -0.52387
 Alpha  occ. eigenvalues --   -0.52164  -0.49707  -0.48905  -0.48889  -0.47664
 Alpha  occ. eigenvalues --   -0.46396  -0.45642  -0.45525  -0.44835  -0.43552
 Alpha  occ. eigenvalues --   -0.37400  -0.36417
 Alpha virt. eigenvalues --    0.04941   0.11174   0.16448   0.20021   0.22887
 Alpha virt. eigenvalues --    0.23947   0.25715   0.27355   0.27725   0.28216
 Alpha virt. eigenvalues --    0.29242   0.30495   0.31510   0.32030   0.32262

 Mulliken charges:
               1
     1  C   -0.170508
     2  C   -0.218579
     3  C   -0.170483
     4  C    0.157911
     5  C   -0.173920
     6  C   -0.219737
     7  H    0.225927
     8  H    0.223722
     9  H    0.275722
    10  H    0.280428
    11  H    0.224370
    12  N    0.488487
    13  O   -0.460938
    14  O   -0.459058
    15  C   -0.298391
    16  C   -0.299039
    17  C   -0.475624
    18  H    0.150517
    19  H    0.152613
    20  H    0.150348
    21  H    0.148623
    22  H    0.156392
    23  H    0.155761
    24  H    0.159017
    25  C   -0.297824
    26  C   -0.299690
    27  C   -0.479921
    28  H    0.146830
    29  H    0.141513
    30  H    0.149801
    31  H    0.160727
    32  H    0.163400
    33  H    0.146834
    34  H    0.164770
 Sum of Mulliken charges =  -0.00000

 Dipole moment (field-independent basis, Debye):
    X=             -1.2429    Y=              4.6710    Z=              1.6548  Tot=              5.1090
 Quadrupole moment (field-independent basis, Debye-Ang):
   XX=            -83.9786   YY=            -95.4614   ZZ=            -96.4908
   XY=            -13.0560   XZ=             -3.6666   YZ=             -1.1467

 Normal termination of Gaussian 16 at Wed May  5 22:21:44 2021.
