 Gaussian 16, Revision A.03,
 Gaussian 16:  EM64L-G16RevA.03 25-Dec-2016

 -------------
 #p 6-31g* mp2
 -------------

 ------------------------------------------------------
 Input file generated by CHIRIPA (05-May-2021 14:57:23)
 ------------------------------------------------------
 Symbolic Z-matrix:
 Charge =  0 Multiplicity = 1

                         Standard orientation:
 ---------------------------------------------------------------------
 Center     Atomic      Atomic             Coordinates (Angstroms)
 Number     Number       Type             X           Y           Z
 ---------------------------------------------------------------------
      1          6           0        3.112573   -2.183195    1.086518
      2          6           0        4.289442   -1.649842    0.550759
      3          6           0        4.282219   -0.398925   -0.073500
      4          6           0        3.075009    0.294525   -0.144653
      5          6           0        1.885964   -0.210142    0.379534
      6          6           0        1.916699   -1.462912    0.999349
      7          1           0        3.127316   -3.155657    1.569731
      8          1           0        5.219628   -2.206987    0.617004
      9          1           0        5.178750    0.037560   -0.496739
     10          1           0        0.974038    0.368818    0.298201
     11          1           0        1.001201   -1.874649    1.414538
     12          7           0        3.054918    1.619796   -0.803176
     13          8           0        1.978422    2.210827   -0.852948
     14          8           0        4.116046    2.042419   -1.257086
     15          6           0       -3.163249    2.088223    1.330106
     16          6           0       -4.145573    1.804270    0.375679
     17          6           0       -4.108483    0.608185   -0.347199
     18          6           0       -3.070111   -0.285344   -0.088977
     19          6           0       -2.076775   -0.031119    0.855451
     20          6           0       -2.133800    1.171239    1.566529
     21          1           0       -3.199803    3.019807    1.887071
     22          1           0       -4.946232    2.514554    0.189973
     23          1           0       -4.856065    0.363047   -1.091811
     24          1           0       -1.291022   -0.758740    1.018481
     25          1           0       -1.369560    1.389108    2.307148
     26          7           0       -3.020293   -1.554906   -0.848009
     27          8           0       -2.095029   -2.325579   -0.601864
     28          8           0       -3.907453   -1.755276   -1.674711
 ---------------------------------------------------------------------

 SCF Done:  E(RHF) =  -868.337461838     A.U. after   16 cycles
 E2 =    -0.2600824880D+01 EUMP2 =    -0.87093828671825D+03

 The electronic state is 1-A.
 Alpha  occ. eigenvalues --  -20.61176 -20.61146 -20.60869 -20.60857 -15.86216
 Alpha  occ. eigenvalues --  -15.85918 -11.31575 -11.31248 -11.28254 -11.28053
 Alpha  occ. eigenvalues --  -11.27839 -11.27791 -11.27762 -11.27516 -11.27163
 Alpha  occ. eigenvalues --  -11.27053 -11.26848 -11.26789  -1.60232  -1.59941
 Alpha  occ. eigenvalues --   -1.39792  -1.39496  -1.19717  -1.19411  -1.09087
 Alpha  occ. eigenvalues --   -1.08803  -1.05153  -1.04820  -0.95948  -0.95649
 Alpha  occ. eigenvalues --   -0.86523  -0.86216  -0.82799  -0.82501  -0.77918
 Alpha  occ. eigenvalues --   -0.77519  -0.72440  -0.72140  -0.71547  -0.71261
 Alpha  occ. eigenvalues --   -0.70864  -0.70478  -0.65378  -0.65187  -0.65037
 Alpha  occ. eigenvalues --   -0.64826  -0.62724  -0.61966  -0.55580  -0.55285
 Alpha  occ. eigenvalues --   -0.53441  -0.53238  -0.53120  -0.52892  -0.49210
 Alpha  occ. eigenvalues --   -0.49177  -0.48897  -0.48890  -0.45200  -0.44911
 Alpha  occ. eigenvalues --   -0.37623  -0.37360  -0.36719  -0.36415
 Alpha virt. eigenvalues --    0.04642   0.04992   0.10898   0.11266   0.16100
 Alpha virt. eigenvalues --    0.16500   0.19058   0.22265   0.24922   0.27318
 Alpha virt. eigenvalues --    0.28199   0.29249   0.30157   0.31356   0.32296

 Mulliken charges:
               1
     1  C   -0.169796
     2  C   -0.218542
     3  C   -0.170173
     4  C    0.158070
     5  C   -0.175051
     6  C   -0.219801
     7  H    0.228132
     8  H    0.224314
     9  H    0.275782
    10  H    0.272698
    11  H    0.225087
    12  N    0.488111
    13  O   -0.462405
    14  O   -0.459745
    15  C   -0.168040
    16  C   -0.216939
    17  C   -0.168879
    18  C    0.160017
    19  C   -0.179240
    20  C   -0.217988
    21  H    0.229399
    22  H    0.226338
    23  H    0.277429
    24  H    0.271333
    25  H    0.224762
    26  N    0.487802
    27  O   -0.466055
    28  O   -0.456618
 Sum of Mulliken charges =  -0.00000

 Dipole moment (field-independent basis, Debye):
    X=             -0.2792    Y=             -0.1086    Z=              4.9360  Tot=              4.9450
 Quadrupole moment (field-independent basis, Debye-Ang):
   XX=            -93.7831   YY=           -110.5874   ZZ=           -105.9152
   XY=            -30.8663   XZ=              0.2933   YZ=             -0.3043

 Normal termination of Gaussian 16 at Thu May  6 09:46:00 2021.
