 Gaussian 16, Revision A.03,
 Gaussian 16:  EM64L-G16RevA.03 25-Dec-2016

 -------------
 #p 6-31g* mp2
 -------------

 ------------------------------------------------------
 Input file generated by CHIRIPA (05-May-2021 14:53:17)
 ------------------------------------------------------
 Symbolic Z-matrix:
 Charge =  0 Multiplicity = 1

                         Standard orientation:
 ---------------------------------------------------------------------
 Center     Atomic      Atomic             Coordinates (Angstroms)
 Number     Number       Type             X           Y           Z
 ---------------------------------------------------------------------
      1          6           0        3.490217    0.991684    0.256024
      2          6           0        2.812800    1.838564   -0.821884
      3          6           0        2.505185    3.260095   -0.350276
      4          1           0        2.843608    0.953289    1.143361
      5          1           0        4.421079    1.484764    0.568695
      6          1           0        1.884192    1.343334   -1.133416
      7          1           0        3.461010    1.874788   -1.706829
      8          1           0        3.425201    3.776579   -0.058016
      9          1           0        1.839424    3.242106    0.518654
     10          1           0        2.021170    3.847973   -1.136399
     11          6           0        3.804078   -0.432004   -0.200408
     12          6           0        4.481495   -1.278884    0.877500
     13          6           0        4.789110   -2.700416    0.405892
     14          1           0        2.873216   -0.925084   -0.513079
     15          1           0        4.450687   -0.393610   -1.087745
     16          1           0        3.833285   -1.315109    1.762445
     17          1           0        5.410102   -0.783655    1.189032
     18          1           0        5.454871   -2.682426   -0.463038
     19          1           0        3.869094   -3.216900    0.113632
     20          1           0        5.273125   -3.288293    1.192015
     21          6           0       -5.325523   -0.035249    0.426363
     22          6           0       -4.428139    0.797310    1.103169
     23          6           0       -3.054034    0.704459    0.862828
     24          6           0       -2.609945   -0.236353   -0.065044
     25          6           0       -3.478991   -1.079920   -0.755294
     26          6           0       -4.848926   -0.969559   -0.499077
     27          1           0       -6.391341    0.043680    0.619232
     28          1           0       -4.795426    1.523827    1.822417
     29          1           0       -2.337214    1.336586    1.372731
     30          1           0       -3.082886   -1.794466   -1.466591
     31          1           0       -5.543530   -1.617438   -1.026167
     32          7           0       -1.157449   -0.343918   -0.327886
     33          8           0       -0.791513   -1.180949   -1.150144
     34          8           0       -0.412423    0.410839    0.293333
 ---------------------------------------------------------------------

 SCF Done:  E(RHF) =  -669.536899669     A.U. after   15 cycles
 E2 =    -0.2091704034D+01 EUMP2 =    -0.67162860370256D+03

 The electronic state is 1-A.
 Alpha  occ. eigenvalues --  -20.61164 -20.61153 -15.86163 -11.31413 -11.27964
 Alpha  occ. eigenvalues --  -11.27960 -11.27689 -11.26953 -11.26943 -11.20371
 Alpha  occ. eigenvalues --  -11.20020 -11.19842 -11.19800 -11.19746 -11.19728
 Alpha  occ. eigenvalues --   -1.60202  -1.39760  -1.19571  -1.08991  -1.06898
 Alpha  occ. eigenvalues --   -1.04955  -1.02128  -0.95843  -0.94616  -0.86359
 Alpha  occ. eigenvalues --   -0.85644  -0.82679  -0.78200  -0.77742  -0.76693
 Alpha  occ. eigenvalues --   -0.72385  -0.71506  -0.70679  -0.65229  -0.64960
 Alpha  occ. eigenvalues --   -0.63490  -0.62302  -0.59503  -0.58006  -0.56234
 Alpha  occ. eigenvalues --   -0.55463  -0.53892  -0.53290  -0.53045  -0.51379
 Alpha  occ. eigenvalues --   -0.51057  -0.49212  -0.49139  -0.48504  -0.46534
 Alpha  occ. eigenvalues --   -0.45312  -0.45061  -0.44269  -0.44025  -0.42357
 Alpha  occ. eigenvalues --   -0.37545  -0.36552
 Alpha virt. eigenvalues --    0.04765   0.11105   0.16275   0.21228   0.24361
 Alpha virt. eigenvalues --    0.25583   0.27168   0.27916   0.28395   0.29015
 Alpha virt. eigenvalues --    0.29330   0.30835   0.32250   0.32768   0.33093

 Mulliken charges:
               1
     1  C   -0.295021
     2  C   -0.303621
     3  C   -0.474835
     4  H    0.155056
     5  H    0.140007
     6  H    0.174833
     7  H    0.142607
     8  H    0.148289
     9  H    0.156041
    10  H    0.153516
    11  C   -0.302674
    12  C   -0.298419
    13  C   -0.475284
    14  H    0.166651
    15  H    0.143340
    16  H    0.151143
    17  H    0.146901
    18  H    0.152630
    19  H    0.157340
    20  H    0.155114
    21  C   -0.170293
    22  C   -0.218577
    23  C   -0.170495
    24  C    0.158010
    25  C   -0.170507
    26  C   -0.218617
    27  H    0.226470
    28  H    0.224316
    29  H    0.275956
    30  H    0.276093
    31  H    0.224249
    32  N    0.489371
    33  O   -0.459035
    34  O   -0.460555
 Sum of Mulliken charges =  -0.00000

 Dipole moment (field-independent basis, Debye):
    X=             -5.6349    Y=              0.2368    Z=              0.9082  Tot=              5.7126
 Quadrupole moment (field-independent basis, Debye-Ang):
   XX=            -69.3971   YY=            -94.6595   ZZ=            -93.2491
   XY=              1.2039   XZ=             -1.8345   YZ=              2.5803

 Normal termination of Gaussian 16 at Wed May  5 22:01:26 2021.
