 Gaussian 16, Revision A.03,
 Gaussian 16:  EM64L-G16RevA.03 25-Dec-2016

 -------------
 #p 6-31g* mp2
 -------------

 ------------------------------------------------------
 Input file generated by CHIRIPA (05-May-2021 14:53:16)
 ------------------------------------------------------
 Symbolic Z-matrix:
 Charge =  0 Multiplicity = 1

                         Standard orientation:
 ---------------------------------------------------------------------
 Center     Atomic      Atomic             Coordinates (Angstroms)
 Number     Number       Type             X           Y           Z
 ---------------------------------------------------------------------
      1          6           0        3.334044    0.825718   -0.224166
      2          6           0        2.414658    1.887225    0.380744
      3          6           0        2.560580    3.250632   -0.295733
      4          1           0        4.376029    1.165235   -0.147083
      5          1           0        3.115266    0.729235   -1.296650
      6          1           0        2.634155    1.980693    1.452052
      7          1           0        1.374756    1.545057    0.302386
      8          1           0        2.321614    3.179303   -1.361758
      9          1           0        3.588170    3.617414   -0.205559
     10          1           0        1.894323    3.994444    0.152269
     11          6           0        3.199670   -0.542673    0.441550
     12          6           0        4.119057   -1.604179   -0.163360
     13          6           0        3.973134   -2.967587    0.513117
     14          1           0        3.418448   -0.446189    1.514034
     15          1           0        2.157685   -0.882189    0.364467
     16          1           0        5.158959   -1.262011   -0.085001
     17          1           0        3.899559   -1.697647   -1.234668
     18          1           0        2.945544   -3.334368    0.422943
     19          1           0        4.212100   -2.896257    1.579142
     20          1           0        4.639391   -3.711399    0.065116
     21          6           0       -2.238780    2.385625    0.106667
     22          6           0       -1.326396    1.619788   -0.626525
     23          6           0       -1.490173    0.235960   -0.739416
     24          6           0       -2.582536   -0.351888   -0.103437
     25          6           0       -3.508673    0.384007    0.634140
     26          6           0       -3.325091    1.766383    0.733554
     27          1           0       -2.103861    3.460053    0.189130
     28          1           0       -0.481824    2.098007   -1.114427
     29          1           0       -0.798931   -0.380863   -1.300782
     30          1           0       -4.340796   -0.121085    1.109398
     31          1           0       -4.035242    2.358633    1.303615
     32          7           0       -2.766402   -1.816116   -0.215817
     33          8           0       -3.737039   -2.310049    0.353859
     34          8           0       -1.936398   -2.442118   -0.871448
 ---------------------------------------------------------------------

 SCF Done:  E(RHF) =  -669.535060240     A.U. after   15 cycles
 E2 =    -0.2092649315D+01 EUMP2 =    -0.67162770955481D+03

 The electronic state is 1-A.
 Alpha  occ. eigenvalues --  -20.60822 -20.60815 -15.85875 -11.31253 -11.27826
 Alpha  occ. eigenvalues --  -11.27814 -11.27549 -11.26833 -11.26802 -11.22162
 Alpha  occ. eigenvalues --  -11.21916 -11.21826 -11.21673 -11.21584 -11.20949
 Alpha  occ. eigenvalues --   -1.59896  -1.39449  -1.19428  -1.08832  -1.08774
 Alpha  occ. eigenvalues --   -1.04839  -1.03882  -0.96339  -0.95648  -0.87349
 Alpha  occ. eigenvalues --   -0.86227  -0.82489  -0.79964  -0.78550  -0.77528
 Alpha  occ. eigenvalues --   -0.72093  -0.71219  -0.70524  -0.65541  -0.65073
 Alpha  occ. eigenvalues --   -0.64794  -0.62240  -0.61210  -0.59745  -0.57922
 Alpha  occ. eigenvalues --   -0.55648  -0.55309  -0.53185  -0.53024  -0.52908
 Alpha  occ. eigenvalues --   -0.52735  -0.50279  -0.48853  -0.48847  -0.48252
 Alpha  occ. eigenvalues --   -0.47002  -0.46087  -0.45997  -0.44851  -0.44124
 Alpha  occ. eigenvalues --   -0.37390  -0.36380
 Alpha virt. eigenvalues --    0.04978   0.11145   0.16350   0.19600   0.23037
 Alpha virt. eigenvalues --    0.23676   0.25755   0.26586   0.27299   0.28615
 Alpha virt. eigenvalues --    0.29200   0.30178   0.31159   0.31845   0.32426

 Mulliken charges:
               1
     1  C   -0.298033
     2  C   -0.308516
     3  C   -0.478287
     4  H    0.151621
     5  H    0.146181
     6  H    0.155602
     7  H    0.152929
     8  H    0.150395
     9  H    0.161212
    10  H    0.156303
    11  C   -0.299545
    12  C   -0.299726
    13  C   -0.477235
    14  H    0.150868
    15  H    0.151300
    16  H    0.151300
    17  H    0.152221
    18  H    0.161460
    19  H    0.154621
    20  H    0.160995
    21  C   -0.173019
    22  C   -0.219031
    23  C   -0.172854
    24  C    0.158991
    25  C   -0.170686
    26  C   -0.218331
    27  H    0.226371
    28  H    0.229992
    29  H    0.275835
    30  H    0.275885
    31  H    0.223804
    32  N    0.488135
    33  O   -0.460023
    34  O   -0.460736
 Sum of Mulliken charges =  -0.00000

 Dipole moment (field-independent basis, Debye):
    X=              0.6586    Y=              5.0824    Z=              0.4608  Tot=              5.1456
 Quadrupole moment (field-independent basis, Debye-Ang):
   XX=            -94.0233   YY=            -99.9603   ZZ=            -93.6081
   XY=            -13.9801   XZ=             -3.2056   YZ=              0.1911

 Normal termination of Gaussian 16 at Thu May  6 05:56:59 2021.
