 Gaussian 16, Revision A.03,
 Gaussian 16:  EM64L-G16RevA.03 25-Dec-2016

 -------------
 #p 6-31g* mp2
 -------------

 ------------------------------------------------------
 Input file generated by CHIRIPA (05-May-2021 14:55:19)
 ------------------------------------------------------
 Symbolic Z-matrix:
 Charge =  0 Multiplicity = 1

                         Standard orientation:
 ---------------------------------------------------------------------
 Center     Atomic      Atomic             Coordinates (Angstroms)
 Number     Number       Type             X           Y           Z
 ---------------------------------------------------------------------
      1          6           0       -6.082161   -0.051206    0.397499
      2          6           0       -5.498520   -1.306655    0.198172
      3          6           0       -4.126415   -1.421366   -0.044146
      4          6           0       -3.364377   -0.254635   -0.080573
      5          6           0       -3.916540    1.010465    0.114175
      6          6           0       -5.290704    1.101316    0.354940
      7          1           0       -7.148845    0.028637    0.585134
      8          1           0       -6.110724   -2.203424    0.230671
      9          1           0       -3.648697   -2.380705   -0.201853
     10          1           0       -3.280428    1.886433    0.075954
     11          1           0       -5.741254    2.077633    0.509384
     12          7           0       -1.910701   -0.363445   -0.336282
     13          8           0       -1.261156    0.679623   -0.363456
     14          8           0       -1.448379   -1.489737   -0.504690
     15          6           0        3.863307    0.394614   -0.064359
     16          6           0        3.410699    1.852590    0.021877
     17          6           0        1.908282    2.019719   -0.207480
     18          1           0        3.594392   -0.008441   -1.050349
     19          1           0        3.310069   -0.198248    0.677150
     20          1           0        3.965625    2.442779   -0.718631
     21          1           0        3.680894    2.252278    1.007706
     22          1           0        1.339556    1.455497    0.538714
     23          1           0        1.625905    1.647079   -1.197431
     24          1           0        1.606427    3.069662   -0.141405
     25          6           0        5.362830    0.211344    0.162738
     26          6           0        5.815438   -1.246632    0.076501
     27          6           0        7.317855   -1.413762    0.305857
     28          1           0        5.916068    0.804206   -0.578773
     29          1           0        5.631745    0.614399    1.148727
     30          1           0        5.545243   -1.646321   -0.909328
     31          1           0        5.260512   -1.836820    0.817008
     32          1           0        7.600232   -1.041121    1.295809
     33          1           0        7.886581   -0.849539   -0.440337
     34          1           0        7.619710   -2.463704    0.239783
 ---------------------------------------------------------------------

 SCF Done:  E(RHF) =  -669.535465456     A.U. after   15 cycles
 E2 =    -0.2090963698D+01 EUMP2 =    -0.67162642915406D+03

 The electronic state is 1-A.
 Alpha  occ. eigenvalues --  -20.60874 -20.60868 -15.85910 -11.31260 -11.27828
 Alpha  occ. eigenvalues --  -11.27824 -11.27570 -11.26841 -11.26831 -11.20791
 Alpha  occ. eigenvalues --  -11.20447 -11.20419 -11.20270 -11.20149 -11.19214
 Alpha  occ. eigenvalues --   -1.59944  -1.39498  -1.19433  -1.08832  -1.07355
 Alpha  occ. eigenvalues --   -1.04832  -1.02395  -0.95673  -0.94810  -0.86233
 Alpha  occ. eigenvalues --   -0.85816  -0.82500  -0.78486  -0.77550  -0.77113
 Alpha  occ. eigenvalues --   -0.72124  -0.71263  -0.70540  -0.65086  -0.64835
 Alpha  occ. eigenvalues --   -0.64000  -0.62179  -0.59803  -0.58264  -0.56423
 Alpha  occ. eigenvalues --   -0.55336  -0.54098  -0.53163  -0.52925  -0.51532
 Alpha  occ. eigenvalues --   -0.51236  -0.48917  -0.48890  -0.48707  -0.46709
 Alpha  occ. eigenvalues --   -0.45560  -0.44907  -0.44627  -0.44538  -0.42666
 Alpha  occ. eigenvalues --   -0.37414  -0.36435
 Alpha virt. eigenvalues --    0.04965   0.11219   0.16452   0.21354   0.23861
 Alpha virt. eigenvalues --    0.25466   0.27270   0.27711   0.28200   0.28544
 Alpha virt. eigenvalues --    0.29262   0.30926   0.32434   0.32591   0.32752

 Mulliken charges:
               1
     1  C   -0.170690
     2  C   -0.218596
     3  C   -0.170682
     4  C    0.157584
     5  C   -0.170997
     6  C   -0.218557
     7  H    0.225846
     8  H    0.223665
     9  H    0.275758
    10  H    0.276060
    11  H    0.223729
    12  N    0.490415
    13  O   -0.459999
    14  O   -0.459823
    15  C   -0.296769
    16  C   -0.301688
    17  C   -0.469169
    18  H    0.151653
    19  H    0.151927
    20  H    0.145619
    21  H    0.145451
    22  H    0.167376
    23  H    0.161155
    24  H    0.148731
    25  C   -0.297465
    26  C   -0.298881
    27  C   -0.475093
    28  H    0.146914
    29  H    0.146808
    30  H    0.152129
    31  H    0.151999
    32  H    0.153618
    33  H    0.153786
    34  H    0.158186
 Sum of Mulliken charges =  -0.00000

 Dipole moment (field-independent basis, Debye):
    X=             -5.4937    Y=              0.2968    Z=              0.8681  Tot=              5.5698
 Quadrupole moment (field-independent basis, Debye-Ang):
   XX=            -63.6291   YY=            -90.5622   ZZ=            -94.8343
   XY=              0.4520   XZ=             -3.1301   YZ=              0.0361

 Normal termination of Gaussian 16 at Thu May  6 02:53:49 2021.
